<?xml version="1.0"?>
<VTKFile type="StructuredGrid" version="0.1">
  <StructuredGrid WholeExtent="0 8 0 8 0 8">
    <Piece Extent="0 8 0 8 0 8">
      <PointData Scalars="temperature" Vectors="velocity">
        <DataArray type="Float32" Name="temperature" format="ascii">
1.000000e+00
8.750000e-01
7.500000e-01
6.250000e-01
5.001738e-01
3.750000e-01
2.500000e-01
1.250000e-01
0.000000e+00
1.000000e+00
8.750000e-01
7.500000e-01
6.250000e-01
5.002445e-01
3.750000e-01
2.500000e-01
1.250000e-01
0.000000e+00
1.000000e+00
8.750000e-01
7.500000e-01
6.250000e-01
5.021646e-01
3.750000e-01
2.500000e-01
1.250000e-01
0.000000e+00
1.000000e+00
8.750000e-01
7.500000e-01
6.250000e-01
5.060247e-01
3.750000e-01
2.500000e-01
1.250000e-01
0.000000e+00
1.000000e+00
8.750000e-01
7.500000e-01
6.250000e-01
5.113516e-01
3.750000e-01
2.500000e-01
1.250000e-01
0.000000e+00
1.000000e+00
8.750000e-01
7.500000e-01
6.250000e-01
5.171548e-01
3.750000e-01
2.500000e-01
1.250000e-01
0.000000e+00
1.000000e+00
8.750000e-01
7.500000e-01
6.250000e-01
5.222849e-01
3.750000e-01
2.500000e-01
1.250000e-01
0.000000e+00
1.000000e+00
8.750000e-01
7.500000e-01
6.250000e-01
5.258827e-01
3.750000e-01
2.500000e-01
1.250000e-01
0.000000e+00
1.000000e+00
8.750000e-01
7.500000e-01
6.250000e-01
5.276166e-01
3.750000e-01
2.500000e-01
1.250000e-01
0.000000e+00
1.000000e+00
8.750000e-01
7.500000e-01
6.250000e-01
4.993471e-01
3.750000e-01
2.500000e-01
1.250000e-01
0.000000e+00
1.000000e+00
8.750000e-01
7.500000e-01
6.250000e-01
4.993952e-01
3.750000e-01
2.500000e-01
1.250000e-01
0.000000e+00
1.000000e+00
8.750000e-01
7.500000e-01
6.250000e-01
5.014751e-01
3.750000e-01
2.500000e-01
1.250000e-01
0.000000e+00
1.000000e+00
8.750000e-01
7.500000e-01
6.250000e-01
5.057014e-01
3.750000e-01
2.500000e-01
1.250000e-01
0.000000e+00
1.000000e+00
8.750000e-01
7.500000e-01
6.250000e-01
5.114941e-01
3.750000e-01
2.500000e-01
1.250000e-01
0.000000e+00
1.000000e+00
8.750000e-01
7.500000e-01
6.250000e-01
5.176411e-01
3.750000e-01
2.500000e-01
1.250000e-01
0.000000e+00
1.000000e+00
8.750000e-01
7.500000e-01
6.250000e-01
5.227879e-01
3.750000e-01
2.500000e-01
1.250000e-01
0.000000e+00
1.000000e+00
8.750000e-01
7.500000e-01
6.250000e-01
5.260176e-01
3.750000e-01
2.500000e-01
1.250000e-01
0.000000e+00
1.000000e+00
8.750000e-01
7.500000e-01
6.250000e-01
5.270995e-01
3.750000e-01
2.500000e-01
1.250000e-01
0.000000e+00
1.000000e+00
8.750000e-01
7.500000e-01
6.250000e-01
4.966767e-01
3.750000e-01
2.500000e-01
1.250000e-01
0.000000e+00
1.000000e+00
8.750000e-01
7.500000e-01
6.250000e-01
4.965421e-01
3.750000e-01
2.500000e-01
1.250000e-01
0.000000e+00
1.000000e+00
8.750000e-01
7.500000e-01
6.250000e-01
4.986238e-01
3.750000e-01
2.500000e-01
1.250000e-01
0.000000e+00
1.000000e+00
8.750000e-01
7.500000e-01
6.250000e-01
5.030837e-01
3.750000e-01
2.500000e-01
1.250000e-01
0.000000e+00
1.000000e+00
8.750000e-01
7.500000e-01
6.250000e-01
5.092575e-01
3.750000e-01
2.500000e-01
1.250000e-01
0.000000e+00
1.000000e+00
8.750000e-01
7.500000e-01
6.250000e-01
5.157262e-01
3.750000e-01
2.500000e-01
1.250000e-01
0.000000e+00
1.000000e+00
8.750000e-01
7.500000e-01
6.250000e-01
5.209399e-01
3.750000e-01
2.500000e-01
1.250000e-01
0.000000e+00
1.000000e+00
8.750000e-01
7.500000e-01
6.250000e-01
5.239321e-01
3.750000e-01
2.500000e-01
1.250000e-01
0.000000e+00
1.000000e+00
8.750000e-01
7.500000e-01
6.250000e-01
5.245690e-01
3.750000e-01
2.500000e-01
1.250000e-01
0.000000e+00
1.000000e+00
8.750000e-01
7.500000e-01
6.250000e-01
4.922142e-01
3.750000e-01
2.500000e-01
1.250000e-01
0.000000e+00
1.000000e+00
8.750000e-01
7.500000e-01
6.250000e-01
4.917387e-01
3.750000e-01
2.500000e-01
1.250000e-01
0.000000e+00
1.000000e+00
8.750000e-01
7.500000e-01
6.250000e-01
4.936389e-01
3.750000e-01
2.500000e-01
1.250000e-01
0.000000e+00
1.000000e+00
8.750000e-01
7.500000e-01
6.250000e-01
4.981414e-01
3.750000e-01
2.500000e-01
1.250000e-01
0.000000e+00
1.000000e+00
8.750000e-01
7.500000e-01
6.250000e-01
5.045437e-01
3.750000e-01
2.500000e-01
1.250000e-01
0.000000e+00
1.000000e+00
8.750000e-01
7.500000e-01
6.250000e-01
5.112799e-01
3.750000e-01
2.500000e-01
1.250000e-01
0.000000e+00
1.000000e+00
8.750000e-01
7.500000e-01
6.250000e-01
5.166478e-01
3.750000e-01
2.500000e-01
1.250000e-01
0.000000e+00
1.000000e+00
8.750000e-01
7.500000e-01
6.250000e-01
5.196306e-01
3.750000e-01
2.500000e-01
1.250000e-01
0.000000e+00
1.000000e+00
8.750000e-01
7.500000e-01
6.250000e-01
5.201499e-01
3.750000e-01
2.500000e-01
1.250000e-01
0.000000e+00
1.000000e+00
8.750000e-01
7.500000e-01
6.250000e-01
4.865757e-01
3.750000e-01
2.500000e-01
1.250000e-01
0.000000e+00
1.000000e+00
8.750000e-01
7.500000e-01
6.250000e-01
4.857296e-01
3.750000e-01
2.500000e-01
1.250000e-01
0.000000e+00
1.000000e+00
8.750000e-01
7.500000e-01
6.250000e-01
4.873628e-01
3.750000e-01
2.500000e-01
1.250000e-01
0.000000e+00
1.000000e+00
8.750000e-01
7.500000e-01
6.250000e-01
4.917528e-01
3.750000e-01
2.500000e-01
1.250000e-01
0.000000e+00
1.000000e+00
8.750000e-01
7.500000e-01
6.250000e-01
4.982017e-01
3.750000e-01
2.500000e-01
1.250000e-01
0.000000e+00
1.000000e+00
8.750000e-01
7.500000e-01
6.250000e-01
5.050923e-01
3.750000e-01
2.500000e-01
1.250000e-01
0.000000e+00
1.000000e+00
8.750000e-01
7.500000e-01
6.250000e-01
5.106535e-01
3.750000e-01
2.500000e-01
1.250000e-01
0.000000e+00
1.000000e+00
8.750000e-01
7.500000e-01
6.250000e-01
5.138289e-01
3.750000e-01
2.500000e-01
1.250000e-01
0.000000e+00
1.000000e+00
8.750000e-01
7.500000e-01
6.250000e-01
5.145373e-01
3.750000e-01
2.500000e-01
1.250000e-01
0.000000e+00
1.000000e+00
8.750000e-01
7.500000e-01
6.250000e-01
4.808345e-01
3.750000e-01
2.500000e-01
1.250000e-01
0.000000e+00
1.000000e+00
8.750000e-01
7.500000e-01
6.250000e-01
4.798069e-01
3.750000e-01
2.500000e-01
1.250000e-01
0.000000e+00
1.000000e+00
8.750000e-01
7.500000e-01
6.250000e-01
4.812836e-01
3.750000e-01
2.500000e-01
1.250000e-01
0.000000e+00
1.000000e+00
8.750000e-01
7.500000e-01
6.250000e-01
4.855337e-01
3.750000e-01
2.500000e-01
1.250000e-01
0.000000e+00
1.000000e+00
8.750000e-01
7.500000e-01
6.250000e-01
4.918761e-01
3.750000e-01
2.500000e-01
1.250000e-01
0.000000e+00
1.000000e+00
8.750000e-01
7.500000e-01
6.250000e-01
4.987411e-01
3.750000e-01
2.500000e-01
1.250000e-01
0.000000e+00
1.000000e+00
8.750000e-01
7.500000e-01
6.250000e-01
5.044025e-01
3.750000e-01
2.500000e-01
1.250000e-01
0.000000e+00
1.000000e+00
8.750000e-01
7.500000e-01
6.250000e-01
5.078085e-01
3.750000e-01
2.500000e-01
1.250000e-01
0.000000e+00
1.000000e+00
8.750000e-01
7.500000e-01
6.250000e-01
5.088404e-01
3.750000e-01
2.500000e-01
1.250000e-01
0.000000e+00
1.000000e+00
8.750000e-01
7.500000e-01
6.250000e-01
4.761229e-01
3.750000e-01
2.500000e-01
1.250000e-01
0.000000e+00
1.000000e+00
8.750000e-01
7.500000e-01
6.250000e-01
4.752759e-01
3.750000e-01
2.500000e-01
1.250000e-01
0.000000e+00
1.000000e+00
8.750000e-01
7.500000e-01
6.250000e-01
4.768650e-01
3.750000e-01
2.500000e-01
1.250000e-01
0.000000e+00
1.000000e+00
8.750000e-01
7.500000e-01
6.250000e-01
4.810706e-01
3.750000e-01
2.500000e-01
1.250000e-01
0.000000e+00
1.000000e+00
8.750000e-01
7.500000e-01
6.250000e-01
4.872127e-01
3.750000e-01
2.500000e-01
1.250000e-01
0.000000e+00
1.000000e+00
8.750000e-01
7.500000e-01
6.250000e-01
4.938432e-01
3.750000e-01
2.500000e-01
1.250000e-01
0.000000e+00
1.000000e+00
8.750000e-01
7.500000e-01
6.250000e-01
4.993915e-01
3.750000e-01
2.500000e-01
1.250000e-01
0.000000e+00
1.000000e+00
8.750000e-01
7.500000e-01
6.250000e-01
5.028797e-01
3.750000e-01
2.500000e-01
1.250000e-01
0.000000e+00
1.000000e+00
8.750000e-01
7.500000e-01
6.250000e-01
5.041589e-01
3.750000e-01
2.500000e-01
1.250000e-01
0.000000e+00
1.000000e+00
8.750000e-01
7.500000e-01
6.250000e-01
4.731971e-01
3.750000e-01
2.500000e-01
1.250000e-01
0.000000e+00
1.000000e+00
8.750000e-01
7.500000e-01
6.250000e-01
4.729053e-01
3.750000e-01
2.500000e-01
1.250000e-01
0.000000e+00
1.000000e+00
8.750000e-01
7.500000e-01
6.250000e-01
4.748835e-01
3.750000e-01
2.500000e-01
1.250000e-01
0.000000e+00
1.000000e+00
8.750000e-01
7.500000e-01
6.250000e-01
4.791656e-01
3.750000e-01
2.500000e-01
1.250000e-01
0.000000e+00
1.000000e+00
8.750000e-01
7.500000e-01
6.250000e-01
4.850613e-01
3.750000e-01
2.500000e-01
1.250000e-01
0.000000e+00
1.000000e+00
8.750000e-01
7.500000e-01
6.250000e-01
4.912847e-01
3.750000e-01
2.500000e-01
1.250000e-01
0.000000e+00
1.000000e+00
8.750000e-01
7.500000e-01
6.250000e-01
4.964905e-01
3.750000e-01
2.500000e-01
1.250000e-01
0.000000e+00
1.000000e+00
8.750000e-01
7.500000e-01
6.250000e-01
4.998360e-01
3.750000e-01
2.500000e-01
1.250000e-01
0.000000e+00
1.000000e+00
8.750000e-01
7.500000e-01
6.250000e-01
5.011709e-01
3.750000e-01
2.500000e-01
1.250000e-01
0.000000e+00
1.000000e+00
8.750000e-01
7.500000e-01
6.250000e-01
4.722520e-01
3.750000e-01
2.500000e-01
1.250000e-01
0.000000e+00
1.000000e+00
8.750000e-01
7.500000e-01
6.250000e-01
4.727553e-01
3.750000e-01
2.500000e-01
1.250000e-01
0.000000e+00
1.000000e+00
8.750000e-01
7.500000e-01
6.250000e-01
4.752768e-01
3.750000e-01
2.500000e-01
1.250000e-01
0.000000e+00
1.000000e+00
8.750000e-01
7.500000e-01
6.250000e-01
4.796960e-01
3.750000e-01
2.500000e-01
1.250000e-01
0.000000e+00
1.000000e+00
8.750000e-01
7.500000e-01
6.250000e-01
4.853205e-01
3.750000e-01
2.500000e-01
1.250000e-01
0.000000e+00
1.000000e+00
8.750000e-01
7.500000e-01
6.250000e-01
4.910418e-01
3.750000e-01
2.500000e-01
1.250000e-01
0.000000e+00
1.000000e+00
8.750000e-01
7.500000e-01
6.250000e-01
4.957573e-01
3.750000e-01
2.500000e-01
1.250000e-01
0.000000e+00
1.000000e+00
8.750000e-01
7.500000e-01
6.250000e-01
4.987841e-01
3.750000e-01
2.500000e-01
1.250000e-01
0.000000e+00
1.000000e+00
8.750000e-01
7.500000e-01
6.250000e-01
4.999970e-01
3.750000e-01
2.500000e-01
1.250000e-01
0.000000e+00
        </DataArray>
        <DataArray type="Float32" Name="velocity" NumberOfComponents="3" format="ascii">
3.3678e-01 5.4690e-08 -1.6545e-02
3.3792e-01 7.4237e-08 -7.8420e-03
2.8705e-01 5.9335e-08 8.6685e-04
1.8253e-01 4.0898e-08 9.0508e-03
3.2936e-02 3.9528e-08 1.6221e-02
-1.0686e-01 3.9473e-08 2.0163e-02
-1.9932e-01 3.3932e-08 2.0105e-02
-2.5218e-01 3.3355e-08 1.7524e-02
-2.7684e-01 3.7761e-08 1.3601e-02
-4.0596e-01 6.8422e-08 -2.3676e-02
-4.0603e-01 5.9083e-08 -1.1358e-02
-3.4467e-01 4.4348e-08 1.1680e-03
-2.1837e-01 4.2808e-08 1.1836e-02
-3.8362e-02 3.3253e-08 2.1650e-02
1.3009e-01 2.4888e-08 2.8174e-02
2.4199e-01 3.4684e-08 2.9514e-02
3.0601e-01 3.4765e-08 2.5692e-02
3.3506e-01 3.4188e-08 1.9541e-02
-1.1436e+00 6.4526e-08 -2.0256e-01
-1.1594e+00 5.8085e-08 -9.5264e-02
-9.9879e-01 4.4136e-08 1.0868e-02
-6.4976e-01 3.9296e-08 1.0809e-01
-1.3940e-01 1.5421e-08 1.9438e-01
3.4082e-01 1.2002e-08 2.4525e-01
6.6280e-01 1.8082e-08 2.4702e-01
8.5089e-01 1.3346e-08 2.1627e-01
9.4024e-01 -3.0946e-09 1.6654e-01
-1.7102e+00 3.5751e-08 -5.2881e-01
-1.7900e+00 6.8756e-08 -2.3686e-01
-1.5942e+00 5.0340e-08 4.6985e-02
-1.0930e+00 1.9060e-08 3.0764e-01
-3.2682e-01 -5.2160e-09 5.3494e-01
4.1106e-01 -3.3699e-08 6.6054e-01
9.2166e-01 -5.1136e-08 6.5661e-01
1.2359e+00 -7.5919e-08 5.6805e-01
1.3994e+00 -9.8604e-08 4.3271e-01
-1.9555e+00 4.7488e-08 -8.9348e-01
-2.1739e+00 2.9979e-08 -3.6430e-01
-2.0460e+00 2.5589e-08 1.3765e-01
-1.5206e+00 -3.1078e-08 5.8991e-01
-6.3993e-01 -4.4256e-08 9.7355e-01
2.4440e-01 -5.3082e-08 1.1720e+00
8.9630e-01 -8.9332e-08 1.1441e+00
1.3304e+00 -9.9112e-08 9.7478e-01
1.5864e+00 -1.1592e-07 7.2481e-01
-1.8224e+00 -2.3262e-10 -1.1357e+00
-2.2544e+00 2.1411e-08 -3.8216e-01
-2.3016e+00 2.2677e-08 3.0598e-01
-1.8925e+00 -4.6004e-08 9.0724e-01
-1.0675e+00 -1.0453e-07 1.3918e+00
-1.6770e-01 -6.7472e-08 1.6143e+00
5.5896e-01 -5.0451e-08 1.5374e+00
1.0990e+00 -5.1369e-08 1.2760e+00
1.4634e+00 -5.7316e-08 9.1190e-01
-1.3926e+00 -5.0723e-10 -1.1304e+00
-2.0674e+00 1.6674e-08 -2.2507e-01
-2.3576e+00 4.7063e-08 5.6018e-01
-2.1715e+00 -5.0216e-08 1.2034e+00
-1.5317e+00 -6.4498e-08 1.6788e+00
-7.3219e-01 -6.7246e-08 1.8453e+00
7.4877e-03 -7.0073e-08 1.6893e+00
6.2311e-01 -2.9963e-08 1.3425e+00
1.0925e+00 -1.6583e-08 8.8677e-01
-8.1151e-01 1.7378e-09 -8.3372e-01
-1.7215e+00 9.4732e-09 1.1683e-01
-2.2580e+00 -1.7300e-08 8.7608e-01
-2.3252e+00 4.7705e-08 1.4422e+00
-1.9409e+00 1.2547e-09 1.7817e+00
-1.3000e+00 -2.5848e-08 1.8042e+00
-5.9253e-01 -2.7295e-08 1.5481e+00
7.3904e-02 -5.8411e-08 1.1433e+00
6.2543e-01 -7.3446e-08 6.4254e-01
-2.2878e-01 -9.0955e-09 -2.9202e-01
-1.3588e+00 6.1651e-08 5.9191e-01
-2.0691e+00 1.6463e-08 1.2218e+00
-2.3547e+00 3.4201e-08 1.5966e+00
-2.1971e+00 3.0566e-08 1.6906e+00
-1.7194e+00 2.1953e-08 1.5203e+00
-1.0823e+00 1.8855e-08 1.1555e+00
-4.0408e-01 -1.5226e-08 7.0180e-01
2.0507e-01 7.7872e-09 2.6176e-01
3.3837e-01 7.3126e-01 6.2269e-02
3.3739e-01 7.3440e-01 3.0038e-02
2.8478e-01 6.2589e-01 -2.5757e-03
1.7902e-01 3.9964e-01 -3.1908e-02
2.8709e-02 7.4934e-02 -5.8332e-02
-1.1125e-01 -2.2932e-01 -7.4574e-02
-2.0335e-01 -4.3144e-01 -7.6292e-02
-2.5541e-01 -5.4775e-01 -6.6719e-02
-2.7894e-01 -6.0153e-01 -5.1193e-02
-4.3752e-01 7.5594e-01 5.7107e-02
-4.3579e-01 7.5890e-01 2.7200e-02
-3.6724e-01 6.4601e-01 -2.5742e-03
-2.2964e-01 4.1171e-01 -3.0760e-02
-3.5924e-02 7.6266e-02 -5.5643e-02
1.4520e-01 -2.3844e-01 -6.9448e-02
2.6554e-01 -4.4813e-01 -6.9443e-02
3.3400e-01 -5.6890e-01 -6.0655e-02
3.6506e-01 -6.2468e-01 -4.6970e-02
-1.2068e+00 7.9060e-01 -1.3530e-01
-1.2195e+00 7.8378e-01 -6.2441e-02
-1.0448e+00 6.5690e-01 8.0235e-03
-6.7378e-01 4.0632e-01 7.5514e-02
-1.3446e-01 5.4913e-02 1.3493e-01
3.7347e-01 -2.7247e-01 1.6691e-01
7.1310e-01 -4.8845e-01 1.6575e-01
9.1089e-01 -6.1028e-01 1.4436e-01
1.0043e+00 -6.6469e-01 1.1179e-01
-1.7766e+00 8.3261e-01 -4.8460e-01
-1.8626e+00 8.0634e-01 -2.1128e-01
-1.6557e+00 6.5445e-01 5.1049e-02
-1.1335e+00 3.7925e-01 2.9790e-01
-3.3557e-01 8.3724e-03 5.1234e-01
4.3810e-01 -3.3209e-01 6.2136e-01
9.7508e-01 -5.5093e-01 6.0972e-01
1.3055e+00 -6.6892e-01 5.2452e-01
1.4807e+00 -7.1910e-01 4.0083e-01
-1.9707e+00 8.7008e-01 -8.5511e-01
-2.2243e+00 8.1717e-01 -3.3267e-01
-2.1016e+00 6.3472e-01 1.5829e-01
-1.5770e+00 3.3285e-01 6.0959e-01
-6.8585e-01 -5.5409e-02 9.8791e-01
2.2968e-01 -4.0455e-01 1.1674e+00
9.0946e-01 -6.2091e-01 1.1249e+00
1.3690e+00 -7.2956e-01 9.5086e-01
1.6541e+00 -7.7210e-01 7.1236e-01
-1.7450e+00 8.8308e-01 -1.0573e+00
-2.2459e+00 8.0461e-01 -3.1771e-01
-2.3261e+00 5.9578e-01 3.5654e-01
-1.9548e+00 2.7506e-01 9.4859e-01
-1.1602e+00 -1.1955e-01 1.4164e+00
-2.5082e-01 -4.6707e-01 1.6066e+00
5.0000e-01 -6.7392e-01 1.5056e+00
1.0684e+00 -7.6923e-01 1.2360e+00
1.4823e+00 -8.0315e-01 8.9096e-01
-1.2136e+00 8.6005e-01 -9.5309e-01
-1.9887e+00 7.6012e-01 -9.8395e-02
-2.3312e+00 5.3832e-01 6.4783e-01
-2.2189e+00 2.1633e-01 1.2518e+00
-1.6548e+00 -1.6786e-01 1.6712e+00
-8.7168e-01 -4.9918e-01 1.7823e+00
-1.2352e-01 -6.8842e-01 1.5909e+00
5.2406e-01 -7.6838e-01 1.2379e+00
1.0600e+00 -7.8888e-01 8.2705e-01
-5.8556e-01 7.8816e-01 -5.4480e-01
-1.5867e+00 6.8954e-01 3.1284e-01
-2.1754e+00 4.6833e-01 1.0015e+00
-2.3303e+00 1.6197e-01 1.4823e+00
-2.0487e+00 -1.9012e-01 1.7159e+00
-1.4512e+00 -4.9051e-01 1.6512e+00
-7.5579e-01 -6.5686e-01 1.3493e+00
-7.9772e-02 -7.1867e-01 9.3449e-01
5.3952e-01 -7.4483e-01 4.9914e-01
-3.3193e-02 7.5833e-01 7.5805e-02
-1.1673e+00 5.8839e-01 8.3908e-01
-1.9396e+00 3.9084e-01 1.3783e+00
-2.3057e+00 1.1657e-01 1.6262e+00
-2.2539e+00 -2.0627e-01 1.5807e+00
-1.8508e+00 -4.5440e-01 1.3000e+00
-1.2494e+00 -5.8398e-01 8.7806e-01
-5.9083e-01 -6.1964e-01 4.1908e-01
6.1767e-02 -5.4879e-01 -9.3596e-04
3.4305e-01 1.4033e+00 3.0383e-01
3.3550e-01 1.4362e+00 1.4112e-01
2.7759e-01 1.2496e+00 -1.9332e-02
1.6795e-01 8.2682e-01 -1.6719e-01
1.5302e-02 2.0066e-01 -2.9756e-01
-1.2498e-01 -3.9243e-01 -3.7202e-01
-2.1545e-01 -7.9386e-01 -3.7226e-01
-2.6477e-01 -1.0321e+00 -3.2426e-01
-2.8492e-01 -1.1489e+00 -2.4854e-01
-4.7528e-01 1.4454e+00 3.1266e-01
-4.6689e-01 1.4832e+00 1.4324e-01
-3.8531e-01 1.2913e+00 -2.1538e-02
-2.3117e-01 8.5639e-01 -1.7799e-01
-2.0501e-02 2.1090e-01 -3.1494e-01
1.7526e-01 -4.0380e-01 -3.8805e-01
3.0388e-01 -8.2132e-01 -3.8453e-01
3.7531e-01 -1.0704e+00 -3.3363e-01
4.0753e-01 -1.1940e+00 -2.5726e-01
-1.2931e+00 1.5169e+00 1.1917e-01
-1.2824e+00 1.5337e+00 5.2307e-02
-1.0768e+00 1.3154e+00 -1.1735e-02
-6.6850e-01 8.4873e-01 -7.1869e-02
-8.7061e-02 1.6744e-01 -1.2384e-01
4.5458e-01 -4.7571e-01 -1.5086e-01
8.0960e-01 -9.0610e-01 -1.4840e-01
1.0107e+00 -1.1577e+00 -1.2778e-01
1.0992e+00 -1.2760e+00 -9.7951e-02
-1.8930e+00 1.6137e+00 -2.4446e-01
-1.9432e+00 1.5809e+00 -9.8067e-02
-1.6946e+00 1.3107e+00 3.8289e-02
-1.1208e+00 7.9286e-01 1.6489e-01
-2.6397e-01 6.3693e-02 2.7197e-01
5.5472e-01 -6.0981e-01 3.2488e-01
1.1122e+00 -1.0458e+00 3.1583e-01
1.4454e+00 -1.2874e+00 2.6856e-01
1.6091e+00 -1.3886e+00 2.0334e-01
-2.0734e+00 1.7038e+00 -6.2311e-01
-2.2912e+00 1.6037e+00 -2.1051e-01
-2.1288e+00 1.2679e+00 1.6385e-01
-1.5556e+00 6.9331e-01 5.0005e-01
-6.0819e-01 -8.0100e-02 7.7169e-01
3.4827e-01 -7.7589e-01 8.9415e-01
1.0459e+00 -1.2042e+00 8.5041e-01
1.5069e+00 -1.4244e+00 7.0874e-01
1.7763e+00 -1.4999e+00 5.2260e-01
-1.7927e+00 1.7416e+00 -8.0082e-01
-2.2662e+00 1.5738e+00 -1.6462e-01
-2.3197e+00 1.1818e+00 3.9080e-01
-1.9172e+00 5.6860e-01 8.6150e-01
-1.0889e+00 -2.2386e-01 1.2100e+00
-1.5920e-01 -9.1617e-01 1.3324e+00
5.9887e-01 -1.3218e+00 1.2228e+00
1.1657e+00 -1.5100e+00 9.8156e-01
1.5607e+00 -1.5548e+00 6.8569e-01
-1.2032e+00 1.6860e+00 -6.4039e-01
-1.9517e+00 1.4751e+00 1.0194e-01
-2.2745e+00 1.0558e+00 7.1534e-01
-2.1502e+00 4.4106e-01 1.1787e+00
-1.5804e+00 -3.2548e-01 1.4535e+00
-8.0603e-01 -9.8107e-01 1.4762e+00
-6.9741e-02 -1.3454e+00 1.2644e+00
5.6699e-01 -1.5001e+00 9.3484e-01
1.0788e+00 -1.5185e+00 5.7198e-01
-5.5330e-01 1.5490e+00 -1.7017e-01
-1.5001e+00 1.3205e+00 5.5837e-01
-2.0621e+00 9.0237e-01 1.0977e+00
-2.2129e+00 3.2245e-01 1.4178e+00
-1.9475e+00 -3.7423e-01 1.4815e+00
-1.3851e+00 -9.5357e-01 1.3050e+00
-7.2383e-01 -1.2601e+00 9.7065e-01
-7.5881e-02 -1.3694e+00 5.7307e-01
5.1001e-01 -1.3682e+00 1.7732e-01
-1.0646e-02 1.3982e+00 5.0722e-01
-1.0571e+00 1.1157e+00 1.1196e+00
-1.7841e+00 7.3758e-01 1.4943e+00
-2.1311e+00 2.3005e-01 1.5620e+00
-2.0928e+00 -3.7947e-01 1.3251e+00
-1.7364e+00 -8.5842e-01 9.1910e-01
-1.1864e+00 -1.0992e+00 4.6073e-01
-5.7390e-01 -1.1572e+00 2.4205e-02
3.3101e-02 -1.0717e+00 -3.4819e-01
3.4831e-01 1.8541e+00 6.5832e-01
3.3031e-01 1.9760e+00 2.8715e-01
2.6429e-01 1.7902e+00 -7.1187e-02
1.4916e-01 1.2608e+00 -3.9898e-01
-6.1306e-03 4.3076e-01 -6.8210e-01
-1.4571e-01 -3.7926e-01 -8.3452e-01
-2.3274e-01 -9.5033e-01 -8.2392e-01
-2.7711e-01 -1.3111e+00 -7.0836e-01
-2.9171e-01 -1.5077e+00 -5.3493e-01
-5.1713e-01 1.8811e+00 6.8269e-01
-4.9745e-01 2.0251e+00 2.9186e-01
-3.9609e-01 1.8440e+00 -8.2209e-02
-2.2021e-01 1.3113e+00 -4.3162e-01
9.3141e-03 4.6728e-01 -7.3225e-01
2.2042e-01 -3.6781e-01 -8.8360e-01
3.5564e-01 -9.6260e-01 -8.6396e-01
4.2758e-01 -1.3422e+00 -7.4015e-01
4.6050e-01 -1.5569e+00 -5.6261e-01
-1.3950e+00 1.9694e+00 4.9598e-01
-1.3396e+00 2.0864e+00 1.9765e-01
-1.0845e+00 1.8739e+00 -8.0573e-02
-6.2526e-01 1.3011e+00 -3.3725e-01
5.9395e-03 4.1006e-01 -5.5368e-01
5.8134e-01 -4.6140e-01 -6.5991e-01
9.4542e-01 -1.0736e+00 -6.4022e-01
1.1400e+00 -1.4567e+00 -5.4376e-01
1.2148e+00 -1.6617e+00 -4.1032e-01
-2.0473e+00 2.1149e+00 1.2863e-01
-2.0188e+00 2.1516e+00 4.5502e-02
-1.6916e+00 1.8604e+00 -3.0382e-02
-1.0385e+00 1.2100e+00 -9.8485e-02
-1.0778e-01 2.4840e-01 -1.5434e-01
7.5712e-01 -6.6559e-01 -1.7985e-01
1.3226e+00 -1.2829e+00 -1.7183e-01
1.6390e+00 -1.6468e+00 -1.4400e-01
1.7733e+00 -1.8206e+00 -1.0660e-01
-2.2499e+00 2.2691e+00 -2.5302e-01
-2.3625e+00 2.1867e+00 -6.0988e-02
-2.1009e+00 1.7891e+00 1.0715e-01
-1.4330e+00 1.0467e+00 2.5033e-01
-4.0223e-01 1.3433e-02 3.6063e-01
6.0043e-01 -9.3127e-01 4.0184e-01
1.2983e+00 -1.5340e+00 3.7177e-01
1.7293e+00 -1.8573e+00 3.0228e-01
1.9541e+00 -1.9804e+00 2.1529e-01
-1.9566e+00 2.3448e+00 -4.2080e-01
-2.3093e+00 2.1451e+00 3.3563e-03
-2.2532e+00 1.6530e+00 3.5598e-01
-1.7536e+00 8.4360e-01 6.3237e-01
-8.4990e-01 -2.2302e-01 8.1410e-01
1.1393e-01 -1.1618e+00 8.4768e-01
8.5770e-01 -1.7259e+00 7.4471e-01
1.3807e+00 -1.9950e+00 5.6967e-01
1.7199e+00 -2.0624e+00 3.6924e-01
-1.3455e+00 2.2791e+00 -2.3997e-01
-1.9556e+00 1.9998e+00 2.9518e-01
-2.1616e+00 1.4575e+00 7.0734e-01
-1.9431e+00 6.3967e-01 9.7149e-01
-1.3122e+00 -3.9224e-01 1.0711e+00
-5.2261e-01 -1.2725e+00 9.9377e-01
1.8187e-01 -1.7705e+00 7.7989e-01
7.5825e-01 -1.9789e+00 5.0946e-01
1.2024e+00 -1.9961e+00 2.3649e-01
-6.8073e-01 2.0704e+00 2.4755e-01
-1.4725e+00 1.7646e+00 7.7258e-01
-1.9056e+00 1.2242e+00 1.1125e+00
-1.9611e+00 4.5795e-01 1.2323e+00
-1.6440e+00 -4.7004e-01 1.1139e+00
-1.0805e+00 -1.2375e+00 8.3199e-01
-4.6647e-01 -1.6488e+00 4.8867e-01
1.0935e-01 -1.7933e+00 1.4530e-01
6.1970e-01 -1.7788e+00 -1.6222e-01
-1.5109e-01 1.7930e+00 9.0625e-01
-1.0136e+00 1.4609e+00 1.3384e+00
-1.5940e+00 9.7861e-01 1.5220e+00
-1.8385e+00 3.2181e-01 1.3997e+00
-1.7456e+00 -4.6508e-01 9.8903e-01
-1.3948e+00 -1.0958e+00 4.7499e-01
-9.0387e-01 -1.4166e+00 3.5213e-03
-3.7476e-01 -1.5043e+00 -3.9013e-01
1.3526e-01 -1.4230e+00 -6.9008e-01
3.4819e-01 1.9570e+00 9.9713e-01
3.1826e-01 2.2461e+00 3.8559e-01
2.4396e-01 2.1701e+00 -1.8793e-01
1.2455e-01 1.6711e+00 -6.9944e-01
-3.0952e-02 7.9029e-01 -1.1266e+00
-1.6708e-01 -1.1558e-01 -1.3389e+00
-2.4829e-01 -8.0347e-01 -1.2953e+00
-2.8607e-01 -1.2784e+00 -1.0930e+00
-2.9381e-01 -1.5735e+00 -8.0105e-01
-5.5573e-01 1.9187e+00 1.0098e+00
-5.2042e-01 2.2646e+00 3.7501e-01
-3.9606e-01 2.2144e+00 -2.1780e-01
-1.9750e-01 1.7399e+00 -7.5625e-01
4.9347e-02 8.7287e-01 -1.2009e+00
2.7273e-01 -4.9858e-02 -1.4059e+00
4.1107e-01 -7.6207e-01 -1.3460e+00
4.7989e-01 -1.2661e+00 -1.1295e+00
5.1130e-01 -1.5992e+00 -8.3776e-01
-1.4822e+00 1.9847e+00 8.1734e-01
-1.3708e+00 2.3079e+00 2.6476e-01
-1.0586e+00 2.2318e+00 -2.3490e-01
-5.4800e-01 1.7238e+00 -6.7939e-01
1.2555e-01 8.1588e-01 -1.0349e+00
7.2499e-01 -1.3702e-01 -1.1909e+00
1.0860e+00 -8.6372e-01 -1.1270e+00
1.2648e+00 -1.3708e+00 -9.3440e-01
1.3197e+00 -1.6917e+00 -6.8350e-01
-2.1886e+00 2.1537e+00 4.4781e-01
-2.0540e+00 2.3715e+00 1.0579e-01
-1.6315e+00 2.1967e+00 -1.9391e-01
-8.9542e-01 1.5953e+00 -4.4866e-01
1.0050e-01 6.0678e-01 -6.4315e-01
9.9414e-01 -3.8990e-01 -7.1520e-01
1.5476e+00 -1.1151e+00 -6.6074e-01
1.8282e+00 -1.5907e+00 -5.3551e-01
1.9176e+00 -1.8662e+00 -3.7922e-01
-2.4328e+00 2.3633e+00 6.9984e-02
-2.3934e+00 2.4136e+00 3.1589e-03
-2.0004e+00 2.0924e+00 -5.3132e-02
-1.2227e+00 1.3671e+00 -9.7857e-02
-1.1095e-01 2.8495e-01 -1.2801e-01
9.2006e-01 -7.4700e-01 -1.3505e-01
1.5912e+00 -1.4454e+00 -1.1976e-01
1.9662e+00 -1.8609e+00 -9.2520e-02
2.1221e+00 -2.0613e+00 -6.0862e-02
-2.1662e+00 2.4957e+00 -9.2213e-02
-2.3271e+00 2.3708e+00 7.8942e-02
-2.1103e+00 1.9108e+00 2.0940e-01
-1.4824e+00 1.0852e+00 2.9818e-01
-4.8864e-01 -5.0754e-02 3.3559e-01
4.9661e-01 -1.0766e+00 3.1705e-01
1.1982e+00 -1.7197e+00 2.5482e-01
1.6442e+00 -2.0546e+00 1.7250e-01
1.8914e+00 -2.1691e+00 8.7933e-02
-1.5650e+00 2.4480e+00 8.5392e-02
-1.9565e+00 2.2012e+00 3.8150e-01
-1.9813e+00 1.6596e+00 5.7962e-01
-1.6216e+00 8.0588e-01 6.6121e-01
-8.9813e-01 -3.0003e-01 6.1773e-01
-9.3488e-02 -1.2583e+00 4.8512e-01
5.5563e-01 -1.8160e+00 3.0724e-01
1.0399e+00 -2.0674e+00 1.2415e-01
1.3760e+00 -2.1093e+00 -3.9257e-02
-9.0507e-01 2.2111e+00 5.4731e-01
-1.4600e+00 1.9146e+00 8.5862e-01
-1.6978e+00 1.3658e+00 1.0028e+00
-1.6043e+00 5.6486e-01 9.5344e-01
-1.1906e+00 -4.2487e-01 7.0279e-01
-6.1704e-01 -1.2518e+00 3.6930e-01
-6.7622e-02 -1.7054e+00 5.7117e-02
4.0494e-01 -1.8783e+00 -2.0884e-01
7.9419e-01 -1.8721e+00 -4.1626e-01
-3.7720e-01 1.8600e+00 1.1542e+00
-9.9110e-01 1.5478e+00 1.4063e+00
-1.3675e+00 1.0607e+00 1.4230e+00
-1.4589e+00 3.8625e-01 1.1603e+00
-1.2727e+00 -4.3417e-01 6.4087e-01
-9.1324e-01 -1.1022e+00 8.2467e-02
-4.8953e-01 -1.4511e+00 -3.6393e-01
-7.0437e-02 -1.5591e+00 -6.9042e-01
3.1316e-01 -1.4984e+00 -9.0852e-01
3.3618e-01 1.6927e+00 1.1588e+00
2.9616e-01 2.2162e+00 3.4272e-01
2.1690e-01 2.3492e+00 -3.8985e-01
9.7620e-02 2.0144e+00 -1.0177e+00
-5.2735e-02 1.2481e+00 -1.5093e+00
-1.8093e-01 3.7485e-01 -1.7176e+00
-2.5404e-01 -3.6239e-01 -1.6127e+00
-2.8442e-01 -9.3458e-01 -1.3174e+00
-2.8561e-01 -1.3405e+00 -9.1671e-01
-5.7785e-01 1.5597e+00 1.1082e+00
-5.2719e-01 2.1736e+00 2.8768e-01
-3.8305e-01 2.3604e+00 -4.5163e-01
-1.6737e-01 2.0876e+00 -1.0876e+00
8.9375e-02 1.3768e+00 -1.5750e+00
3.1778e-01 5.0918e-01 -1.7578e+00
4.5400e-01 -2.4787e-01 -1.6271e+00
5.1656e-01 -8.5168e-01 -1.3169e+00
5.4504e-01 -1.3162e+00 -9.2996e-01
-1.5158e+00 1.5739e+00 8.7585e-01
-1.3507e+00 2.1726e+00 1.3994e-01
-9.9321e-01 2.3450e+00 -4.9611e-01
-4.5112e-01 2.0549e+00 -1.0246e+00
2.3885e-01 1.3246e+00 -1.4041e+00
8.3664e-01 4.4645e-01 -1.5239e+00
1.1802e+00 -3.1486e-01 -1.3824e+00
1.3338e+00 -9.1870e-01 -1.0949e+00
1.3645e+00 -1.3675e+00 -7.4892e-01
-2.2375e+00 1.7384e+00 4.9618e-01
-2.0059e+00 2.2146e+00 -3.4152e-02
-1.5074e+00 2.2756e+00 -4.7172e-01
-7.2045e-01 1.8867e+00 -8.0849e-01
2.9625e-01 1.0800e+00 -1.0219e+00
1.1785e+00 1.6726e-01 -1.0516e+00
1.6955e+00 -5.7942e-01 -9.1421e-01
1.9286e+00 -1.1384e+00 -6.8992e-01
1.9708e+00 -1.5306e+00 -4.3657e-01
-2.5133e+00 1.9878e+00 1.3401e-01
-2.3254e+00 2.2546e+00 -1.3194e-01
-1.8196e+00 2.1367e+00 -3.3470e-01
-9.6725e-01 1.6006e+00 -4.6981e-01
1.7470e-01 6.8548e-01 -5.2449e-01
1.1859e+00 -2.6029e-01 -4.9242e-01
1.8004e+00 -9.6722e-01 -3.9290e-01
2.1012e+00 -1.4459e+00 -2.6297e-01
2.1815e+00 -1.7395e+00 -1.2989e-01
-2.2868e+00 2.1770e+00 -8.9263e-03
-2.2518e+00 2.2188e+00 -4.2849e-02
-1.8852e+00 1.9212e+00 -6.5515e-02
-1.1558e+00 1.2520e+00 -7.4992e-02
-1.1691e-01 2.6085e-01 -7.0570e-02
8.4681e-01 -6.8308e-01 -5.5972e-02
1.4757e+00 -1.3219e+00 -3.6180e-02
1.8261e+00 -1.6998e+00 -1.5492e-02
1.9728e+00 -1.8822e+00 3.3737e-03
-1.7256e+00 2.1794e+00 1.6775e-01
-1.8835e+00 2.0521e+00 2.6789e-01
-1.7290e+00 1.6361e+00 3.1731e-01
-1.2425e+00 9.1047e-01 3.0258e-01
-4.5748e-01 -7.2052e-02 2.2625e-01
3.2939e-01 -9.5175e-01 1.2350e-01
8.9777e-01 -1.4955e+00 2.4770e-02
1.2692e+00 -1.7709e+00 -5.8936e-02
1.4842e+00 -1.8572e+00 -1.2310e-01
-1.0884e+00 1.9656e+00 6.0303e-01
-1.3928e+00 1.7562e+00 7.4105e-01
-1.4344e+00 1.3101e+00 7.5481e-01
-1.1987e+00 6.2045e-01 6.2361e-01
-7.0826e-01 -2.5761e-01 3.5158e-01
-1.4649e-01 -1.0087e+00 5.4002e-02
3.1874e-01 -1.4409e+00 -1.8300e-01
6.7194e-01 -1.6267e+00 -3.5656e-01
9.2928e-01 -1.6486e+00 -4.7230e-01
-5.6469e-01 1.6027e+00 1.1557e+00
-9.2716e-01 1.3736e+00 1.2717e+00
-1.0988e+00 9.7623e-01 1.1867e+00
-1.0467e+00 4.0479e-01 8.7270e-01
-7.8467e-01 -3.0354e-01 3.5565e-01
-4.3098e-01 -8.9430e-01 -1.6082e-01
-8.8483e-02 -1.2157e+00 -5.3624e-01
2.1317e-01 -1.3310e+00 -7.8363e-01
4.6465e-01 -1.3054e+00 -9.2756e-01
3.0929e-01 1.1753e+00 1.0398e+00
2.6369e-01 1.9453e+00 1.0778e-01
1.8491e-01 2.3360e+00 -6.7894e-01
7.2286e-02 2.2524e+00 -1.3003e+00
-6.6223e-02 1.7104e+00 -1.7321e+00
-1.8166e-01 9.7264e-01 -1.8480e+00
-2.4481e-01 2.4480e-01 -1.6508e+00
-2.6814e-01 -3.9110e-01 -1.2731e+00
-2.6418e-01 -8.9805e-01 -7.9317e-01
-5.7614e-01 9.5461e-01 8.7073e-01
-5.1027e-01 1.8393e+00 -1.8374e-02
-3.5572e-01 2.2977e+00 -7.7767e-01
-1.3560e-01 2.3058e+00 -1.3676e+00
1.2001e-01 1.8586e+00 -1.7468e+00
3.4256e-01 1.1497e+00 -1.8103e+00
4.6996e-01 4.1748e-01 -1.5767e+00
5.2388e-01 -2.5187e-01 -1.1893e+00
5.4277e-01 -8.3084e-01 -7.5373e-01
-1.4627e+00 9.2475e-01 5.7202e-01
-1.2664e+00 1.7895e+00 -2.1599e-01
-8.9107e-01 2.2348e+00 -8.5217e-01
-3.5209e-01 2.2386e+00 -1.3102e+00
3.1240e-01 1.7939e+00 -1.5526e+00
8.7737e-01 1.0994e+00 -1.5307e+00
1.1862e+00 3.8103e-01 -1.2754e+00
1.3132e+00 -2.7812e-01 -9.0833e-01
1.3232e+00 -8.3470e-01 -5.1549e-01
-2.1440e+00 1.0800e+00 1.8008e-01
-1.8538e+00 1.8013e+00 -4.0675e-01
-1.3245e+00 2.1238e+00 -8.4700e-01
-5.4599e-01 2.0270e+00 -1.1111e+00
4.2325e-01 1.5149e+00 -1.1824e+00
1.2414e+00 8.0071e-01 -1.0629e+00
1.6950e+00 1.1286e-01 -8.0529e-01
1.8747e+00 -4.8511e-01 -4.9543e-01
1.8753e+00 -9.7234e-01 -1.9014e-01
-2.4073e+00 1.3468e+00 -1.4975e-01
-2.1266e+00 1.8319e+00 -4.9390e-01
-1.5683e+00 1.9541e+00 -7.1710e-01
-7.1649e-01 1.6950e+00 -7.9621e-01
3.6929e-01 1.0687e+00 -7.2308e-01
1.2977e+00 3.2480e-01 -5.4804e-01
1.8253e+00 -3.1215e-01 -3.2743e-01
2.0497e+00 -8.1573e-01 -1.0667e-01
2.0687e+00 -1.1888e+00 8.7144e-02
-2.2121e+00 1.5782e+00 -2.4723e-01
-2.0399e+00 1.8039e+00 -3.8320e-01
-1.5884e+00 1.7186e+00 -4.4679e-01
-8.3755e-01 1.3016e+00 -4.2073e-01
1.5829e-01 5.8192e-01 -3.0830e-01
1.0358e+00 -1.6578e-01 -1.6101e-01
1.5645e+00 -7.2871e-01 -2.2024e-02
1.8183e+00 -1.1162e+00 9.4562e-02
1.8807e+00 -1.3593e+00 1.8343e-01
-1.7029e+00 1.6323e+00 -4.7200e-02
-1.6850e+00 1.6553e+00 -5.7087e-02
-1.4136e+00 1.4227e+00 -5.7430e-02
-8.7594e-01 9.2114e-01 -4.6544e-02
-1.1030e-01 1.8644e-01 -2.5222e-02
6.0088e-01 -5.0906e-01 -2.3999e-03
1.0654e+00 -9.7562e-01 1.5650e-02
1.3269e+00 -1.2501e+00 2.8662e-02
1.4394e+00 -1.3812e+00 3.7235e-02
-1.1095e+00 1.4677e+00 3.8177e-01
-1.2169e+00 1.3781e+00 4.1953e-01
-1.1207e+00 1.0917e+00 3.9086e-01
-8.1183e-01 6.0177e-01 2.8899e-01
-3.1563e-01 -5.2434e-02 1.1756e-01
1.8427e-01 -6.3441e-01 -5.3741e-02
5.4845e-01 -9.9185e-01 -1.7719e-01
7.8763e-01 -1.1704e+00 -2.5818e-01
9.3071e-01 -1.2240e+00 -3.0443e-01
-6.0546e-01 1.1374e+00 9.0633e-01
-7.6872e-01 1.0139e+00 9.4355e-01
-7.9299e-01 7.5605e-01 8.3569e-01
-6.6004e-01 3.6274e-01 5.6947e-01
-3.8548e-01 -1.4052e-01 1.6529e-01
-8.1493e-02 -5.7316e-01 -2.2213e-01
1.6854e-01 -8.2161e-01 -4.8896e-01
3.5909e-01 -9.2657e-01 -6.5168e-01
4.9824e-01 -9.3242e-01 -7.3544e-01
2.6864e-01 5.6466e-01 6.2774e-01
2.2297e-01 1.5537e+00 -3.0826e-01
1.5093e-01 2.1826e+00 -1.0228e+00
5.0688e-02 2.3557e+00 -1.5175e+00
-6.9921e-02 2.0835e+00 -1.7621e+00
-1.6847e-01 1.5213e+00 -1.6986e+00
-2.2090e-01 8.4197e-01 -1.3909e+00
-2.3870e-01 1.7019e-01 -9.6124e-01
-2.3197e-01 -4.0766e-01 -4.5132e-01
-5.3742e-01 3.1931e-01 3.3806e-01
-4.7430e-01 1.4038e+00 -5.0700e-01
-3.1775e-01 2.0920e+00 -1.1575e+00
-1.0492e-01 2.3604e+00 -1.5689e+00
1.3326e-01 2.1986e+00 -1.7066e+00
3.3908e-01 1.6872e+00 -1.5580e+00
4.5332e-01 1.0239e+00 -1.2041e+00