<?xml version="1.0"?>
<VTKFile type="StructuredGrid" version="0.1">
  <StructuredGrid WholeExtent="0 8 0 8 0 8">
    <Piece Extent="0 8 0 8 0 8">
      <PointData Scalars="temperature" Vectors="velocity">
        <DataArray type="Float32" Name="temperature" format="ascii">
1.000000e+00
8.707944e-01
7.495230e-01
6.316491e-01
5.145625e-01
3.810217e-01
2.491322e-01
1.216173e-01
0.000000e+00
1.000000e+00
8.719637e-01
7.505739e-01
6.325954e-01
5.154925e-01
3.821984e-01
2.503235e-01
1.227819e-01
0.000000e+00
1.000000e+00
8.716452e-01
7.500016e-01
6.314768e-01
5.135985e-01
3.811372e-01
2.499216e-01
1.226151e-01
0.000000e+00
1.000000e+00
8.710583e-01
7.488798e-01
6.293539e-01
5.101826e-01
3.791199e-01
2.490832e-01
1.222861e-01
0.000000e+00
1.000000e+00
8.702929e-01
7.474136e-01
6.265770e-01
5.058174e-01
3.765304e-01
2.479851e-01
1.218421e-01
0.000000e+00
1.000000e+00
8.695066e-01
7.458974e-01
6.236965e-01
5.013869e-01
3.739145e-01
2.468647e-01
1.213818e-01
0.000000e+00
1.000000e+00
8.688569e-01
7.446366e-01
6.212911e-01
4.977581e-01
3.717853e-01
2.459475e-01
1.210023e-01
0.000000e+00
1.000000e+00
8.684395e-01
7.438238e-01
6.197375e-01
4.954548e-01
3.704379e-01
2.453662e-01
1.207616e-01
0.000000e+00
1.000000e+00
8.682630e-01
7.434889e-01
6.191058e-01
4.945475e-01
3.698981e-01
2.451313e-01
1.206639e-01
0.000000e+00
1.000000e+00
8.719637e-01
7.505739e-01
6.325954e-01
5.154925e-01
3.821984e-01
2.503235e-01
1.227819e-01
0.000000e+00
1.000000e+00
8.720136e-01
7.506742e-01
6.327678e-01
5.158595e-01
3.823846e-01
2.504332e-01
1.228355e-01
0.000000e+00
1.000000e+00
8.718305e-01
7.502731e-01
6.319323e-01
5.144854e-01
3.815803e-01
2.501322e-01
1.227268e-01
0.000000e+00
1.000000e+00
8.712451e-01
7.491794e-01
6.298819e-01
5.112127e-01
3.796160e-01
2.493040e-01
1.223923e-01
0.000000e+00
1.000000e+00
8.704336e-01
7.476467e-01
6.270011e-01
5.066507e-01
3.769168e-01
2.481528e-01
1.219194e-01
0.000000e+00
1.000000e+00
8.695733e-01
7.460088e-01
6.239058e-01
5.018246e-01
3.741006e-01
2.469440e-01
1.214187e-01
0.000000e+00
1.000000e+00
8.688536e-01
7.446265e-01
6.212773e-01
4.978005e-01
3.717757e-01
2.459424e-01
1.210017e-01
0.000000e+00
1.000000e+00
8.683910e-01
7.437320e-01
6.195694e-01
4.952336e-01
3.702982e-01
2.453051e-01
1.207370e-01
0.000000e+00
1.000000e+00
8.681983e-01
7.433616e-01
6.188665e-01
4.942195e-01
3.697004e-01
2.450481e-01
1.206328e-01
0.000000e+00
1.000000e+00
8.716452e-01
7.500016e-01
6.314768e-01
5.135985e-01
3.811372e-01
2.499216e-01
1.226151e-01
0.000000e+00
1.000000e+00
8.718305e-01
7.502731e-01
6.319323e-01
5.144854e-01
3.815803e-01
2.501322e-01
1.227268e-01
0.000000e+00
1.000000e+00
8.716357e-01
7.499008e-01
6.312271e-01
5.133727e-01
3.808964e-01
2.498351e-01
1.226016e-01
0.000000e+00
1.000000e+00
8.710695e-01
7.488355e-01
6.292259e-01
5.102010e-01
3.789875e-01
2.490227e-01
1.222719e-01
0.000000e+00
1.000000e+00
8.702220e-01
7.472384e-01
6.262326e-01
5.054887e-01
3.762117e-01
2.478390e-01
1.217854e-01
0.000000e+00
1.000000e+00
8.693018e-01
7.454901e-01
6.229357e-01
5.003780e-01
3.732494e-01
2.465706e-01
1.212603e-01
0.000000e+00
1.000000e+00
8.685326e-01
7.440128e-01
6.201272e-01
4.961052e-01
3.707978e-01
2.455169e-01
1.208223e-01
0.000000e+00
1.000000e+00
8.680514e-01
7.430783e-01
6.183389e-01
4.934298e-01
3.692701e-01
2.448586e-01
1.205490e-01
0.000000e+00
1.000000e+00
8.678563e-01
7.427042e-01
6.176333e-01
4.924533e-01
3.686762e-01
2.446015e-01
1.204435e-01
0.000000e+00
1.000000e+00
8.710583e-01
7.488798e-01
6.293539e-01
5.101826e-01
3.791199e-01
2.490832e-01
1.222861e-01
0.000000e+00
1.000000e+00
8.712451e-01
7.491794e-01
6.298819e-01
5.112127e-01
3.796160e-01
2.493040e-01
1.223923e-01
0.000000e+00
1.000000e+00
8.710695e-01
7.488355e-01
6.292259e-01
5.102010e-01
3.789875e-01
2.490227e-01
1.222719e-01
0.000000e+00
1.000000e+00
8.704918e-01
7.477453e-01
6.271801e-01
5.070102e-01
3.770796e-01
2.482026e-01
1.219344e-01
0.000000e+00
1.000000e+00
8.696118e-01
7.460828e-01
6.240651e-01
5.021707e-01
3.742642e-01
2.469986e-01
1.214357e-01
0.000000e+00
1.000000e+00
8.686565e-01
7.442618e-01
6.206296e-01
4.969103e-01
3.712583e-01
2.457100e-01
1.208988e-01
0.000000e+00
1.000000e+00
8.678741e-01
7.427497e-01
6.177468e-01
4.925781e-01
3.688046e-01
2.446529e-01
1.204570e-01
0.000000e+00
1.000000e+00
8.674123e-01
7.418411e-01
6.159977e-01
4.899864e-01
3.673435e-01
2.440201e-01
1.201924e-01
0.000000e+00
1.000000e+00
8.672390e-01
7.415112e-01
6.153847e-01
4.892213e-01
3.668355e-01
2.437943e-01
1.200963e-01
0.000000e+00
1.000000e+00
8.702929e-01
7.474136e-01
6.265770e-01
5.058174e-01
3.765304e-01
2.479851e-01
1.218421e-01
0.000000e+00
1.000000e+00
8.704336e-01
7.476467e-01
6.270011e-01
5.066507e-01
3.769168e-01
2.481528e-01
1.219194e-01
0.000000e+00
1.000000e+00
8.702220e-01
7.472384e-01
6.262326e-01
5.054887e-01
3.762117e-01
2.478390e-01
1.217854e-01
0.000000e+00
1.000000e+00
8.696118e-01
7.460828e-01
6.240651e-01
5.021707e-01
3.742642e-01
2.469986e-01
1.214357e-01
0.000000e+00
1.000000e+00
8.687068e-01
7.443636e-01
6.208373e-01
4.972495e-01
3.714513e-01
2.457903e-01
1.209302e-01
0.000000e+00
1.000000e+00
8.677436e-01
7.425146e-01
6.173390e-01
4.919929e-01
3.684979e-01
2.445178e-01
1.203950e-01
0.000000e+00
1.000000e+00
8.669795e-01
7.410229e-01
6.144803e-01
4.877777e-01
3.661438e-01
2.434967e-01
1.199644e-01
0.000000e+00
1.000000e+00
8.665620e-01
7.401860e-01
6.128562e-01
4.854093e-01
3.648255e-01
2.429193e-01
1.197204e-01
0.000000e+00
1.000000e+00
8.664217e-01
7.399258e-01
6.123906e-01
4.849470e-01
3.644443e-01
2.427402e-01
1.196371e-01
0.000000e+00
1.000000e+00
8.695066e-01
7.458974e-01
6.236965e-01
5.013869e-01
3.739145e-01
2.468647e-01
1.213818e-01
0.000000e+00
1.000000e+00
8.695733e-01
7.460088e-01
6.239058e-01
5.018246e-01
3.741006e-01
2.469440e-01
1.214187e-01
0.000000e+00
1.000000e+00
8.693018e-01
7.454901e-01
6.229357e-01
5.003780e-01
3.732494e-01
2.465706e-01
1.212603e-01
0.000000e+00
1.000000e+00
8.686565e-01
7.442618e-01
6.206296e-01
4.969103e-01
3.712583e-01
2.457100e-01
1.208988e-01
0.000000e+00
1.000000e+00
8.677436e-01
7.425146e-01
6.173390e-01
4.919929e-01
3.684979e-01
2.445178e-01
1.203950e-01
0.000000e+00
1.000000e+00
8.667942e-01
7.406771e-01
6.138535e-01
4.868630e-01
3.656631e-01
2.432882e-01
1.198723e-01
0.000000e+00
1.000000e+00
8.660588e-01
7.392281e-01
6.110674e-01
4.828401e-01
3.634487e-01
2.423201e-01
1.194597e-01
0.000000e+00
1.000000e+00
8.656788e-01
7.384546e-01
6.095608e-01
4.806849e-01
3.622653e-01
2.417953e-01
1.192348e-01
0.000000e+00
1.000000e+00
8.655552e-01
7.382414e-01
6.092042e-01
4.804419e-01
3.619764e-01
2.416465e-01
1.191564e-01
0.000000e+00
1.000000e+00
8.688569e-01
7.446366e-01
6.212911e-01
4.977581e-01
3.717853e-01
2.459475e-01
1.210023e-01
0.000000e+00
1.000000e+00
8.688536e-01
7.446265e-01
6.212773e-01
4.978005e-01
3.717757e-01
2.459424e-01
1.210017e-01
0.000000e+00
1.000000e+00
8.685326e-01
7.440128e-01
6.201272e-01
4.961052e-01
3.707978e-01
2.455169e-01
1.208223e-01
0.000000e+00
1.000000e+00
8.678741e-01
7.427497e-01
6.177468e-01
4.925781e-01
3.688046e-01
2.446529e-01
1.204570e-01
0.000000e+00
1.000000e+00
8.669795e-01
7.410229e-01
6.144803e-01
4.877777e-01
3.661438e-01
2.434967e-01
1.199644e-01
0.000000e+00
1.000000e+00
8.660588e-01
7.392281e-01
6.110674e-01
4.828401e-01
3.634487e-01
2.423201e-01
1.194597e-01
0.000000e+00
1.000000e+00
8.653374e-01
7.378045e-01
6.083365e-01
4.789660e-01
3.613466e-01
2.413975e-01
1.190642e-01
0.000000e+00
1.000000e+00
8.649590e-01
7.370332e-01
6.068453e-01
4.768703e-01
3.602188e-01
2.408989e-01
1.188494e-01
0.000000e+00
1.000000e+00
8.648101e-01
7.367947e-01
6.064643e-01
4.766010e-01
3.599217e-01
2.407362e-01
1.187513e-01
0.000000e+00
1.000000e+00
8.684395e-01
7.438238e-01
6.197375e-01
4.954548e-01
3.704379e-01
2.453662e-01
1.207616e-01
0.000000e+00
1.000000e+00
8.683910e-01
7.437320e-01
6.195694e-01
4.952336e-01
3.702982e-01
2.453051e-01
1.207370e-01
0.000000e+00
1.000000e+00
8.680514e-01
7.430783e-01
6.183389e-01
4.934298e-01
3.692701e-01
2.448586e-01
1.205490e-01
0.000000e+00
1.000000e+00
8.674123e-01
7.418411e-01
6.159977e-01
4.899864e-01
3.673435e-01
2.440201e-01
1.201924e-01
0.000000e+00
1.000000e+00
8.665620e-01
7.401860e-01
6.128562e-01
4.854093e-01
3.648255e-01
2.429193e-01
1.197204e-01
0.000000e+00
1.000000e+00
8.656788e-01
7.384546e-01
6.095608e-01
4.806849e-01
3.622653e-01
2.417953e-01
1.192348e-01
0.000000e+00
1.000000e+00
8.649590e-01
7.370332e-01
6.068453e-01
4.768703e-01
3.602188e-01
2.408989e-01
1.188494e-01
0.000000e+00
1.000000e+00
8.644405e-01
7.360932e-01
6.051546e-01
4.745791e-01
3.589919e-01
2.403513e-01
1.186118e-01
0.000000e+00
1.000000e+00
8.642805e-01
7.357870e-01
6.046303e-01
4.740478e-01
3.586087e-01
2.401801e-01
1.185426e-01
0.000000e+00
1.000000e+00
8.682630e-01
7.434889e-01
6.191058e-01
4.945475e-01
3.698981e-01
2.451313e-01
1.206639e-01
0.000000e+00
1.000000e+00
8.681983e-01
7.433616e-01
6.188665e-01
4.942195e-01
3.697004e-01
2.450481e-01
1.206328e-01
0.000000e+00
1.000000e+00
8.678563e-01
7.427042e-01
6.176333e-01
4.924533e-01
3.686762e-01
2.446015e-01
1.204435e-01
0.000000e+00
1.000000e+00
8.672390e-01
7.415112e-01
6.153847e-01
4.892213e-01
3.668355e-01
2.437943e-01
1.200963e-01
0.000000e+00
1.000000e+00
8.664217e-01
7.399258e-01
6.123906e-01
4.849470e-01
3.644443e-01
2.427402e-01
1.196371e-01
0.000000e+00
1.000000e+00
8.655552e-01
7.382414e-01
6.092042e-01
4.804419e-01
3.619764e-01
2.416465e-01
1.191564e-01
0.000000e+00
1.000000e+00
8.648101e-01
7.367947e-01
6.064643e-01
4.766010e-01
3.599217e-01
2.407362e-01
1.187513e-01
0.000000e+00
1.000000e+00
8.642805e-01
7.357870e-01
6.046303e-01
4.740478e-01
3.586087e-01
2.401801e-01
1.185426e-01
0.000000e+00
1.000000e+00
8.627855e-01
7.342153e-01
6.027001e-01
4.719302e-01
3.570952e-01
2.388845e-01
1.173875e-01
0.000000e+00
        </DataArray>
        <DataArray type="Float32" Name="velocity" NumberOfComponents="3" format="ascii">
-4.9796e-01 1.3297e-07 -6.3561e-01
-2.8454e+00 9.6335e-08 1.2256e+00
-4.2291e+00 1.5216e-07 2.5139e+00
-4.7112e+00 7.4524e-08 3.2277e+00
-4.3615e+00 1.2925e-07 3.3586e+00
-3.4123e+00 8.8119e-08 2.9995e+00
-2.1375e+00 3.9171e-08 2.2964e+00
-7.7498e-01 5.1429e-08 1.4164e+00
4.3540e-01 -1.3079e-08 5.5576e-01
-7.8097e-02 -1.6291e+00 1.5315e-01
-2.4761e+00 -1.2185e+00 1.7564e+00
-4.0303e+00 -7.4267e-01 2.8444e+00
-4.6901e+00 -1.6192e-01 3.2957e+00
-4.5313e+00 4.1810e-01 3.1782e+00
-3.7328e+00 8.8403e-01 2.6210e+00
-2.5423e+00 1.1663e+00 1.7970e+00
-1.2050e+00 1.2608e+00 8.7974e-01
1.4341e-01 1.1123e+00 2.4129e-02
-2.6781e-02 -3.0240e+00 1.0909e+00
-2.2652e+00 -2.3318e+00 2.3644e+00
-3.7528e+00 -1.4090e+00 3.0817e+00
-4.3979e+00 -3.2076e-01 3.1630e+00
-4.2776e+00 7.7779e-01 2.7106e+00
-3.5578e+00 1.6664e+00 1.9186e+00
-2.4588e+00 2.2100e+00 9.8457e-01
-1.1996e+00 2.3903e+00 7.1105e-02
7.5532e-02 2.2237e+00 -7.1129e-01
-3.3010e-01 -3.8927e+00 1.9635e+00
-2.1784e+00 -3.0724e+00 2.8381e+00
-3.3607e+00 -1.8842e+00 3.1223e+00
-3.8067e+00 -4.6864e-01 2.8072e+00
-3.5930e+00 9.6249e-01 2.0363e+00
-2.8870e+00 2.1332e+00 1.0457e+00
-1.8910e+00 2.8591e+00 5.6022e-02
-7.9153e-01 3.1287e+00 -7.9995e-01
2.8512e-01 2.9800e+00 -1.4415e+00
-8.2264e-01 -4.0501e+00 2.5104e+00
-2.1299e+00 -3.2673e+00 2.9879e+00
-2.8720e+00 -2.0570e+00 2.9015e+00
-3.0072e+00 -5.9199e-01 2.2908e+00
-2.6320e+00 9.0760e-01 1.3231e+00
-1.9170e+00 2.1471e+00 2.5498e-01
-1.0432e+00 2.9345e+00 -6.9987e-01
-1.5723e-01 3.2513e+00 -1.4337e+00
6.5822e-01 3.1505e+00 -1.9108e+00
-1.2326e+00 -3.4956e+00 2.5178e+00
-1.9913e+00 -2.9067e+00 2.7053e+00
-2.2908e+00 -1.9048e+00 2.4062e+00
-2.1358e+00 -6.5520e-01 1.6950e+00
-1.6293e+00 6.4541e-01 7.3253e-01
-9.3811e-01 1.7409e+00 -2.4790e-01
-2.1696e-01 2.4581e+00 -1.0603e+00
4.3739e-01 2.7779e+00 -1.6331e+00
9.7767e-01 2.7490e+00 -1.9559e+00
-1.3230e+00 -2.4838e+00 1.9762e+00
-1.6513e+00 -2.1470e+00 2.0079e+00
-1.6421e+00 -1.4830e+00 1.6883e+00
-1.3283e+00 -6.1565e-01 1.0904e+00
-8.0740e-01 3.1233e-01 3.3849e-01
-2.2042e-01 1.1137e+00 -3.9354e-01
3.1605e-01 1.6606e+00 -9.7419e-01
7.4392e-01 1.9338e+00 -1.3590e+00
1.0492e+00 1.9649e+00 -1.5527e+00
-1.0099e+00 -1.3520e+00 1.0521e+00
-1.0890e+00 -1.2270e+00 1.0401e+00
-9.6399e-01 -9.0205e-01 8.4790e-01
-6.7208e-01 -4.4572e-01 5.1892e-01
-2.8195e-01 6.0713e-02 1.1960e-01
1.1163e-01 5.1325e-01 -2.6075e-01
4.3664e-01 8.3792e-01 -5.5550e-01
6.6656e-01 1.0193e+00 -7.4469e-01
8.0168e-01 1.0730e+00 -8.3394e-01
-3.7095e-01 -3.6999e-01 -1.0537e-02
-3.7224e-01 -3.5204e-01 -9.5641e-03
-3.0637e-01 -2.7311e-01 -6.6906e-03
-1.8914e-01 -1.5379e-01 -2.9343e-03
-4.5893e-02 -1.5951e-02 8.3258e-04
9.0580e-02 1.1103e-01 3.8400e-03
1.9586e-01 2.0670e-01 5.8461e-03
2.6305e-01 2.6549e-01 6.9753e-03
2.9319e-01 2.9247e-01 7.5267e-03
-7.8097e-02 1.6291e+00 1.5315e-01
-2.4761e+00 1.2185e+00 1.7564e+00
-4.0303e+00 7.4267e-01 2.8444e+00
-4.6901e+00 1.6192e-01 3.2957e+00
-4.5313e+00 -4.1810e-01 3.1782e+00
-3.7328e+00 -8.8403e-01 2.6210e+00
-2.5423e+00 -1.1663e+00 1.7970e+00
-1.2050e+00 -1.2608e+00 8.7974e-01
1.4341e-01 -1.1123e+00 2.4129e-02
5.5019e-01 1.9390e-07 8.9917e-01
-1.9373e+00 1.7759e-07 2.5035e+00
-3.7289e+00 4.9130e-08 3.3344e+00
-4.6724e+00 8.5090e-09 3.4834e+00
-4.7876e+00 1.6305e-07 3.0479e+00
-4.1995e+00 1.5740e-07 2.2082e+00
-3.1333e+00 1.6934e-07 1.1827e+00
-1.8304e+00 1.6076e-07 1.4427e-01
-5.3164e-01 1.5681e-07 -8.6885e-01
8.7258e-01 -1.4991e+00 2.0032e+00
-1.5676e+00 -1.1777e+00 3.2982e+00
-3.3720e+00 -6.9431e-01 3.7502e+00
-4.4008e+00 -1.3075e-01 3.4790e+00
-4.6455e+00 4.3368e-01 2.6398e+00
-4.1997e+00 8.8763e-01 1.4862e+00
-3.2543e+00 1.1563e+00 2.7978e-01
-2.0397e+00 1.2484e+00 -8.1901e-01
-7.7650e-01 1.2060e+00 -1.7543e+00
7.1748e-01 -2.6204e+00 3.0849e+00
-1.3728e+00 -2.0387e+00 3.9646e+00
-2.9144e+00 -1.2046e+00 3.9595e+00
-3.7864e+00 -2.2932e-01 3.2347e+00
-3.9845e+00 7.4741e-01 2.0014e+00
-3.5903e+00 1.5312e+00 5.7797e-01
-2.7726e+00 2.0021e+00 -7.4406e-01
-1.7293e+00 2.1600e+00 -1.8126e+00
-6.4368e-01 2.0591e+00 -2.6095e+00
2.2415e-01 -3.0069e+00 3.8068e+00
-1.2942e+00 -2.3594e+00 4.2603e+00
-2.3612e+00 -1.4176e+00 3.8604e+00
-2.9025e+00 -3.0461e-01 2.7937e+00
-2.9306e+00 8.1404e-01 1.3063e+00
-2.5338e+00 1.7178e+00 -2.4662e-01
-1.8561e+00 2.2666e+00 -1.5676e+00
-1.0439e+00 2.4615e+00 -2.5334e+00
-2.3026e-01 2.3553e+00 -3.1436e+00
-2.8748e-01 -2.6020e+00 3.9008e+00
-1.1749e+00 -2.0791e+00 4.0378e+00
-1.7290e+00 -1.2878e+00 3.4247e+00
-1.9161e+00 -3.3613e-01 2.2422e+00
-1.7714e+00 6.3125e-01 7.3840e-01
-1.3849e+00 1.4215e+00 -7.4277e-01
-8.6861e-01 1.9142e+00 -1.9329e+00
-3.1786e-01 2.1048e+00 -2.7370e+00
1.9595e-01 2.0352e+00 -3.1697e+00
-4.9216e-01 -1.6405e+00 3.3410e+00
-8.7071e-01 -1.3485e+00 3.3211e+00
-1.0428e+00 -8.7184e-01 2.7085e+00
-1.0076e+00 -2.8202e-01 1.6579e+00
-8.0333e-01 3.2773e-01 3.8043e-01
-5.0222e-01 8.3610e-01 -8.3860e-01
-1.7747e-01 1.1645e+00 -1.7862e+00
1.2537e-01 1.3074e+00 -2.3964e+00
3.7785e-01 1.2893e+00 -2.6868e+00
-2.5426e-01 -5.0810e-01 2.3367e+00
-3.3412e-01 -4.2836e-01 2.2853e+00
-3.4500e-01 -2.8799e-01 1.8315e+00
-2.8994e-01 -1.0990e-01 1.0852e+00
-1.8756e-01 7.7508e-02 1.9626e-01
-6.7560e-02 2.3766e-01 -6.4012e-01
4.4362e-02 3.4561e-01 -1.2808e+00
1.3549e-01 3.9878e-01 -1.6844e+00
2.0214e-01 4.0453e-01 -1.8663e+00
3.5186e-01 4.8152e-01 1.1814e+00
3.6749e-01 4.4903e-01 1.1544e+00
3.1549e-01 3.3908e-01 9.2299e-01
2.1176e-01 1.7639e-01 5.4469e-01
7.9355e-02 -7.5445e-03 9.5700e-02
-5.1328e-02 -1.7367e-01 -3.2520e-01
-1.5759e-01 -2.9389e-01 -6.4612e-01
-2.3264e-01 -3.6089e-01 -8.4688e-01
-2.7602e-01 -3.7821e-01 -9.3475e-01
-2.6781e-02 3.0240e+00 1.0909e+00
-2.2652e+00 2.3318e+00 2.3644e+00
-3.7528e+00 1.4090e+00 3.0817e+00
-4.3979e+00 3.2076e-01 3.1630e+00
-4.2776e+00 -7.7779e-01 2.7106e+00
-3.5578e+00 -1.6664e+00 1.9186e+00
-2.4588e+00 -2.2100e+00 9.8457e-01
-1.1996e+00 -2.3903e+00 7.1105e-02
7.5532e-02 -2.2237e+00 -7.1129e-01
8.7258e-01 1.4991e+00 2.0032e+00
-1.5676e+00 1.1777e+00 3.2982e+00
-3.3720e+00 6.9431e-01 3.7502e+00
-4.4008e+00 1.3075e-01 3.4790e+00
-4.6455e+00 -4.3368e-01 2.6398e+00
-4.1997e+00 -8.8763e-01 1.4862e+00
-3.2543e+00 -1.1563e+00 2.7978e-01
-2.0397e+00 -1.2484e+00 -8.1901e-01
-7.7650e-01 -1.2060e+00 -1.7543e+00
1.3937e+00 2.6179e-07 3.2469e+00
-1.0500e+00 1.8050e-07 4.2971e+00
-2.9192e+00 7.5034e-08 4.3605e+00
-4.0996e+00 1.3216e-07 3.6081e+00
-4.5442e+00 1.2922e-07 2.2778e+00
-4.3010e+00 1.2255e-07 7.1637e-01
-3.5174e+00 2.0497e-07 -7.5304e-01
-2.4232e+00 1.5217e-07 -1.9752e+00
-1.2332e+00 1.3553e-07 -2.8731e+00
1.3671e+00 -1.2186e+00 4.4997e+00
-7.4528e-01 -9.2083e-01 5.1515e+00
-2.3811e+00 -5.2810e-01 4.7472e+00
-3.4398e+00 -7.3013e-02 3.4962e+00
-3.8806e+00 3.7753e-01 1.7001e+00
-3.7280e+00 7.3477e-01 -2.0668e-01
-3.1034e+00 9.4669e-01 -1.8568e+00
-2.1968e+00 1.0097e+00 -3.0907e+00
-1.1893e+00 9.4601e-01 -3.8747e+00
8.6933e-01 -1.7553e+00 5.3189e+00
-6.2194e-01 -1.3301e+00 5.5798e+00
-1.7591e+00 -7.6508e-01 4.7859e+00
-2.4760e+00 -1.1291e-01 3.1748e+00
-2.7469e+00 5.3322e-01 1.0888e+00
-2.6020e+00 1.0465e+00 -9.9160e-01
-2.1336e+00 1.3493e+00 -2.6807e+00
-1.4776e+00 1.4403e+00 -3.8461e+00
-7.6151e-01 1.3534e+00 -4.4798e+00
2.7069e-01 -1.4579e+00 5.4042e+00
-5.1090e-01 -1.1196e+00 5.3977e+00
-1.0781e+00 -6.5818e-01 4.4251e+00
-1.3968e+00 -1.1989e-01 2.7206e+00
-1.4666e+00 4.1669e-01 6.2710e-01
-1.3207e+00 8.4597e-01 -1.3838e+00
-1.0212e+00 1.1042e+00 -2.9564e+00
-6.4317e-01 1.1893e+00 -3.9784e+00
-2.5082e-01 1.1279e+00 -4.4656e+00
-2.4924e-02 -5.4497e-01 4.7414e+00
-2.3191e-01 -4.2314e-01 4.6409e+00
-3.6639e-01 -2.5410e-01 3.7240e+00
-4.2029e-01 -5.6162e-02 2.2039e+00
-3.9963e-01 1.4297e-01 3.8238e-01
-3.2382e-01 3.0511e-01 -1.3374e+00
-2.1692e-01 4.0586e-01 -2.6562e+00
-9.9686e-02 4.4424e-01 -3.4915e+00
1.3167e-02 4.2917e-01 -3.8655e+00
1.6825e-01 5.7438e-01 3.6037e+00
2.8420e-01 4.8532e-01 3.5232e+00
3.3328e-01 3.2182e-01 2.8201e+00
3.1960e-01 1.1281e-01 1.6646e+00
2.5440e-01 -1.0474e-01 2.8868e-01
1.5888e-01 -2.8513e-01 -1.0042e+00
5.5618e-02 -4.0035e-01 -1.9935e+00
-4.2323e-02 -4.4942e-01 -2.6171e+00
-1.2280e-01 -4.4100e-01 -2.8997e+00
7.7427e-01 1.5571e+00 2.3334e+00
9.7661e-01 1.3527e+00 2.3036e+00
9.7892e-01 9.3596e-01 1.8666e+00
8.0047e-01 3.8808e-01 1.1286e+00
4.9909e-01 -1.9709e-01 2.4040e-01
1.5721e-01 -6.9964e-01 -5.9827e-01
-1.5938e-01 -1.0398e+00 -1.2440e+00
-4.1551e-01 -1.2066e+00 -1.6537e+00
-6.0297e-01 -1.2173e+00 -1.8403e+00
-3.3010e-01 3.8927e+00 1.9635e+00
-2.1784e+00 3.0724e+00 2.8381e+00
-3.3607e+00 1.8842e+00 3.1223e+00
-3.8067e+00 4.6864e-01 2.8072e+00
-3.5930e+00 -9.6249e-01 2.0363e+00
-2.8870e+00 -2.1332e+00 1.0457e+00
-1.8910e+00 -2.8591e+00 5.6022e-02
-7.9153e-01 -3.1287e+00 -7.9995e-01
2.8512e-01 -2.9800e+00 -1.4415e+00
7.1748e-01 2.6204e+00 3.0849e+00
-1.3728e+00 2.0387e+00 3.9646e+00
-2.9144e+00 1.2046e+00 3.9595e+00
-3.7864e+00 2.2932e-01 3.2347e+00
-3.9845e+00 -7.4741e-01 2.0014e+00
-3.5903e+00 -1.5312e+00 5.7797e-01
-2.7726e+00 -2.0021e+00 -7.4406e-01
-1.7293e+00 -2.1600e+00 -1.8126e+00
-6.4368e-01 -2.0591e+00 -2.6095e+00
1.3671e+00 1.2186e+00 4.4997e+00
-7.4528e-01 9.2083e-01 5.1515e+00
-2.3811e+00 5.2810e-01 4.7472e+00
-3.4398e+00 7.3014e-02 3.4962e+00
-3.8806e+00 -3.7753e-01 1.7001e+00
-3.7280e+00 -7.3477e-01 -2.0668e-01
-3.1034e+00 -9.4669e-01 -1.8568e+00
-2.1968e+00 -1.0097e+00 -3.0907e+00
-1.1893e+00 -9.4601e-01 -3.8747e+00
1.4028e+00 4.0223e-07 5.8458e+00
-3.6463e-01 4.1622e-07 6.1613e+00
-1.7648e+00 3.5281e-07 5.3089e+00
-2.7159e+00 2.1113e-07 3.5382e+00
-3.1760e+00 7.9531e-08 1.2279e+00
-3.1426e+00 4.6856e-08 -1.0873e+00
-2.7028e+00 1.1520e-07 -2.9793e+00
-2.0072e+00 1.0584e-07 -4.2857e+00
-1.2004e+00 8.0309e-08 -5.0022e+00
8.9426e-01 -6.0041e-01 6.6721e+00
-2.1018e-01 -4.4594e-01 6.6801e+00
-1.0855e+00 -2.4724e-01 5.4918e+00
-1.6816e+00 -2.3644e-02 3.3828e+00
-1.9714e+00 1.9578e-01 7.7336e-01
-1.9549e+00 3.6836e-01 -1.7454e+00
-1.6867e+00 4.6652e-01 -3.7229e+00
-1.2584e+00 4.9385e-01 -5.0110e+00
-7.5959e-01 4.6027e-01 -5.6271e+00
2.4009e-01 -3.7170e-01 6.6530e+00
-1.0454e-01 -2.7483e-01 6.5106e+00
-3.7239e-01 -1.5257e-01 5.2302e+00
-5.4517e-01 -1.5450e-02 3.0877e+00
-6.1794e-01 1.1902e-01 5.0482e-01
-5.9684e-01 2.2548e-01 -1.9413e+00
-5.0254e-01 2.8793e-01 -3.8240e+00
-3.6359e-01 3.0668e-01 -5.0162e+00
-2.0521e-01 2.8805e-01 -5.5455e+00
-9.1805e-02 5.0850e-01 5.8335e+00
1.5872e-01 4.0014e-01 5.7070e+00
3.4209e-01 2.4158e-01 4.5765e+00
4.4990e-01 5.0400e-02 2.6979e+00
4.7943e-01 -1.4031e-01 4.4514e-01
4.3703e-01 -2.9056e-01 -1.6790e+00
3.3997e-01 -3.7936e-01 -3.3099e+00
2.1534e-01 -4.0690e-01 -4.3436e+00
8.8320e-02 -3.8275e-01 -4.8065e+00
1.1379e-01 1.6244e+00 4.5494e+00
6.6536e-01 1.3055e+00 4.5224e+00
1.0213e+00 8.1034e-01 3.6784e+00
1.1618e+00 2.1004e-01 2.2349e+00
1.1021e+00 -3.9744e-01 4.8872e-01
8.8932e-01 -8.8707e-01 -1.1703e+00
5.8739e-01 -1.1878e+00 -2.4572e+00
2.5512e-01 -1.2999e+00 -3.2877e+00
-6.0572e-02 -1.2503e+00 -3.6927e+00
7.7149e-01 2.6188e+00 3.1898e+00
1.3642e+00 2.1734e+00 3.2394e+00
1.6339e+00 1.4128e+00 2.7097e+00
1.5756e+00 4.6650e-01 1.7313e+00
1.2584e+00 -5.0938e-01 5.1383e-01
7.9498e-01 -1.3211e+00 -6.6161e-01
2.9126e-01 -1.8437e+00 -1.5876e+00
-1.8394e-01 -2.0688e+00 -2.1993e+00
-5.9092e-01 -2.0298e+00 -2.5021e+00
-8.2264e-01 4.0501e+00 2.5104e+00
-2.1299e+00 3.2673e+00 2.9879e+00
-2.8720e+00 2.0570e+00 2.9015e+00
-3.0072e+00 5.9199e-01 2.2908e+00
-2.6320e+00 -9.0760e-01 1.3231e+00
-1.9170e+00 -2.1471e+00 2.5498e-01
-1.0432e+00 -2.9345e+00 -6.9987e-01
-1.5723e-01 -3.2513e+00 -1.4337e+00
6.5822e-01 -3.1505e+00 -1.9108e+00
2.2415e-01 3.0069e+00 3.8068e+00
-1.2942e+00 2.3594e+00 4.2603e+00
-2.3612e+00 1.4176e+00 3.8604e+00
-2.9025e+00 3.0461e-01 2.7937e+00
-2.9306e+00 -8.1404e-01 1.3063e+00
-2.5338e+00 -1.7178e+00 -2.4662e-01
-1.8561e+00 -2.2666e+00 -1.5676e+00
-1.0439e+00 -2.4615e+00 -2.5334e+00
-2.3026e-01 -2.3553e+00 -3.1436e+00
8.6933e-01 1.7553e+00 5.3189e+00
-6.2194e-01 1.3301e+00 5.5798e+00
-1.7591e+00 7.6508e-01 4.7859e+00
-2.4760e+00 1.1291e-01 3.1748e+00
-2.7469e+00 -5.3322e-01 1.0888e+00
-2.6020e+00 -1.0465e+00 -9.9160e-01
-2.1336e+00 -1.3493e+00 -2.6807e+00
-1.4776e+00 -1.4403e+00 -3.8461e+00
-7.6151e-01 -1.3534e+00 -4.4798e+00
8.9426e-01 6.0041e-01 6.6721e+00
-2.1018e-01 4.4594e-01 6.6801e+00
-1.0855e+00 2.4724e-01 5.4918e+00
-1.6816e+00 2.3644e-02 3.3828e+00
-1.9714e+00 -1.9578e-01 7.7336e-01
-1.9549e+00 -3.6836e-01 -1.7454e+00
-1.6867e+00 -4.6652e-01 -3.7229e+00
-1.2584e+00 -4.9385e-01 -5.0110e+00
-7.5959e-01 -4.6027e-01 -5.6271e+00
3.6340e-01 1.7905e-07 7.3971e+00
-4.4247e-02 6.6669e-08 7.2395e+00
-3.7194e-01 1.7012e-07 5.8153e+00
-5.9925e-01 1.0582e-07 3.4274e+00
-7.1509e-01 5.1813e-08 5.4235e-01
-7.1997e-01 3.1824e-08 -2.1950e+00
-6.3259e-01 -7.8793e-08 -4.3009e+00
-4.8464e-01 -1.1571e-07 -5.6375e+00
-3.0605e-01 -8.7595e-08 -6.2298e+00
-3.0381e-01 2.1016e-01 7.2279e+00
5.8086e-02 1.5997e-01 7.0707e+00
3.4616e-01 9.0462e-02 5.6730e+00
5.4837e-01 1.0947e-02 3.3359e+00
6.5214e-01 -6.7301e-02 5.2097e-01
6.5179e-01 -1.2808e-01 -2.1404e+00
5.6373e-01 -1.6119e-01 -4.1877e+00
4.2086e-01 -1.7039e-01 -5.4850e+00
2.5698e-01 -1.5822e-01 -6.0639e+00
-6.1762e-01 1.0980e+00 6.2596e+00
3.1405e-01 8.3682e-01 6.2534e+00
1.0371e+00 4.8225e-01 5.1108e+00
1.5114e+00 6.9708e-02 3.1158e+00
1.7123e+00 -3.3614e-01 6.7964e-01
1.6489e+00 -6.5361e-01 -1.6486e+00
1.3740e+00 -8.3744e-01 -3.4634e+00
9.7454e-01 -8.8937e-01 -4.6515e+00
5.3559e-01 -8.3157e-01 -5.2285e+00
-3.5948e-01 2.2533e+00 4.8911e+00
8.1641e-01 1.7672e+00 5.0620e+00
1.6742e+00 1.0535e+00 4.2711e+00
2.1540e+00 2.0959e-01 2.7655e+00
2.2496e+00 -6.2965e-01 8.7148e-01
2.0115e+00 -1.2951e+00 -9.7758e-01
1.5406e+00 -1.6900e+00 -2.4571e+00
9.4623e-01 -1.8240e+00 -3.4625e+00
3.3477e-01 -1.7376e+00 -4.0200e+00
3.7747e-01 3.3321e+00 3.5286e+00
1.5251e+00 2.6725e+00 3.7816e+00
2.2412e+00 1.6571e+00 3.3397e+00
2.4702e+00 4.3672e-01 2.3214e+00
2.2771e+00 -7.9551e-01 9.6676e-01
1.7828e+00 -1.7944e+00 -3.9377e-01
1.1204e+00 -2.4152e+00 -1.5162e+00
4.1103e-01 -2.6518e+00 -2.3024e+00
-2.7226e-01 -2.5427e+00 -2.7416e+00
-1.2326e+00 3.4956e+00 2.5178e+00
-1.9913e+00 2.9067e+00 2.7053e+00
-2.2908e+00 1.9048e+00 2.4062e+00
-2.1358e+00 6.5520e-01 1.6950e+00
-1.6293e+00 -6.4541e-01 7.3253e-01
-9.3811e-01 -1.7409e+00 -2.4790e-01
-2.1696e-01 -2.4581e+00 -1.0603e+00
4.3739e-01 -2.7779e+00 -1.6331e+00
9.7767e-01 -2.7490e+00 -1.9559e+00
-2.8748e-01 2.6020e+00 3.9008e+00
-1.1749e+00 2.0791e+00 4.0378e+00
-1.7290e+00 1.2878e+00 3.4247e+00
-1.9161e+00 3.3613e-01 2.2422e+00
-1.7714e+00 -6.3125e-01 7.3840e-01
-1.3849e+00 -1.4215e+00 -7.4277e-01
-8.6861e-01 -1.9142e+00 -1.9329e+00
-3.1786e-01 -2.1048e+00 -2.7370e+00
1.9595e-01 -2.0352e+00 -3.1697e+00
2.7069e-01 1.4579e+00 5.4042e+00
-5.1090e-01 1.1196e+00 5.3977e+00
-1.0781e+00 6.5818e-01 4.4251e+00
-1.3968e+00 1.1989e-01 2.7206e+00
-1.4666e+00 -4.1669e-01 6.2710e-01
-1.3207e+00 -8.4597e-01 -1.3838e+00
-1.0212e+00 -1.1042e+00 -2.9564e+00
-6.4317e-01 -1.1893e+00 -3.9784e+00
-2.5082e-01 -1.1279e+00 -4.4656e+00
2.4009e-01 3.7170e-01 6.6530e+00
-1.0454e-01 2.7483e-01 6.5106e+00
-3.7239e-01 1.5257e-01 5.2302e+00
-5.4517e-01 1.5450e-02 3.0877e+00
-6.1794e-01 -1.1902e-01 5.0482e-01
-5.9684e-01 -2.2548e-01 -1.9413e+00
-5.0254e-01 -2.8793e-01 -3.8240e+00
-3.6359e-01 -3.0668e-01 -5.0162e+00
-2.0521e-01 -2.8805e-01 -5.5455e+00
-3.0381e-01 -2.1016e-01 7.2279e+00
5.8087e-02 -1.5997e-01 7.0707e+00
3.4616e-01 -9.0462e-02 5.6730e+00
5.4837e-01 -1.0947e-02 3.3359e+00
6.5214e-01 6.7301e-02 5.2097e-01
6.5179e-01 1.2808e-01 -2.1404e+00
5.6373e-01 1.6120e-01 -4.1877e+00
4.2086e-01 1.7039e-01 -5.4850e+00
2.5698e-01 1.5822e-01 -6.0639e+00
-9.5597e-01 1.4771e-07 6.9167e+00
1.5256e-01 1.1812e-07 6.9197e+00
1.0424e+00 7.7011e-08 5.6665e+00
1.6642e+00 1.2410e-07 3.4569e+00
1.9831e+00 3.8413e-08 7.4814e-01
1.9869e+00 3.3490e-08 -1.8464e+00
1.7282e+00 9.1460e-08 -3.8772e+00
1.3043e+00 1.0312e-07 -5.2054e+00
8.0894e-01 9.0390e-08 -5.8529e+00
-1.2466e+00 9.1740e-01 5.8890e+00
3.9030e-01 6.9304e-01 6.1546e+00
1.6885e+00 3.9481e-01 5.2395e+00
2.5661e+00 4.8224e-02 3.4222e+00
2.9757e+00 -2.9061e-01 1.1045e+00
2.9192e+00 -5.5418e-01 -1.1758e+00
2.4845e+00 -7.0818e-01 -3.0193e+00
1.8195e+00 -7.5241e-01 -4.2915e+00
1.0657e+00 -7.0208e-01 -4.9937e+00
-9.6011e-01 2.1667e+00 4.5399e+00
8.6560e-01 1.6784e+00 5.0465e+00
2.2680e+00 9.7816e-01 4.5204e+00
3.1316e+00 1.6184e-01 3.2072e+00
3.4275e+00 -6.4393e-01 1.4234e+00
3.2005e+00 -1.2757e+00 -4.0573e-01
2.5827e+00 -1.6463e+00 -1.9474e+00
1.7418e+00 -1.7625e+00 -3.0718e+00
8.3495e-01 -1.6727e+00 -3.7988e+00
-1.9298e-01 3.4068e+00 3.2767e+00
1.5608e+00 2.6664e+00 3.8581e+00
2.7768e+00 1.6022e+00 3.6873e+00
3.3585e+00 3.4614e-01 2.8471e+00
3.3496e+00 -9.0130e-01 1.5741e+00
2.8696e+00 -1.8984e+00 2.0120e-01
2.0785e+00 -2.4990e+00 -1.0061e+00
1.1387e+00 -2.7071e+00 -1.9305e+00
1.7277e-01 -2.5489e+00 -2.5213e+00
-1.3230e+00 2.4838e+00 1.9762e+00
-1.6513e+00 2.1470e+00 2.0079e+00
-1.6421e+00 1.4830e+00 1.6883e+00
-1.3283e+00 6.1565e-01 1.0904e+00
-8.0740e-01 -3.1233e-01 3.3849e-01
-2.2042e-01 -1.1137e+00 -3.9354e-01
3.1605e-01 -1.6606e+00 -9.7419e-01
7.4392e-01 -1.9338e+00 -1.3590e+00
1.0492e+00 -1.9649e+00 -1.5527e+00
-4.9216e-01 1.6405e+00 3.3410e+00
-8.7071e-01 1.3485e+00 3.3211e+00
-1.0428e+00 8.7184e-01 2.7085e+00
-1.0076e+00 2.8202e-01 1.6579e+00
-8.0333e-01 -3.2773e-01 3.8043e-01
-5.0222e-01 -8.3610e-01 -8.3860e-01
-1.7747e-01 -1.1645e+00 -1.7862e+00
1.2537e-01 -1.3074e+00 -2.3964e+00
3.7785e-01 -1.2893e+00 -2.6868e+00
-2.4924e-02 5.4497e-01 4.7414e+00
-2.3191e-01 4.2314e-01 4.6409e+00
-3.6639e-01 2.5410e-01 3.7240e+00
-4.2029e-01 5.6162e-02 2.2039e+00
-3.9963e-01 -1.4297e-01 3.8238e-01
-3.2382e-01 -3.0511e-01 -1.3374e+00
-2.1692e-01 -4.0586e-01 -2.6562e+00
-9.9686e-02 -4.4423e-01 -3.4915e+00
1.3166e-02 -4.2917e-01 -3.8655e+00
-9.1805e-02 -5.0850e-01 5.8335e+00
1.5872e-01 -4.0014e-01 5.7070e+00
3.4209e-01 -2.4158e-01 4.5765e+00
4.4990e-01 -5.0400e-02 2.6979e+00
4.7943e-01 1.4031e-01 4.4514e-01
4.3703e-01 2.9056e-01 -1.6790e+00
3.3997e-01 3.7936e-01 -3.3099e+00
2.1534e-01 4.0690e-01 -4.3436e+00
8.8320e-02 3.8276e-01 -4.8065e+00
-6.1762e-01 -1.0980e+00 6.2596e+00
3.1405e-01 -8.3682e-01 6.2534e+00
1.0371e+00 -4.8225e-01 5.1108e+00
1.5114e+00 -6.9708e-02 3.1158e+00
1.7123e+00 3.3614e-01 6.7964e-01
1.6489e+00 6.5361e-01 -1.6486e+00
1.3740e+00 8.3744e-01 -3.4634e+00
9.7455e-01 8.8937e-01 -4.6515e+00
5.3559e-01 8.3157e-01 -5.2285e+00
-1.2466e+00 -9.1740e-01 5.8890e+00
3.9030e-01 -6.9304e-01 6.1546e+00
1.6885e+00 -3.9481e-01 5.2395e+00
2.5661e+00 -4.8224e-02 3.4222e+00
2.9757e+00 2.9061e-01 1.1045e+00
2.9192e+00 5.5418e-01 -1.1758e+00
2.4845e+00 7.0818e-01 -3.0193e+00
1.8195e+00 7.5241e-01 -4.2915e+00
1.0657e+00 7.0208e-01 -4.9937e+00
-1.5520e+00 5.6891e-08 4.8910e+00
5.8749e-01 1.0654e-07 5.5096e+00
2.2778e+00 1.3259e-08 4.9822e+00
3.4083e+00 3.6340e-08 3.5649e+00
3.9131e+00 6.3327e-08 1.6118e+00
3.8096e+00 -3.7751e-08 -4.0815e-01
3.2162e+00 -1.0999e-07 -2.1261e+00
2.3312e+00 -1.3238e-07 -3.4125e+00
1.3415e+00 -1.6914e-07 -4.2276e+00
-1.3301e+00 1.3247e+00 3.6643e+00
9.9567e-01 1.0329e+00 4.5617e+00
2.7983e+00 5.9714e-01 4.4363e+00
3.9267e+00 9.3449e-02 3.5022e+00
4.3372e+00 -4.0214e-01 2.0294e+00
4.0840e+00 -7.9135e-01 3.9373e-01
3.3294e+00 -1.0172e+00 -1.0884e+00
2.2834e+00 -1.0933e+00 -2.2726e+00
1.1493e+00 -1.0559e+00 -3.1418e+00
-6.4558e-01 2.7783e+00 2.5744e+00
1.6155e+00 2.1191e+00 3.5339e+00
3.2441e+00 1.2490e+00 3.7541e+00
4.1047e+00 2.3673e-01 3.2510e+00
4.2346e+00 -7.6396e-01 2.2270e+00
3.7526e+00 -1.5536e+00 9.8778e-01
2.8448e+00 -2.0275e+00 -2.1247e-01
1.7179e+00 -2.1704e+00 -1.2150e+00
5.1172e-01 -1.9884e+00 -1.9446e+00
-1.0099e+00 1.3520e+00 1.0521e+00
-1.0890e+00 1.2270e+00 1.0401e+00
-9.6399e-01 9.0205e-01 8.4790e-01
-6.7208e-01 4.4572e-01 5.1892e-01
-2.8195e-01 -6.0713e-02 1.1960e-01
1.1163e-01 -5.1325e-01 -2.6075e-01
4.3664e-01 -8.3792e-01 -5.5550e-01
6.6656e-01 -1.0193e+00 -7.4469e-01
8.0168e-01 -1.0730e+00 -8.3394e-01
-2.5426e-01 5.0810e-01 2.3367e+00
-3.3412e-01 4.2836e-01 2.2853e+00
-3.4500e-01 2.8799e-01 1.8315e+00
-2.8994e-01 1.0990e-01 1.0852e+00
-1.8756e-01 -7.7507e-02 1.9626e-01
-6.7561e-02 -2.3766e-01 -6.4012e-01
4.4362e-02 -3.4561e-01 -1.2808e+00
1.3549e-01 -3.9878e-01 -1.6844e+00