<?xml version="1.0"?>
<VTKFile type="StructuredGrid" version="0.1">
  <StructuredGrid WholeExtent="0 8 0 8 0 8">
    <Piece Extent="0 8 0 8 0 8">
      <PointData Scalars="temperature" Vectors="velocity">
        <DataArray type="Float32" Name="temperature" format="ascii">
1.000000e+00
8.627655e-01
7.341756e-01
6.026240e-01
4.718261e-01
3.570409e-01
2.388606e-01
1.173773e-01
0.000000e+00
1.000000e+00
8.642590e-01
7.357441e-01
6.045478e-01
4.739332e-01
3.585484e-01
2.401536e-01
1.185311e-01
0.000000e+00
1.000000e+00
8.647876e-01
7.367500e-01
6.063785e-01
4.764810e-01
3.598576e-01
2.407079e-01
1.187390e-01
0.000000e+00
1.000000e+00
8.655333e-01
7.381980e-01
6.091209e-01
4.803239e-01
3.619123e-01
2.416183e-01
1.191442e-01
0.000000e+00
1.000000e+00
8.664020e-01
7.398872e-01
6.123166e-01
4.848406e-01
3.643855e-01
2.427144e-01
1.196261e-01
0.000000e+00
1.000000e+00
8.672234e-01
7.414806e-01
6.153262e-01
4.891362e-01
3.667875e-01
2.437733e-01
1.200874e-01
0.000000e+00
1.000000e+00
8.678460e-01
7.426840e-01
6.175946e-01
4.923964e-01
3.686437e-01
2.445873e-01
1.204375e-01
0.000000e+00
1.000000e+00
8.681937e-01
7.433525e-01
6.188490e-01
4.941940e-01
3.696855e-01
2.450416e-01
1.206301e-01
0.000000e+00
1.000000e+00
8.682640e-01
7.434908e-01
6.191092e-01
4.945524e-01
3.699008e-01
2.451325e-01
1.206644e-01
0.000000e+00
1.000000e+00
8.641419e-01
7.355131e-01
6.041036e-01
4.732829e-01
3.582290e-01
2.400140e-01
1.184713e-01
0.000000e+00
1.000000e+00
8.642716e-01
7.357608e-01
6.045213e-01
4.737222e-01
3.585304e-01
2.401502e-01
1.185273e-01
0.000000e+00
1.000000e+00
8.647786e-01
7.366791e-01
6.061726e-01
4.759475e-01
3.597207e-01
2.406821e-01
1.187587e-01
0.000000e+00
1.000000e+00
8.655008e-01
7.381066e-01
6.088998e-01
4.797675e-01
3.617621e-01
2.415770e-01
1.191437e-01
0.000000e+00
1.000000e+00
8.664034e-01
7.398776e-01
6.122713e-01
4.845850e-01
3.643650e-01
2.427202e-01
1.196378e-01
0.000000e+00
1.000000e+00
8.672885e-01
7.416016e-01
6.155439e-01
4.893374e-01
3.669744e-01
2.438611e-01
1.201269e-01
0.000000e+00
1.000000e+00
8.679714e-01
7.429241e-01
6.180470e-01
4.930083e-01
3.690267e-01
2.447542e-01
1.205063e-01
0.000000e+00
1.000000e+00
8.683559e-01
7.436646e-01
6.194422e-01
4.950517e-01
3.701911e-01
2.452593e-01
1.207186e-01
0.000000e+00
1.000000e+00
8.684462e-01
7.438367e-01
6.197615e-01
4.954898e-01
3.704581e-01
2.453748e-01
1.207652e-01
0.000000e+00
1.000000e+00
8.645599e-01
7.363006e-01
6.055178e-01
4.752616e-01
3.592239e-01
2.404297e-01
1.186188e-01
0.000000e+00
1.000000e+00
8.646576e-01
7.364387e-01
6.057101e-01
4.752992e-01
3.593779e-01
2.405306e-01
1.186924e-01
0.000000e+00
1.000000e+00
8.650068e-01
7.371541e-01
6.070950e-01
4.772286e-01
3.604134e-01
2.409899e-01
1.188910e-01
0.000000e+00
1.000000e+00
8.657256e-01
7.385764e-01
6.098246e-01
4.810765e-01
3.624885e-01
2.419027e-01
1.192833e-01
0.000000e+00
1.000000e+00
8.666783e-01
7.404380e-01
6.133676e-01
4.861721e-01
3.652537e-01
2.431117e-01
1.198029e-01
0.000000e+00
1.000000e+00
8.676371e-01
7.422924e-01
6.168787e-01
4.913066e-01
3.680860e-01
2.443437e-01
1.203285e-01
0.000000e+00
1.000000e+00
8.683789e-01
7.437177e-01
6.195683e-01
4.952798e-01
3.703232e-01
2.453135e-01
1.207387e-01
0.000000e+00
1.000000e+00
8.687858e-01
7.444971e-01
6.210336e-01
4.974456e-01
3.715669e-01
2.458534e-01
1.209659e-01
0.000000e+00
1.000000e+00
8.688692e-01
7.446600e-01
6.213350e-01
4.978235e-01
3.718231e-01
2.459638e-01
1.210090e-01
0.000000e+00
1.000000e+00
8.652316e-01
7.376031e-01
6.079846e-01
4.787126e-01
3.610525e-01
2.412406e-01
1.189810e-01
0.000000e+00
1.000000e+00
8.652787e-01
7.376682e-01
6.080602e-01
4.785736e-01
3.611254e-01
2.412965e-01
1.190219e-01
0.000000e+00
1.000000e+00
8.656063e-01
7.383425e-01
6.093782e-01
4.804373e-01
3.621468e-01
2.417529e-01
1.192187e-01
0.000000e+00
1.000000e+00
8.663276e-01
7.397703e-01
6.121273e-01
4.843694e-01
3.642954e-01
2.426958e-01
1.196222e-01
0.000000e+00
1.000000e+00
8.673150e-01
7.416881e-01
6.157710e-01
4.896870e-01
3.672106e-01
2.439635e-01
1.201630e-01
0.000000e+00
1.000000e+00
8.683155e-01
7.436090e-01
6.193951e-01
4.950670e-01
3.702087e-01
2.452603e-01
1.207126e-01
0.000000e+00
1.000000e+00
8.690791e-01
7.450661e-01
6.221363e-01
4.991758e-01
3.725524e-01
2.462732e-01
1.211386e-01
0.000000e+00
1.000000e+00
8.694742e-01
7.458215e-01
6.235551e-01
5.013061e-01
3.737926e-01
2.468134e-01
1.213665e-01
0.000000e+00
1.000000e+00
8.695237e-01
7.459298e-01
6.237575e-01
5.014790e-01
3.739682e-01
2.468878e-01
1.213914e-01
0.000000e+00
1.000000e+00
8.660777e-01
7.392506e-01
6.111039e-01
4.831066e-01
3.634389e-01
2.422999e-01
1.194479e-01
0.000000e+00
1.000000e+00
8.661205e-01
7.393239e-01
6.112148e-01
4.830608e-01
3.635388e-01
2.423585e-01
1.194823e-01
0.000000e+00
1.000000e+00
8.664635e-01
7.400208e-01
6.125745e-01
4.850188e-01
3.646267e-01
2.428389e-01
1.196865e-01
0.000000e+00
1.000000e+00
8.671984e-01
7.414638e-01
6.153465e-01
4.890601e-01
3.668666e-01
2.438149e-01
1.201001e-01
0.000000e+00
1.000000e+00
8.681965e-01
7.433887e-01
6.189961e-01
4.944881e-01
3.698886e-01
2.451210e-01
1.206522e-01
0.000000e+00
1.000000e+00
8.691998e-01
7.453018e-01
6.225962e-01
4.999333e-01
3.729733e-01
2.464486e-01
1.212097e-01
0.000000e+00
1.000000e+00
8.699498e-01
7.467252e-01
6.252711e-01
5.040146e-01
3.753459e-01
2.474715e-01
1.216364e-01
0.000000e+00
1.000000e+00
8.703109e-01
7.474173e-01
6.265748e-01
5.060090e-01
3.765309e-01
2.479901e-01
1.218552e-01
0.000000e+00
1.000000e+00
8.703134e-01
7.474522e-01
6.266492e-01
5.059287e-01
3.765961e-01
2.480132e-01
1.218537e-01
0.000000e+00
1.000000e+00
8.669321e-01
7.409122e-01
6.142464e-01
4.875768e-01
3.659190e-01
2.433947e-01
1.199260e-01
0.000000e+00
1.000000e+00
8.669959e-01
7.410333e-01
6.144638e-01
4.877595e-01
3.661025e-01
2.434817e-01
1.199657e-01
0.000000e+00
1.000000e+00
8.673678e-01
7.417737e-01
6.158961e-01
4.898565e-01
3.672816e-01
2.439956e-01
1.201815e-01
0.000000e+00
1.000000e+00
8.681060e-01
7.432089e-01
6.186404e-01
4.939334e-01
3.695741e-01
2.449875e-01
1.205982e-01
0.000000e+00
1.000000e+00
8.690847e-01
7.450838e-01
6.221865e-01
4.993049e-01
3.726162e-01
2.462959e-01
1.211462e-01
0.000000e+00
1.000000e+00
8.700580e-01
7.469295e-01
6.256536e-01
5.046448e-01
3.756943e-01
2.476149e-01
1.216950e-01
0.000000e+00
1.000000e+00
8.707776e-01
7.482902e-01
6.282099e-01
5.086163e-01
3.780442e-01
2.486242e-01
1.221118e-01
0.000000e+00
1.000000e+00
8.711111e-01
7.489317e-01
6.294242e-01
5.105114e-01
3.791896e-01
2.491253e-01
1.223226e-01
0.000000e+00
1.000000e+00
8.710805e-01
7.489212e-01
6.294309e-01
5.103033e-01
3.791921e-01
2.491139e-01
1.222987e-01
0.000000e+00
1.000000e+00
8.676327e-01
7.422702e-01
6.168107e-01
4.912566e-01
3.679987e-01
2.443073e-01
1.203193e-01
0.000000e+00
1.000000e+00
8.677157e-01
7.424307e-01
6.171119e-01
4.916314e-01
3.682515e-01
2.444184e-01
1.203653e-01
0.000000e+00
1.000000e+00
8.681003e-01
7.431836e-01
6.185578e-01
4.937719e-01
3.694707e-01
2.449456e-01
1.205848e-01
0.000000e+00
1.000000e+00
8.688131e-01
7.445599e-01
6.211817e-01
4.977236e-01
3.717240e-01
2.459173e-01
1.209904e-01
0.000000e+00
1.000000e+00
8.697397e-01
7.463287e-01
6.245262e-01
5.028567e-01
3.746763e-01
2.471851e-01
1.215178e-01
0.000000e+00
1.000000e+00
8.706619e-01
7.480732e-01
6.278038e-01
5.079727e-01
3.776663e-01
2.484631e-01
1.220456e-01
0.000000e+00
1.000000e+00
8.713545e-01
7.493788e-01
6.302588e-01
5.118443e-01
3.799774e-01
2.494478e-01
1.224472e-01
0.000000e+00
1.000000e+00
8.716984e-01
7.500309e-01
6.314871e-01
5.137931e-01
3.811568e-01
2.499554e-01
1.226585e-01
0.000000e+00
1.000000e+00
8.716673e-01
7.500426e-01
6.315527e-01
5.137193e-01
3.812099e-01
2.499524e-01
1.226276e-01
0.000000e+00
1.000000e+00
8.680826e-01
7.431385e-01
6.184460e-01
4.936112e-01
3.693503e-01
2.448970e-01
1.205701e-01
0.000000e+00
1.000000e+00
8.681674e-01
7.433026e-01
6.187573e-01
4.940427e-01
3.696130e-01
2.450096e-01
1.206150e-01
0.000000e+00
1.000000e+00
8.685335e-01
7.440135e-01
6.201172e-01
4.960689e-01
3.707777e-01
2.455126e-01
1.208240e-01
0.000000e+00
1.000000e+00
8.691881e-01
7.452764e-01
6.225242e-01
4.997255e-01
3.728800e-01
2.464204e-01
1.212031e-01
0.000000e+00
1.000000e+00
8.700365e-01
7.468981e-01
6.255966e-01
5.044778e-01
3.756363e-01
2.476063e-01
1.216963e-01
0.000000e+00
1.000000e+00
8.708967e-01
7.485290e-01
6.286691e-01
5.093083e-01
3.784769e-01
2.488208e-01
1.221973e-01
0.000000e+00
1.000000e+00
8.715819e-01
7.498133e-01
6.310801e-01
5.131381e-01
3.807633e-01
2.497880e-01
1.225899e-01
0.000000e+00
1.000000e+00
8.718936e-01
7.504549e-01
6.323643e-01
5.152321e-01
3.819960e-01
2.502713e-01
1.227731e-01
0.000000e+00
1.000000e+00
8.719844e-01
7.506121e-01
6.326661e-01
5.156061e-01
3.822669e-01
2.503523e-01
1.227934e-01
0.000000e+00
1.000000e+00
8.682630e-01
7.434889e-01
6.191058e-01
4.945475e-01
3.698981e-01
2.451313e-01
1.206639e-01
0.000000e+00
1.000000e+00
8.683383e-01
7.436288e-01
6.193666e-01
4.949093e-01
3.701197e-01
2.452284e-01
1.207046e-01
0.000000e+00
1.000000e+00
8.686623e-01
7.442614e-01
6.205764e-01
4.966862e-01
3.711622e-01
2.456774e-01
1.208895e-01
0.000000e+00
1.000000e+00
8.692417e-01
7.453900e-01
6.227337e-01
4.999187e-01
3.730560e-01
2.464937e-01
1.212273e-01
0.000000e+00
1.000000e+00
8.700001e-01
7.468580e-01
6.255289e-01
5.041876e-01
3.755703e-01
2.475725e-01
1.216715e-01
0.000000e+00
1.000000e+00
8.707896e-01
7.483753e-01
6.284082e-01
5.086798e-01
3.782305e-01
2.487037e-01
1.221308e-01
0.000000e+00
1.000000e+00
8.714478e-01
7.496353e-01
6.307941e-01
5.124873e-01
3.804828e-01
2.496452e-01
1.225033e-01
0.000000e+00
1.000000e+00
8.718713e-01
7.504040e-01
6.322795e-01
5.149482e-01
3.818945e-01
2.501968e-01
1.227314e-01
0.000000e+00
1.000000e+00
8.708132e-01
7.495576e-01
6.317132e-01
5.146646e-01
3.810830e-01
2.491579e-01
1.216275e-01
0.000000e+00
        </DataArray>
        <DataArray type="Float32" Name="velocity" NumberOfComponents="3" format="ascii">
4.807466e-01 -8.522258e-03 -1.155056e-02
3.787508e-01 -2.626136e+00 -1.859967e+00
2.243557e-01 -4.254616e+00 -3.008815e+00
4.023625e-02 -4.952243e+00 -3.499487e+00
-1.428956e-01 -4.783773e+00 -3.378223e+00
-2.898842e-01 -3.960318e+00 -2.794539e+00
-3.806493e-01 -2.735732e+00 -1.928040e+00
-4.161050e-01 -1.326374e+00 -9.316881e-01
-4.095469e-01 6.899708e-03 1.035018e-02
2.024406e+00 3.229197e-01 -9.758437e-01
1.523687e+00 -2.198015e+00 -2.441622e+00
9.061458e-01 -3.903946e+00 -3.285146e+00
1.700481e-01 -4.714054e+00 -3.426438e+00
-5.529786e-01 -4.693667e+00 -2.990986e+00
-1.126210e+00 -4.007028e+00 -2.173870e+00
-1.476530e+00 -2.885668e+00 -1.180146e+00
-1.609385e+00 -1.574285e+00 -1.794484e-01
-1.445333e+00 -2.093279e-01 6.626483e-01
3.195085e+00 2.608698e-01 -1.977022e+00
2.466253e+00 -1.952295e+00 -3.037666e+00
1.469329e+00 -3.474027e+00 -3.441423e+00
3.001723e-01 -4.193808e+00 -3.164401e+00
-8.608206e-01 -4.174193e+00 -2.371060e+00
-1.783032e+00 -3.564050e+00 -1.322352e+00
-2.343125e+00 -2.568421e+00 -2.456653e-01
-2.526030e+00 -1.395442e+00 6.997825e-01
-2.346825e+00 -1.772678e-01 1.425435e+00
3.757656e+00 -1.222422e-01 -2.783388e+00
2.966516e+00 -1.847650e+00 -3.435564e+00
1.800984e+00 -2.983570e+00 -3.407526e+00
4.155388e-01 -3.453450e+00 -2.750015e+00
-9.670048e-01 -3.321687e+00 -1.667860e+00
-2.078074e+00 -2.733325e+00 -4.563708e-01
-2.755264e+00 -1.864818e+00 6.423102e-01
-3.001023e+00 -8.813970e-01 1.512867e+00
-2.849282e+00 1.003228e-01 2.093497e+00
3.606232e+00 -6.163146e-01 -3.155363e+00
2.914060e+00 -1.752163e+00 -3.449795e+00
1.824323e+00 -2.414274e+00 -3.108045e+00
5.052155e-01 -2.561763e+00 -2.224198e+00
-8.325382e-01 -2.275529e+00 -1.014160e+00
-1.922557e+00 -1.696230e+00 2.205682e-01
-2.606455e+00 -9.705512e-01 1.255099e+00
-2.876224e+00 -2.227210e-01 1.994016e+00
-2.775960e+00 4.779218e-01 2.419048e+00
2.815596e+00 -9.380821e-01 -2.934516e+00
2.351365e+00 -1.529041e+00 -3.004145e+00
1.540761e+00 -1.765766e+00 -2.537038e+00
5.253612e-01 -1.652923e+00 -1.647616e+00
-5.261693e-01 -1.270838e+00 -5.290750e-01
-1.404497e+00 -7.464001e-01 5.580581e-01
-1.974564e+00 -1.954905e-01 1.420009e+00
-2.225843e+00 3.100560e-01 1.994877e+00
-2.195416e+00 7.326334e-01 2.283608e+00
1.682188e+00 -8.782944e-01 -2.182882e+00
1.468021e+00 -1.082230e+00 -2.160601e+00
1.021163e+00 -1.066161e+00 -1.757425e+00
4.302227e-01 -8.548427e-01 -1.070317e+00
-2.029180e-01 -5.130841e-01 -2.402619e-01
-7.484067e-01 -1.323940e-01 5.452032e-01
-1.119637e+00 2.148901e-01 1.151318e+00
-1.304228e+00 4.914778e-01 1.537025e+00
-1.321450e+00 6.902095e-01 1.713146e+00
5.411979e-01 -4.017947e-01 -1.120658e+00
5.045416e-01 -4.182773e-01 -1.095827e+00
3.807223e-01 -3.577584e-01 -8.771980e-01
1.977536e-01 -2.384694e-01 -5.189378e-01
-9.042705e-03 -8.672093e-02 -9.333823e-02
-1.958487e-01 6.260108e-02 3.059004e-01
-3.311466e-01 1.836560e-01 6.104401e-01
-4.068677e-01 2.686244e-01 8.011220e-01
-4.275462e-01 3.174767e-01 8.843002e-01
-3.710723e-01 3.702652e-01 -7.339917e-03
-3.525446e-01 3.722283e-01 -7.906553e-03
-2.731610e-01 3.069063e-01 -7.242805e-03
-1.534882e-01 1.900984e-01 -5.220118e-03
-1.535910e-02 4.719638e-02 -2.126538e-03
1.117064e-01 -8.915289e-02 1.294960e-03
2.073241e-01 -1.944374e-01 4.198552e-03
2.660138e-01 -2.616668e-01 6.141870e-03
2.927133e-01 -2.920180e-01 6.984482e-03
-1.236118e+00 4.238055e-01 -8.228023e-01
-8.940665e-01 -2.177642e+00 -2.376986e+00
-5.358761e-01 -3.954640e+00 -3.298184e+00
-1.061803e-01 -4.820573e+00 -3.508750e+00
3.114897e-01 -4.835033e+00 -3.125148e+00
6.394918e-01 -4.158764e+00 -2.335119e+00
8.387218e-01 -3.027036e+00 -1.343742e+00
9.108768e-01 -1.690786e+00 -3.265955e-01
7.527771e-01 -2.928276e-01 5.558729e-01
3.619981e-01 9.516488e-01 -1.761765e+00
2.770579e-01 -1.640477e+00 -3.219621e+00
1.588988e-01 -3.564334e+00 -3.786013e+00
1.965879e-02 -4.648217e+00 -3.606390e+00
-1.180236e-01 -4.893087e+00 -2.838324e+00
-2.266201e-01 -4.409569e+00 -1.728888e+00
-2.913278e-01 -3.418062e+00 -5.273147e-01
-3.140999e-01 -2.160428e+00 5.974772e-01
-2.974816e-01 -8.756297e-01 1.619283e+00
1.697939e+00 1.112538e+00 -2.949755e+00
1.323456e+00 -1.274832e+00 -4.016834e+00
7.676061e-01 -3.080373e+00 -4.137127e+00
1.218341e-01 -4.156098e+00 -3.483940e+00
-5.143431e-01 -4.476531e+00 -2.283194e+00
-1.015188e+00 -4.121504e+00 -8.600425e-01
-1.308561e+00 -3.274120e+00 4.964240e-01
-1.409195e+00 -2.153967e+00 1.637916e+00
-1.358286e+00 -9.682360e-01 2.531608e+00
2.532727e+00 8.125226e-01 -3.970591e+00
1.966656e+00 -1.094998e+00 -4.600558e+00
1.150792e+00 -2.526689e+00 -4.262961e+00
1.967554e-01 -3.366475e+00 -3.170738e+00
-7.462104e-01 -3.599225e+00 -1.604600e+00
-1.487721e+00 -3.290390e+00 5.056772e-02
-1.925445e+00 -2.590142e+00 1.485782e+00
-2.067178e+00 -1.676462e+00 2.569096e+00
-1.965304e+00 -7.130328e-01 3.308924e+00
2.592431e+00 2.627400e-01 -4.498743e+00
2.037550e+00 -9.993023e-01 -4.743108e+00
1.218679e+00 -1.898483e+00 -4.074855e+00
2.483786e-01 -2.372580e+00 -2.718268e+00
-7.176470e-01 -2.425577e+00 -9.750499e-01
-1.485437e+00 -2.123785e+00 7.499675e-01
-1.943811e+00 -1.583113e+00 2.149970e+00
-2.102534e+00 -9.230645e-01 3.120457e+00
-2.006628e+00 -2.562164e-01 3.680270e+00
1.915381e+00 -1.874280e-01 -4.329779e+00
1.540683e+00 -8.111992e-01 -4.334859e+00
9.568124e-01 -1.203274e+00 -3.553817e+00
2.490216e-01 -1.342106e+00 -2.191311e+00
-4.673005e-01 -1.250306e+00 -5.300353e-01
-1.045773e+00 -9.874575e-01 1.056458e+00
-1.402185e+00 -6.294317e-01 2.294348e+00
-1.536951e+00 -2.432501e-01 3.100069e+00
-1.480869e+00 1.190075e-01 3.501055e+00
7.977963e-01 -2.392162e-01 -3.525089e+00
6.694845e-01 -4.010377e-01 -3.451698e+00
4.398864e-01 -4.691046e-01 -2.768415e+00
1.492236e-01 -4.471664e-01 -1.640677e+00
-1.521648e-01 -3.526254e-01 -2.952404e-01
-4.020285e-01 -2.165663e-01 9.703005e-01
-5.618214e-01 -7.079511e-02 1.939803e+00
-6.301468e-01 6.610199e-02 2.552004e+00
-6.187295e-01 1.789550e-01 2.830498e+00
-3.672171e-01 1.820536e-01 -2.360453e+00
-3.073219e-01 2.448206e-01 -2.306881e+00
-2.058359e-01 2.566182e-01 -1.846796e+00
-7.799795e-02 2.190498e-01 -1.092074e+00
5.625124e-02 1.452895e-01 -1.940178e-01
1.709277e-01 5.718053e-02 6.502233e-01
2.483341e-01 -2.586693e-02 1.296361e+00
2.865757e-01 -9.393590e-02 1.702914e+00
2.913173e-01 -1.439656e-01 1.885481e+00
-1.301331e+00 9.461483e-01 -1.148118e+00
-1.175178e+00 1.031480e+00 -1.133295e+00
-8.590574e-01 9.225854e-01 -9.212287e-01
-4.187637e-01 6.529218e-01 -5.607321e-01
6.797174e-02 2.871610e-01 -1.244708e-01
5.015055e-01 -8.500656e-02 2.901993e-01
8.111597e-01 -3.948433e-01 6.109112e-01
9.825767e-01 -6.164210e-01 8.161331e-01
1.030841e+00 -7.490514e-01 9.125285e-01
-2.695820e+00 4.331798e-01 -1.723977e+00
-2.056775e+00 -1.934005e+00 -2.929403e+00
-1.222907e+00 -3.589321e+00 -3.468889e+00
-2.499911e-01 -4.408963e+00 -3.309318e+00
7.132771e-01 -4.447821e+00 -2.603843e+00
1.473401e+00 -3.851276e+00 -1.601421e+00
1.930133e+00 -2.830440e+00 -5.281580e-01
2.066425e+00 -1.605576e+00 4.496546e-01
1.881949e+00 -3.207411e-01 1.236311e+00
-1.180881e+00 1.208682e+00 -2.820925e+00
-9.299359e-01 -1.263837e+00 -3.960062e+00
-5.448462e-01 -3.143932e+00 -4.148290e+00
-9.937078e-02 -4.275938e+00 -3.554888e+00
3.392563e-01 -4.629527e+00 -2.399350e+00
6.846106e-01 -4.282772e+00 -1.000634e+00
8.855179e-01 -3.421414e+00 3.534434e-01
9.551034e-01 -2.272227e+00 1.510547e+00
9.286679e-01 -1.050639e+00 2.433146e+00
2.076488e-01 1.536910e+00 -4.143873e+00
1.537048e-01 -7.941444e-01 -4.973007e+00
8.300906e-02 -2.610111e+00 -4.718301e+00
2.428619e-03 -3.792032e+00 -3.600089e+00
-7.589950e-02 -4.279648e+00 -1.928813e+00
-1.363907e-01 -4.107986e+00 -1.219204e-01
-1.709178e-01 -3.417372e+00 1.478880e+00
-1.796672e-01 -2.425988e+00 2.738035e+00
-1.678311e-01 -1.334266e+00 3.596886e+00
1.188629e+00 1.314663e+00 -5.323412e+00
8.964102e-01 -5.402146e-01 -5.740769e+00
5.073738e-01 -1.995761e+00 -5.026444e+00
5.718365e-02 -2.958754e+00 -3.432682e+00
-3.822115e-01 -3.382739e+00 -1.329224e+00
-7.234444e-01 -3.281117e+00 7.859029e-01
-9.219027e-01 -2.760697e+00 2.535507e+00
-9.784289e-01 -1.989829e+00 3.781686e+00
-9.134527e-01 -1.126615e+00 4.512877e+00
1.417314e+00 7.117770e-01 -5.923156e+00
1.077937e+00 -4.293289e-01 -5.998969e+00
6.176672e-01 -1.308643e+00 -4.970344e+00
8.410839e-02 -1.874705e+00 -3.106002e+00
-4.394720e-01 -2.101747e+00 -7.983088e-01
-8.482643e-01 -2.006621e+00 1.427701e+00
-1.084773e+00 -1.657739e+00 3.181269e+00
-1.151466e+00 -1.161293e+00 4.348630e+00
-1.076910e+00 -6.186551e-01 4.938167e+00
8.399409e-01 1.484845e-01 -5.714053e+00
6.541728e-01 -2.671960e-01 -5.611283e+00
3.876476e-01 -5.713777e-01 -4.517618e+00
7.166852e-02 -7.469226e-01 -2.683696e+00
-2.415733e-01 -7.913181e-01 -4.771732e-01
-4.881412e-01 -7.180509e-01 1.607925e+00
-6.333678e-01 -5.576968e-01 3.213487e+00
-6.781677e-01 -3.525732e-01 4.236267e+00
-6.383786e-01 -1.408224e-01 4.700321e+00
-2.488840e-01 6.570862e-03 -4.782784e+00
-1.896483e-01 1.135174e-01 -4.673623e+00
-1.135384e-01 1.832139e-01 -3.742742e+00
-2.582205e-02 2.117971e-01 -2.206306e+00
6.302881e-02 2.019775e-01 -3.691018e-01
1.365561e-01 1.640876e-01 1.362506e+00
1.832689e-01 1.108333e-01 2.688150e+00
2.024623e-01 5.282827e-02 3.525870e+00
1.975751e-01 -2.856007e-03 3.898568e+00
-1.422812e+00 4.006042e-01 -3.477155e+00
-1.166274e+00 7.436878e-01 -3.441910e+00
-7.520655e-01 9.075607e-01 -2.792557e+00
-2.409057e-01 8.903840e-01 -1.692679e+00
2.869614e-01 7.229492e-01 -3.627288e-01
7.264189e-01 4.667178e-01 9.016730e-01
1.009656e+00 1.854018e-01 1.880705e+00
1.131952e+00 -8.037535e-02 2.507915e+00
1.115040e+00 -3.041283e-01 2.802639e+00
-2.372024e+00 1.187666e+00 -2.158562e+00
-2.036230e+00 1.530390e+00 -2.182708e+00
-1.394507e+00 1.556674e+00 -1.823389e+00
-5.638318e-01 1.290958e+00 -1.164428e+00
3.207098e-01 8.218867e-01 -3.420582e-01
1.081151e+00 2.801844e-01 4.547938e-01
1.596541e+00 -2.245268e-01 1.084072e+00
1.849563e+00 -6.353258e-01 1.498464e+00
1.870309e+00 -9.357559e-01 1.705032e+00
-3.627033e+00 5.399721e-02 -2.512631e+00
-2.843212e+00 -1.873831e+00 -3.326779e+00
-1.717957e+00 -3.177767e+00 -3.453011e+00
-3.868478e-01 -3.763712e+00 -2.926644e+00
9.360897e-01 -3.690243e+00 -1.940330e+00
1.993412e+00 -3.102157e+00 -7.777765e-01
2.631168e+00 -2.186297e+00 3.211388e-01
2.852871e+00 -1.124677e+00 1.230350e+00
2.683908e+00 -4.919365e-02 1.878463e+00
-2.326032e+00 9.623572e-01 -3.773561e+00
-1.809526e+00 -1.103923e+00 -4.518135e+00
-1.061237e+00 -2.668819e+00 -4.285622e+00
-1.882728e-01 -3.604179e+00 -3.284939e+00
6.730481e-01 -3.887760e+00 -1.788095e+00
1.348818e+00 -3.583522e+00 -1.695505e-01
1.746226e+00 -2.849050e+00 1.263470e+00
1.872758e+00 -1.875778e+00 2.373314e+00
1.781916e+00 -8.415535e-01 3.162005e+00
-9.844284e-01 1.401917e+00 -5.231742e+00
-7.491543e-01 -5.433065e-01 -5.701793e+00
-4.322096e-01 -2.073445e+00 -5.035096e+00
-6.283339e-02 -3.090292e+00 -3.482710e+00
2.986471e-01 -3.543654e+00 -1.410852e+00
5.803485e-01 -3.445518e+00 6.871472e-01
7.459648e-01 -2.906611e+00 2.435264e+00
7.953298e-01 -2.103190e+00 3.693653e+00
7.446479e-01 -1.200878e+00 4.446777e+00
6.211536e-02 1.219093e+00 -6.474071e+00
4.209619e-02 -2.348049e-01 -6.611457e+00
1.882799e-02 -1.398409e+00 -5.521947e+00
-6.219040e-03 -2.203194e+00 -3.488544e+00
-2.963231e-02 -2.606043e+00 -9.457518e-01
-4.678324e-02 -2.597067e+00 1.522791e+00
-5.539026e-02 -2.248159e+00 3.485629e+00
-5.597752e-02 -1.686179e+00 4.801007e+00
-4.968084e-02 -1.032031e+00 5.480524e+00
4.085205e-01 5.778866e-01 -7.052236e+00
3.043120e-01 -1.120552e-01 -6.944958e+00
1.662859e-01 -6.640529e-01 -5.609065e+00
1.067011e-02 -1.047881e+00 -3.339970e+00
-1.402013e-01 -1.241827e+00 -5.915686e-01
-2.560777e-01 -1.239382e+00 2.016459e+00
-3.191535e-01 -1.072882e+00 4.032598e+00
-3.344774e-01 -8.025126e-01 5.321672e+00
-3.083260e-01 -4.884950e-01 5.911193e+00
-7.313962e-02 -5.980236e-02 -6.717418e+00
-5.250958e-02 3.042825e-02 -6.557267e+00
-3.052785e-02 9.784919e-02 -5.252645e+00
-6.556217e-03 1.384427e-01 -3.083150e+00
1.828688e-02 1.523629e-01 -4.762774e-01
3.989751e-02 1.439140e-01 1.986044e+00
5.454382e-02 1.199355e-01 3.876534e+00
6.129022e-02 8.694460e-02 5.069823e+00
6.086568e-02 4.982392e-02 5.595143e+00
-1.129358e+00 -2.429213e-01 -5.623357e+00
-8.660090e-01 3.884174e-01 -5.568869e+00
-5.102141e-01 8.494997e-01 -4.523835e+00
-9.481417e-02 1.113475e+00 -2.734169e+00
3.199240e-01 1.178287e+00 -5.568982e-01
6.521813e-01 1.068835e+00 1.520115e+00
8.527259e-01 8.339289e-01 3.132567e+00
9.192636e-01 5.343056e-01 4.169383e+00
8.723225e-01 2.222709e-01 4.650825e+00
-2.317993e+00 1.686086e-01 -4.181855e+00
-1.845301e+00 1.007041e+00 -4.276379e+00
-1.137572e+00 1.548409e+00 -3.581046e+00
-2.892217e-01 1.758272e+00 -2.294147e+00
5.714383e-01 1.661758e+00 -6.821171e-01
1.272535e+00 1.334787e+00 8.903831e-01
1.707590e+00 8.767528e-01 2.141394e+00
1.873009e+00 3.761006e-01 2.975337e+00
1.807178e+00 -9.893652e-02 3.411607e+00
-3.310658e+00 1.016538e+00 -2.797828e+00
-2.730932e+00 1.802787e+00 -2.966738e+00
-1.771151e+00 2.162158e+00 -2.601458e+00
-5.845645e-01 2.085372e+00 -1.794105e+00
6.441359e-01 1.661976e+00 -7.231861e-01
1.673821e+00 1.042312e+00 3.553476e-01
2.341952e+00 3.702952e-01 1.239857e+00
2.632190e+00 -2.588639e-01 1.854735e+00
2.590034e+00 -7.935762e-01 2.194159e+00
-3.848784e+00 -5.295283e-01 -2.948248e+00
-3.089812e+00 -1.876860e+00 -3.383433e+00
-1.921255e+00 -2.698315e+00 -3.172957e+00
-5.149669e-01 -2.937656e+00 -2.395916e+00
9.048378e-01 -2.676021e+00 -1.259944e+00
2.055146e+00 -2.062377e+00 -5.871191e-02
2.770284e+00 -1.259606e+00 9.831114e-01
3.043442e+00 -4.111849e-01 1.760899e+00
2.919392e+00 3.975119e-01 2.246652e+00
-2.737123e+00 3.857229e-01 -4.316961e+00
-2.150104e+00 -1.075875e+00 -4.675132e+00
-1.284836e+00 -2.130959e+00 -4.108435e+00
-2.625000e-01 -2.705099e+00 -2.838611e+00
7.528144e-01 -2.797490e+00 -1.159505e+00
1.557700e+00 -2.478098e+00 5.330669e-01
2.036459e+00 -1.875940e+00 1.934128e+00
2.200093e+00 -1.128486e+00 2.933081e+00
2.099048e+00 -3.658417e-01 3.543330e+00
-1.486286e+00 8.354444e-01 -5.812378e+00
-1.135671e+00 -4.678401e-01 -5.954166e+00
-6.566044e-01 -1.475092e+00 -4.984289e+00
-1.002129e-01 -2.127495e+00 -3.170189e+00
4.461988e-01 -2.394683e+00 -9.005960e-01
8.735210e-01 -2.294098e+00 1.304831e+00
1.121627e+00 -1.902897e+00 3.057380e+00
1.193736e+00 -1.341756e+00 4.240835e+00
1.119146e+00 -7.257321e-01 4.858399e+00
-4.272408e-01 6.565611e-01 -7.018950e+00
-3.259719e-01 -1.256655e-01 -6.930820e+00
-1.867586e-01 -7.510630e-01 -5.612113e+00
-2.715499e-02 -1.185687e+00 -3.357600e+00
1.293857e-01 -1.405193e+00 -6.206027e-01
2.514587e-01 -1.402649e+00 1.980709e+00
3.202559e-01 -1.214862e+00 3.996115e+00
3.402795e-01 -9.097696e-01 5.289302e+00
3.181890e-01 -5.551322e-01 5.886890e+00
-1.139635e-04 4.575918e-16 -7.472927e+00
-4.268728e-03 7.348027e-03 -7.292873e+00
-6.685282e-03 9.584303e-03 -5.838847e+00
-7.939041e-03 6.767502e-03 -3.418474e+00
-8.180504e-03 9.001588e-04 -5.053814e-01
-7.334725e-03 -3.475160e-03 2.249569e+00
-5.765179e-03 -4.098294e-03 4.362676e+00
-3.524804e-03 -1.937833e-03 5.699162e+00
-8.017925e-04 -3.848661e-16 6.286141e+00
-4.026565e-01 -6.558721e-01 -6.984820e+00
-3.012877e-01 1.393887e-01 -6.903749e+00
-1.701374e-01 7.690102e-01 -5.601022e+00
-2.190431e-02 1.199137e+00 -3.366005e+00
1.248537e-01 1.409693e+00 -6.389228e-01
2.414509e-01 1.400893e+00 1.966784e+00
3.085699e-01 1.212243e+00 3.990702e+00
3.290029e-01 9.092255e-01 5.288262e+00
3.089717e-01 5.559171e-01 5.884493e+00
-1.438639e+00 -8.346824e-01 -5.755744e+00
-1.088512e+00 4.782987e-01 -5.909300e+00
-6.261767e-01 1.489609e+00 -4.965098e+00
-9.270267e-02 2.141250e+00 -3.182143e+00
4.359280e-01 2.405493e+00 -9.295724e-01
8.558570e-01 2.303237e+00 1.280697e+00
1.103263e+00 1.911199e+00 3.045443e+00
1.177431e+00 1.348155e+00 4.234861e+00
1.105856e+00 7.271401e-01 4.850680e+00
-2.672056e+00 -3.886644e-01 -4.254582e+00
-2.088179e+00 1.078976e+00 -4.625301e+00
-1.246741e+00 2.139905e+00 -4.085638e+00
-2.564856e-01 2.718004e+00 -2.848968e+00
7.361657e-01 2.812444e+00 -1.189229e+00
1.535299e+00 2.493172e+00 5.055977e-01
2.017150e+00 1.888525e+00 1.917549e+00
2.183974e+00 1.136597e+00 2.923093e+00
2.084652e+00 3.668169e-01 3.530606e+00
-3.782053e+00 5.202500e-01 -2.897373e+00
-3.023718e+00 1.873284e+00 -3.337299e+00
-1.881742e+00 2.704117e+00 -3.151374e+00
-5.114943e-01 2.951069e+00 -2.403828e+00
8.839000e-01 2.692390e+00 -1.286016e+00
2.030752e+00 2.076178e+00 -8.481499e-02
2.751707e+00 1.268420e+00 9.649259e-01
3.031300e+00 4.142815e-01 1.751294e+00
2.917178e+00 -3.970500e-01 2.245348e+00
-3.355770e+00 -1.029778e+00 -2.837876e+00
-2.783810e+00 -1.800095e+00 -3.000429e+00
-1.810043e+00 -2.143766e+00 -2.614412e+00
-5.988360e-01 -2.058264e+00 -1.784284e+00
6.494735e-01 -1.634928e+00 -7.002969e-01
1.686226e+00 -1.021734e+00 3.782822e-01
2.353329e+00 -3.583674e-01 1.255859e+00
2.640556e+00 2.637265e-01 1.863665e+00
2.591735e+00 7.940539e-01 2.195735e+00
-2.367717e+00 -1.827902e-01 -4.222401e+00
-1.900459e+00 -1.004075e+00 -4.306019e+00
-1.177316e+00 -1.530454e+00 -3.591797e+00
-3.040571e-01 -1.732447e+00 -2.283551e+00
5.771404e-01 -1.635713e+00 -6.603168e-01
1.287158e+00 -1.313295e+00 9.092815e-01
1.723225e+00 -8.612376e-01 2.151931e+00
1.886534e+00 -3.664910e-01 2.980189e+00
1.817039e+00 1.020507e-01 3.418244e+00
-1.175407e+00 2.300157e-01 -5.650264e+00
-9.170963e-01 -3.821830e-01 -5.588370e+00
-5.469324e-01 -8.303127e-01 -4.529999e+00
-1.089284e-01 -1.089938e+00 -2.725467e+00
3.255925e-01 -1.157615e+00 -5.411322e-01
6.687059e-01 -1.053271e+00 1.531906e+00
8.720467e-01 -8.222185e-01 3.137040e+00
9.370607e-01 -5.255523e-01 4.170313e+00
8.855766e-01 -2.178726e-01 4.652503e+00
-1.106261e-01 5.108215e-02 -6.718049e+00
-9.275343e-02 -2.068951e-02 -6.557238e+00
-5.900901e-02 -7.804908e-02 -5.251574e+00
-1.708404e-02 -1.188400e-01 -3.080985e+00
2.402612e-02 -1.401235e-01 -4.741287e-01
5.542083e-02 -1.389462e-01 1.986749e+00
7.304036e-02 -1.177778e-01 3.875559e+00
7.817597e-02 -8.431130e-02 5.067896e+00
7.327729e-02 -4.691109e-02 5.593114e+00
3.852077e-01 -5.776829e-01 -7.018345e+00
2.806333e-01 1.259284e-01 -6.917601e+00
1.504723e-01 6.826267e-01 -5.596734e+00
6.006728e-03 1.062100e+00 -3.346050e+00
-1.353850e-01 1.246764e+00 -6.076254e-01
-2.461966e-01 1.237498e+00 2.003184e+00
-3.081002e-01 1.069779e+00 4.025937e+00
-3.243105e-01 8.014647e-01 5.318248e+00
-3.006275e-01 4.889822e-01 5.906237e+00
6.317122e-02 -1.206466e+00 -6.407096e+00
4.312180e-02 2.513707e-01 -6.555601e+00
1.994865e-02 1.412168e+00 -5.494549e+00
-5.072136e-03 2.209553e+00 -3.497456e+00
-2.885559e-02 2.605907e+00 -9.758173e-01
-4.681449e-02 2.595314e+00 1.495977e+00
-5.632533e-02 2.247622e+00 3.470254e+00
-5.761433e-02 1.686057e+00 4.790833e+00
-5.173628e-02 1.029501e+00 5.467195e+00
-9.477343e-01 -1.381273e+00 -5.146885e+00
-7.156593e-01 5.569417e-01 -5.627843e+00
-4.115414e-01 2.077925e+00 -4.994349e+00
-5.845354e-02 3.087662e+00 -3.486631e+00
2.909288e-01 3.540506e+00 -1.444032e+00
5.676066e-01 3.447461e+00 6.527108e-01
7.318269e-01 2.911853e+00 2.410512e+00
7.803288e-01 2.105756e+00 3.673803e+00
7.301016e-01 1.195894e+00 4.424286e+00
-2.254653e+00 -9.463144e-01 -3.692828e+00
-1.746983e+00 1.105734e+00 -4.444740e+00
-1.024961e+00 2.660884e+00 -4.241083e+00
-1.851208e-01 3.593706e+00 -3.281717e+00
6.534857e-01 3.883039e+00 -1.814780e+00
1.323350e+00 3.587285e+00 -2.021811e-01
1.722327e+00 2.856086e+00 1.237106e+00
1.851157e+00 1.878998e+00 2.351557e+00
1.760194e+00 8.361380e-01 3.136049e+00
-3.541288e+00 -5.403284e-02 -2.455956e+00
-2.766038e+00 1.861350e+00 -3.267567e+00
-1.675749e+00 3.161949e+00 -3.415296e+00
-3.880023e-01 3.752490e+00 -2.921458e+00
9.066228e-01 3.687091e+00 -1.959336e+00
1.959101e+00 3.104730e+00 -8.028203e-01
2.603465e+00 2.189317e+00 3.014620e-01
2.830983e+00 1.125881e+00 1.216584e+00
2.672023e+00 4.977149e-02 1.871797e+00
-2.397064e+00 -1.199317e+00 -2.185174e+00
-2.076694e+00 -1.522089e+00 -2.205057e+00
-1.432843e+00 -1.530952e+00 -1.831286e+00
-5.890239e-01 -1.257203e+00 -1.157258e+00
3.100645e-01 -7.893883e-01 -3.257711e-01
1.080159e+00 -2.555213e-01 4.719807e-01
1.600244e+00 2.400031e-01 1.097717e+00
1.854489e+00 6.421118e-01 1.506666e+00