<?xml version="1.0"?>
<VTKFile type="StructuredGrid" version="0.1">
  <StructuredGrid WholeExtent="0 8 0 8 0 8">
    <Piece Extent="0 8 0 8 0 8">
      <PointData Scalars="temperature" Vectors="velocity">
        <DataArray type="Float32" Name="temperature" format="ascii">
1.000000e+00
8.682942e-01
7.435429e-01
6.192021e-01
4.946864e-01
3.699748e-01
2.451617e-01
1.206735e-01
0.000000e+00
1.000000e+00
8.683115e-01
7.435720e-01
6.192533e-01
4.947415e-01
3.700182e-01
2.451820e-01
1.206830e-01
0.000000e+00
1.000000e+00
8.685782e-01
7.440964e-01
6.202589e-01
4.962102e-01
3.708840e-01
2.455554e-01
1.208374e-01
0.000000e+00
1.000000e+00
8.691117e-01
7.451391e-01
6.222554e-01
4.991919e-01
3.726309e-01
2.463091e-01
1.211498e-01
0.000000e+00
1.000000e+00
8.698460e-01
7.465641e-01
6.249724e-01
5.033263e-01
3.750634e-01
2.473539e-01
1.215806e-01
0.000000e+00
1.000000e+00
8.706389e-01
7.480910e-01
6.278736e-01
5.078350e-01
3.777304e-01
2.484896e-01
1.220426e-01
0.000000e+00
1.000000e+00
8.713266e-01
7.494090e-01
6.303709e-01
5.118038e-01
3.800784e-01
2.494736e-01
1.224335e-01
0.000000e+00
1.000000e+00
8.717988e-01
7.502696e-01
6.320291e-01
5.145286e-01
3.816529e-01
2.500953e-01
1.226905e-01
0.000000e+00
1.000000e+00
8.707944e-01
7.495230e-01
6.316491e-01
5.145625e-01
3.810217e-01
2.491322e-01
1.216173e-01
0.000000e+00
1.000000e+00
8.681632e-01
7.432962e-01
6.187457e-01
4.940489e-01
3.696015e-01
2.450067e-01
1.206172e-01
0.000000e+00
1.000000e+00
8.681726e-01
7.433149e-01
6.187813e-01
4.940801e-01
3.696314e-01
2.450188e-01
1.206207e-01
0.000000e+00
1.000000e+00
8.684666e-01
7.438825e-01
6.198640e-01
4.956854e-01
3.705550e-01
2.454153e-01
1.207830e-01
0.000000e+00
1.000000e+00
8.690558e-01
7.450212e-01
6.220371e-01
4.989820e-01
3.724474e-01
2.462330e-01
1.211248e-01
0.000000e+00
1.000000e+00
8.698645e-01
7.465710e-01
6.249784e-01
5.035217e-01
3.750737e-01
2.473646e-01
1.215965e-01
0.000000e+00
1.000000e+00
8.707212e-01
7.481989e-01
6.280507e-01
5.083398e-01
3.778987e-01
2.485743e-01
1.220969e-01
0.000000e+00
1.000000e+00
8.714375e-01
7.495446e-01
6.305804e-01
5.123495e-01
3.802860e-01
2.495862e-01
1.225090e-01
0.000000e+00
1.000000e+00
8.718041e-01
7.502902e-01
6.320603e-01
5.147554e-01
3.817030e-01
2.501485e-01
1.227250e-01
0.000000e+00
1.000000e+00
8.719637e-01
7.505739e-01
6.325954e-01
5.154925e-01
3.821984e-01
2.503235e-01
1.227819e-01
0.000000e+00
1.000000e+00
8.677654e-01
7.425288e-01
6.173021e-01
4.919730e-01
3.684035e-01
2.444836e-01
1.203943e-01
0.000000e+00
1.000000e+00
8.677538e-01
7.425067e-01
6.172574e-01
4.918524e-01
3.683696e-01
2.444709e-01
1.203894e-01
0.000000e+00
1.000000e+00
8.680431e-01
7.430730e-01
6.183449e-01
4.934553e-01
3.692862e-01
2.448659e-01
1.205522e-01
0.000000e+00
1.000000e+00
8.686705e-01
7.442860e-01
6.206596e-01
4.969343e-01
3.712683e-01
2.457209e-01
1.209089e-01
0.000000e+00
1.000000e+00
8.695437e-01
7.459563e-01
6.238231e-01
5.017759e-01
3.740465e-01
2.469154e-01
1.214068e-01
0.000000e+00
1.000000e+00
8.704583e-01
7.476906e-01
6.270875e-01
5.068549e-01
3.770056e-01
2.481822e-01
1.219313e-01
0.000000e+00
1.000000e+00
8.711873e-01
7.490674e-01
6.296798e-01
5.109327e-01
3.794314e-01
2.492172e-01
1.223547e-01
0.000000e+00
1.000000e+00
8.715962e-01
7.498425e-01
6.311397e-01
5.132487e-01
3.808266e-01
2.498169e-01
1.226042e-01
0.000000e+00
1.000000e+00
8.716452e-01
7.500016e-01
6.314768e-01
5.135985e-01
3.811372e-01
2.499216e-01
1.226151e-01
0.000000e+00
1.000000e+00
8.671020e-01
7.412446e-01
6.148788e-01
4.884907e-01
3.664270e-01
2.436164e-01
1.200208e-01
0.000000e+00
1.000000e+00
8.670532e-01
7.411473e-01
6.146826e-01
4.880885e-01
3.662769e-01
2.435593e-01
1.200008e-01
0.000000e+00
1.000000e+00
8.673096e-01
7.416612e-01
6.156804e-01
4.895435e-01
3.671011e-01
2.439182e-01
1.201502e-01
0.000000e+00
1.000000e+00
8.679441e-01
7.428975e-01
6.180476e-01
4.930512e-01
3.690732e-01
2.447718e-01
1.205085e-01
0.000000e+00
1.000000e+00
8.688584e-01
7.446528e-01
6.213726e-01
4.980704e-01
3.719084e-01
2.459930e-01
1.210209e-01
0.000000e+00
1.000000e+00
8.698232e-01
7.464867e-01
6.248231e-01
5.033651e-01
3.749491e-01
2.472981e-01
1.215654e-01
0.000000e+00
1.000000e+00
8.705866e-01
7.479330e-01
6.275442e-01
5.075812e-01
3.774322e-01
2.483655e-01
1.220074e-01
0.000000e+00
1.000000e+00
8.709967e-01
7.487198e-01
6.290321e-01
5.099056e-01
3.788260e-01
2.489725e-01
1.222622e-01
0.000000e+00
1.000000e+00
8.710583e-01
7.488798e-01
6.293539e-01
5.101826e-01
3.791199e-01
2.490832e-01
1.222861e-01
0.000000e+00
1.000000e+00
8.662599e-01
7.396090e-01
6.117876e-01
4.840842e-01
3.639715e-01
2.425333e-01
1.195485e-01
0.000000e+00
1.000000e+00
8.661754e-01
7.394341e-01
6.114278e-01
4.833791e-01
3.637042e-01
2.424329e-01
1.195165e-01
0.000000e+00
1.000000e+00
8.663879e-01
7.398742e-01
6.122942e-01
4.846204e-01
3.644029e-01
2.427427e-01
1.196472e-01
0.000000e+00
1.000000e+00
8.670077e-01
7.410949e-01
6.146441e-01
4.880341e-01
3.662961e-01
2.435686e-01
1.199970e-01
0.000000e+00
1.000000e+00
8.679368e-01
7.428909e-01
6.180543e-01
4.930851e-01
3.690999e-01
2.447825e-01
1.205110e-01
0.000000e+00
1.000000e+00
8.689349e-01
7.447987e-01
6.216502e-01
4.985011e-01
3.721543e-01
2.460992e-01
1.210655e-01
0.000000e+00
1.000000e+00
8.697379e-01
7.463262e-01
6.245249e-01
5.028744e-01
3.746830e-01
2.471901e-01
1.215217e-01
0.000000e+00
1.000000e+00
8.701872e-01
7.471864e-01
6.261459e-01
5.053580e-01
3.761458e-01
2.478276e-01
1.217903e-01
0.000000e+00
1.000000e+00
8.702929e-01
7.474136e-01
6.265770e-01
5.058174e-01
3.765304e-01
2.479851e-01
1.218421e-01
0.000000e+00
1.000000e+00
8.653968e-01
7.379297e-01
6.086093e-01
4.795983e-01
3.615244e-01
2.414481e-01
1.190710e-01
0.000000e+00
1.000000e+00
8.653074e-01
7.377276e-01
6.081771e-01
4.787509e-01
3.612142e-01
2.413377e-01
1.190421e-01
0.000000e+00
1.000000e+00
8.654976e-01
7.381300e-01
6.089726e-01
4.798680e-01
3.618363e-01
2.416184e-01
1.191626e-01
0.000000e+00
1.000000e+00
8.661020e-01
7.393308e-01
6.112898e-01
4.831671e-01
3.636400e-01
2.424113e-01
1.195018e-01
0.000000e+00
1.000000e+00
8.670240e-01
7.411261e-01
6.147054e-01
4.881281e-01
3.663496e-01
2.435918e-01
1.200065e-01
0.000000e+00
1.000000e+00
8.680270e-01
7.430568e-01
6.183535e-01
4.935186e-01
3.693380e-01
2.448868e-01
1.205568e-01
0.000000e+00
1.000000e+00
8.688534e-01
7.446373e-01
6.213314e-01
4.979682e-01
3.718612e-01
2.459781e-01
1.210171e-01
0.000000e+00
1.000000e+00
8.693460e-01
7.455801e-01
6.231050e-01
5.006351e-01
3.734013e-01
2.466473e-01
1.212994e-01
0.000000e+00
1.000000e+00
8.695066e-01
7.458974e-01
6.236965e-01
5.013869e-01
3.739145e-01
2.468647e-01
1.213818e-01
0.000000e+00
1.000000e+00
8.646822e-01
7.365427e-01
6.059823e-01
4.759197e-01
3.595656e-01
2.405800e-01
1.186840e-01
0.000000e+00
1.000000e+00
8.646413e-01
7.364089e-01
6.056570e-01
4.752343e-01
3.593403e-01
2.405158e-01
1.186881e-01
0.000000e+00
1.000000e+00
8.648555e-01
7.368564e-01
6.065268e-01
4.764370e-01
3.599900e-01
2.408048e-01
1.188124e-01
0.000000e+00
1.000000e+00
8.654660e-01
7.380672e-01
6.088534e-01
4.796991e-01
3.617471e-01
2.415787e-01
1.191450e-01
0.000000e+00
1.000000e+00
8.663646e-01
7.398276e-01
6.122072e-01
4.844978e-01
3.643392e-01
2.427142e-01
1.196341e-01
0.000000e+00
1.000000e+00
8.673365e-01
7.417123e-01
6.157804e-01
4.896976e-01
3.671910e-01
2.439570e-01
1.201658e-01
0.000000e+00
1.000000e+00
8.681491e-01
7.432774e-01
6.187380e-01
4.940523e-01
3.696283e-01
2.450148e-01
1.206145e-01
0.000000e+00
1.000000e+00
8.686590e-01
7.442562e-01
6.205822e-01
4.967822e-01
3.711841e-01
2.456899e-01
1.208991e-01
0.000000e+00
1.000000e+00
8.688569e-01
7.446366e-01
6.212911e-01
4.977581e-01
3.717853e-01
2.459475e-01
1.210023e-01
0.000000e+00
1.000000e+00
8.642037e-01
7.356357e-01
6.043399e-01
4.736288e-01
3.583991e-01
2.400886e-01
1.185035e-01
0.000000e+00
1.000000e+00
8.642013e-01
7.356228e-01
6.042587e-01
4.733682e-01
3.583401e-01
2.400676e-01
1.184929e-01
0.000000e+00
1.000000e+00
8.645844e-01
7.362949e-01
6.054375e-01
4.749288e-01
3.591783e-01
2.404437e-01
1.186561e-01
0.000000e+00
1.000000e+00
8.652147e-01
7.375425e-01
6.078220e-01
4.782484e-01
3.609469e-01
2.412189e-01
1.189895e-01
0.000000e+00
1.000000e+00
8.660794e-01
7.392430e-01
6.110620e-01
4.828519e-01
3.634215e-01
2.423076e-01
1.194611e-01
0.000000e+00
1.000000e+00
8.669888e-01
7.410187e-01
6.144366e-01
4.877272e-01
3.660827e-01
2.434733e-01
1.199623e-01
0.000000e+00
1.000000e+00
8.677475e-01
7.424914e-01
6.172277e-01
4.918063e-01
3.683503e-01
2.444615e-01
1.203835e-01
0.000000e+00
1.000000e+00
8.682357e-01
7.434344e-01
6.190091e-01
4.944199e-01
3.698291e-01
2.451037e-01
1.206544e-01
0.000000e+00
1.000000e+00
8.684395e-01
7.438238e-01
6.197375e-01
4.954548e-01
3.704379e-01
2.453662e-01
1.207616e-01
0.000000e+00
1.000000e+00
8.627655e-01
7.341756e-01
6.026240e-01
4.718261e-01
3.570409e-01
2.388606e-01
1.173773e-01
0.000000e+00
1.000000e+00
8.641419e-01
7.355131e-01
6.041036e-01
4.732829e-01
3.582290e-01
2.400140e-01
1.184713e-01
0.000000e+00
1.000000e+00
8.645599e-01
7.363006e-01
6.055178e-01
4.752616e-01
3.592239e-01
2.404297e-01
1.186188e-01
0.000000e+00
1.000000e+00
8.652316e-01
7.376031e-01
6.079846e-01
4.787126e-01
3.610525e-01
2.412406e-01
1.189810e-01
0.000000e+00
1.000000e+00
8.660777e-01
7.392506e-01
6.111039e-01
4.831066e-01
3.634389e-01
2.422999e-01
1.194479e-01
0.000000e+00
1.000000e+00
8.669321e-01
7.409122e-01
6.142464e-01
4.875768e-01
3.659190e-01
2.433947e-01
1.199260e-01
0.000000e+00
1.000000e+00
8.676327e-01
7.422702e-01
6.168107e-01
4.912566e-01
3.679987e-01
2.443073e-01
1.203193e-01
0.000000e+00
1.000000e+00
8.680826e-01
7.431385e-01
6.184460e-01
4.936112e-01
3.693503e-01
2.448970e-01
1.205701e-01
0.000000e+00
1.000000e+00
8.682630e-01
7.434889e-01
6.191058e-01
4.945475e-01
3.698981e-01
2.451313e-01
1.206639e-01
0.000000e+00
        </DataArray>
        <DataArray type="Float32" Name="velocity" NumberOfComponents="3" format="ascii">
7.372374e-01 4.588881e-08 -3.621815e-02
7.228696e-01 9.810461e-08 -2.248527e-03
5.809877e-01 4.590164e-08 2.730907e-02
3.469946e-01 1.893920e-08 4.623882e-02
6.755233e-02 -3.215584e-09 5.537590e-02
-1.953654e-01 2.171238e-09 5.545957e-02
-3.965078e-01 -1.645918e-08 4.912865e-02
-5.229506e-01 -2.886351e-08 3.873655e-02
-5.804053e-01 -1.029541e-08 2.851348e-02
-8.846305e-01 6.165241e-08 -5.159158e-02
-8.620110e-01 9.625294e-08 -9.396776e-03
-6.910456e-01 1.342823e-08 2.818399e-02
-4.095436e-01 3.783262e-08 5.434500e-02
-7.346370e-02 6.282481e-09 6.866525e-02
2.433541e-01 -2.121065e-08 7.291011e-02
4.866812e-01 2.217333e-08 6.811389e-02
6.405274e-01 -1.921384e-08 5.639176e-02
7.115012e-01 2.901352e-08 4.149469e-02
-2.494059e+00 1.658641e-07 -4.417705e-01
-2.465693e+00 1.616612e-08 -1.860773e-01
-2.009510e+00 9.813489e-08 6.517870e-02
-1.227966e+00 7.318950e-09 2.744557e-01
-2.780335e-01 2.533862e-09 4.273260e-01
6.265044e-01 -7.204053e-09 5.081812e-01
1.327785e+00 -3.083458e-08 5.125463e-01
1.777120e+00 2.633043e-08 4.550601e-01
1.987672e+00 -1.096427e-07 3.520746e-01
-3.726739e+00 -5.005150e-08 -1.152321e+00
-3.805763e+00 2.144896e-07 -4.823091e-01
-3.214943e+00 9.019953e-09 1.713908e-01
-2.089152e+00 6.731653e-08 7.239966e-01
-6.639497e-01 -5.028414e-08 1.128599e+00
7.301065e-01 -9.115211e-08 1.340655e+00
1.839428e+00 -8.891760e-08 1.349053e+00
2.579155e+00 -2.309028e-07 1.190625e+00
2.953564e+00 -1.431806e-07 9.132528e-01
-4.255472e+00 2.340993e-07 -1.944311e+00
-4.615957e+00 -5.168189e-08 -7.451050e-01
-4.142362e+00 1.444503e-07 3.962357e-01
-2.949480e+00 -1.244411e-07 1.345568e+00
-1.312291e+00 -5.974064e-08 2.027876e+00
3.674593e-01 -1.022684e-07 2.365589e+00
1.773380e+00 -2.152921e-07 2.345893e+00
2.771397e+00 -1.280531e-07 2.040440e+00
3.342119e+00 -3.191454e-07 1.527003e+00
-3.954805e+00 -1.162607e-07 -2.464446e+00
-4.778292e+00 2.026203e-07 -7.749767e-01
-4.680412e+00 -1.786609e-08 7.702364e-01
-3.728527e+00 -1.705000e-09 2.019849e+00
-2.190021e+00 -2.322754e-07 2.875471e+00
-4.725204e-01 -1.237625e-07 3.252037e+00
1.074234e+00 -4.303624e-08 3.146397e+00
2.280183e+00 -1.507850e-07 2.664618e+00
3.071753e+00 8.874521e-09 1.914171e+00
-3.012385e+00 1.856745e-07 -2.445170e+00
-4.368252e+00 -3.444136e-08 -4.397888e-01
-4.814591e+00 2.394064e-07 1.291076e+00
-4.325691e+00 -1.200095e-07 2.609411e+00
-3.126485e+00 -6.229735e-08 3.438287e+00
-1.589226e+00 -1.061619e-07 3.707955e+00
-4.853798e-02 -1.547255e-07 3.449054e+00
1.278133e+00 3.935536e-08 2.790643e+00
2.277094e+00 -8.845300e-08 1.848330e+00
-1.748339e+00 -6.269519e-08 -1.796181e+00
-3.618578e+00 1.827447e-07 2.650235e-01
-4.616617e+00 -5.417664e-08 1.886963e+00
-4.648359e+00 2.047271e-07 3.014221e+00
-3.896788e+00 1.896397e-08 3.587367e+00
-2.652652e+00 -2.069601e-08 3.598320e+00
-1.224323e+00 9.268480e-09 3.130686e+00
1.510256e-01 -1.563508e-07 2.348258e+00
1.287325e+00 -4.696846e-08 1.322552e+00
-4.979642e-01 1.329707e-07 -6.356140e-01
-2.845363e+00 9.633545e-08 1.225645e+00
-4.229147e+00 1.521604e-07 2.513868e+00
-4.711199e+00 7.452351e-08 3.227742e+00
-4.361492e+00 1.292528e-07 3.358607e+00
-3.412318e+00 8.811929e-08 2.999479e+00
-2.137467e+00 3.917125e-08 2.296359e+00
-7.749828e-01 5.142949e-08 1.416418e+00
4.354041e-01 -1.307910e-08 5.557607e-01
7.407807e-01 1.613133e+00 1.376413e-01
7.216813e-01 1.580095e+00 7.914382e-02
5.759097e-01 1.267197e+00 1.294626e-02
3.391269e-01 7.523162e-01 -5.059848e-02
5.825517e-02 1.399418e-01 -1.034781e-01
-2.047508e-01 -4.348322e-01 -1.375943e-01
-4.049277e-01 -8.736528e-01 -1.484648e-01
-5.295670e-01 -1.149288e+00 -1.372035e-01
-5.846107e-01 -1.270846e+00 -1.083857e-01
-9.525846e-01 1.667077e+00 1.267136e-01
-9.253703e-01 1.632023e+00 7.311491e-02
-7.365926e-01 1.307788e+00 1.252298e-02
-4.302070e-01 7.748830e-01 -4.640161e-02
-6.720866e-02 1.414365e-01 -9.568826e-02
2.735928e-01 -4.531231e-01 -1.264441e-01
5.345213e-01 -9.077424e-01 -1.350307e-01
6.986254e-01 -1.193607e+00 -1.243336e-01
7.739300e-01 -1.320264e+00 -9.912215e-02
-2.629944e+00 1.739582e+00 -2.928923e-01
-2.594181e+00 1.682756e+00 -1.143810e-01
-2.101997e+00 1.326627e+00 5.438751e-02
-1.270188e+00 7.602203e-01 1.957626e-01
-2.641176e-01 9.617557e-02 2.968289e-01
6.916367e-01 -5.217706e-01 3.469964e-01
1.429921e+00 -9.905103e-01 3.463178e-01
1.901937e+00 -1.280752e+00 3.047604e-01
2.120462e+00 -1.405451e+00 2.358178e-01
-3.867528e+00 1.824470e+00 -1.053514e+00
-3.962156e+00 1.725698e+00 -4.233628e-01
-3.340756e+00 1.315399e+00 1.805049e-01
-2.163491e+00 7.005167e-01 6.949927e-01
-6.739737e-01 -4.470364e-04 1.069976e+00
7.841966e-01 -6.417204e-01 1.258048e+00
1.947042e+00 -1.118047e+00 1.254992e+00
2.723874e+00 -1.403496e+00 1.100786e+00
3.123015e+00 -1.521334e+00 8.448484e-01
-4.280445e+00 1.896025e+00 -1.856509e+00
-4.727806e+00 1.740458e+00 -6.705284e-01
-4.262480e+00 1.266447e+00 4.443194e-01
-3.059808e+00 6.014198e-01 1.378875e+00
-1.391827e+00 -1.317352e-01 2.042130e+00
3.380317e-01 -7.864526e-01 2.353724e+00
1.796236e+00 -1.259783e+00 2.311020e+00
2.850553e+00 -1.528889e+00 1.992687e+00
3.484565e+00 -1.633477e+00 1.499819e+00
-3.775383e+00 1.910198e+00 -2.287425e+00
-4.768753e+00 1.702608e+00 -6.308087e-01
-4.746609e+00 1.176603e+00 8.796328e-01
-3.859458e+00 4.800008e-01 2.094973e+00
-2.358076e+00 -2.629385e-01 2.910675e+00
-6.375826e-01 -9.105150e-01 3.236479e+00
9.468575e-01 -1.363545e+00 3.088894e+00
2.213318e+00 -1.606600e+00 2.585636e+00
3.115851e+00 -1.695248e+00 1.871844e+00
-2.610557e+00 1.845298e+00 -2.050807e+00
-4.214722e+00 1.594528e+00 -1.691590e-01
-4.786888e+00 1.049751e+00 1.464647e+00
-4.433781e+00 3.579303e-01 2.687516e+00
-3.347927e+00 -3.606270e-01 3.411262e+00
-1.863699e+00 -9.719447e-01 3.584075e+00
-3.222473e-01 -1.385320e+00 3.255828e+00
1.070335e+00 -1.592452e+00 2.578832e+00
2.217911e+00 -1.652059e+00 1.730342e+00
-1.254289e+00 1.671999e+00 -1.169448e+00
-3.355610e+00 1.435411e+00 6.754690e-01
-4.488222e+00 9.019708e-01 2.135697e+00
-4.695365e+00 2.527297e-01 3.074990e+00
-4.104879e+00 -4.064428e-01 3.459503e+00
-2.964881e+00 -9.537550e-01 3.313722e+00
-1.575789e+00 -1.309687e+00 2.752597e+00
-1.724521e-01 -1.469018e+00 1.938140e+00
1.126286e+00 -1.539349e+00 1.044344e+00
-7.809735e-02 1.629140e+00 1.531540e-01
-2.476146e+00 1.218536e+00 1.756391e+00
-4.030314e+00 7.426728e-01 2.844432e+00
-4.690088e+00 1.619165e-01 3.295717e+00
-4.531302e+00 -4.181019e-01 3.178174e+00
-3.732846e+00 -8.840265e-01 2.620950e+00
-2.542327e+00 -1.166252e+00 1.797015e+00
-1.205029e+00 -1.260782e+00 8.797415e-01
1.434075e-01 -1.112280e+00 2.412917e-02
7.513150e-01 3.098822e+00 6.712248e-01
7.175447e-01 3.089781e+00 3.167759e-01
5.596027e-01 2.533379e+00 -4.586623e-02
3.144106e-01 1.565340e+00 -3.640318e-01
2.929690e-02 3.868146e-01 -6.065618e-01
-2.336541e-01 -7.341264e-01 -7.416621e-01
-4.302388e-01 -1.604510e+00 -7.586405e-01
-5.490518e-01 -2.164238e+00 -6.788712e-01
-5.967999e-01 -2.427085e+00 -5.253121e-01
-1.035348e+00 3.191025e+00 6.912012e-01
-9.926689e-01 3.189770e+00 3.199742e-01
-7.724927e-01 2.618372e+00 -5.399177e-02
-4.301069e-01 1.620941e+00 -3.856165e-01
-3.288738e-02 4.041949e-01 -6.368599e-01
3.348297e-01 -7.567136e-01 -7.723120e-01
6.134727e-01 -1.659774e+00 -7.852056e-01
7.856729e-01 -2.245022e+00 -6.981516e-01
8.655334e-01 -2.525524e+00 -5.438954e-01
-2.821472e+00 3.342210e+00 2.681748e-01
-2.730621e+00 3.292906e+00 1.290034e-01
-2.162791e+00 2.659618e+00 -1.385590e-02
-1.246347e+00 1.594259e+00 -1.433429e-01
-1.607011e-01 3.125151e-01 -2.429262e-01
8.561925e-01 -9.001750e-01 -2.968570e-01
1.629042e+00 -1.833783e+00 -3.016689e-01
2.112859e+00 -2.429044e+00 -2.671684e-01
2.324087e+00 -2.699599e+00 -2.075185e-01
-4.127537e+00 3.543286e+00 -5.265000e-01
-4.138075e+00 3.383564e+00 -1.833821e-01
-3.412178e+00 2.635467e+00 1.281788e-01
-2.118423e+00 1.465327e+00 3.873307e-01
-5.188184e-01 9.857059e-02 5.709868e-01
1.022233e+00 -1.167505e+00 6.577946e-01
2.231809e+00 -2.118831e+00 6.475260e-01
3.020347e+00 -2.701236e+00 5.617185e-01
3.397414e+00 -2.939324e+00 4.273499e-01
-4.512663e+00 3.722857e+00 -1.352129e+00
-4.877496e+00 3.416332e+00 -4.121970e-01
-4.312018e+00 2.529041e+00 4.314663e-01
-2.997859e+00 1.246486e+00 1.122142e+00
-1.225448e+00 -1.957539e-01 1.596924e+00
5.822977e-01 -1.496969e+00 1.803265e+00
2.083316e+00 -2.439975e+00 1.743777e+00
3.146017e+00 -2.986713e+00 1.482961e+00
3.748164e+00 -3.174962e+00 1.099948e+00
-3.888432e+00 3.782989e+00 -1.735371e+00
-4.824368e+00 3.332751e+00 -3.092443e-01
-4.735079e+00 2.332079e+00 9.248122e-01
-3.774626e+00 9.807262e-01 1.884139e+00
-2.210015e+00 -4.875243e-01 2.491816e+00
-4.466679e-01 -1.774513e+00 2.691279e+00
1.159773e+00 -2.673853e+00 2.510131e+00
2.427002e+00 -3.158262e+00 2.053987e+00
3.289267e+00 -3.284339e+00 1.442931e+00
-2.598608e+00 3.636466e+00 -1.384633e+00
-4.157063e+00 3.101795e+00 2.501571e-01
-4.687672e+00 2.061134e+00 1.577270e+00
-4.306105e+00 7.186805e-01 2.507517e+00
-3.211694e+00 -6.938101e-01 2.981278e+00
-1.734674e+00 -1.901050e+00 2.990125e+00
-2.052871e-01 -2.711137e+00 2.601655e+00
1.171931e+00 -3.121082e+00 1.958507e+00
2.271178e+00 -3.190425e+00 1.206294e+00
-1.193775e+00 3.325529e+00 -3.727967e-01
-3.200962e+00 2.763724e+00 1.197325e+00
-4.294400e+00 1.742023e+00 2.322356e+00
-4.504420e+00 4.926719e-01 2.929621e+00
-3.950351e+00 -7.860904e-01 3.018788e+00
-2.866000e+00 -1.849140e+00 2.668171e+00
-1.530578e+00 -2.530733e+00 2.017024e+00
-1.690419e-01 -2.832088e+00 1.210911e+00
1.074859e+00 -2.856683e+00 3.829750e-01
-2.678125e-02 3.024031e+00 1.090893e+00
-2.265189e+00 2.331752e+00 2.364365e+00
-3.752753e+00 1.408984e+00 3.081715e+00
-4.397897e+00 3.207634e-01 3.163019e+00
-4.277601e+00 -7.777895e-01 2.710570e+00
-3.557813e+00 -1.666371e+00 1.918563e+00
-2.458798e+00 -2.209984e+00 9.845741e-01
-1.199578e+00 -2.390339e+00 7.110522e-02
7.553166e-02 -2.223693e+00 -7.112933e-01
7.634138e-01 4.099494e+00 1.455927e+00
7.062150e-01 4.253867e+00 6.267524e-01
5.299724e-01 3.640755e+00 -1.916736e-01
2.730307e-01 2.416308e+00 -8.939645e-01
-1.662024e-02 8.525349e-01 -1.411770e+00
-2.772984e-01 -6.822820e-01 -1.681572e+00
-4.664785e-01 -1.912684e+00 -1.690124e+00
-5.747897e-01 -2.746915e+00 -1.486548e+00
-6.105668e-01 -3.182179e+00 -1.129261e+00
-1.128264e+00 4.157781e+00 1.510074e+00
-1.060171e+00 4.359538e+00 6.330965e-01
-7.935514e-01 3.753099e+00 -2.224469e-01
-4.042063e-01 2.514745e+00 -9.614116e-01
3.208272e-02 9.186275e-01 -1.504022e+00
4.276563e-01 -6.593187e-01 -1.776814e+00
7.204961e-01 -1.936318e+00 -1.773465e+00
8.969919e-01 -2.812717e+00 -1.553229e+00
9.814050e-01 -3.292444e+00 -1.189240e+00
-3.050487e+00 4.345034e+00 1.100192e+00
-2.857258e+00 4.484432e+00 4.324753e-01
-2.171715e+00 3.802032e+00 -2.004261e-01
-1.141325e+00 2.478084e+00 -7.426906e-01
3.864875e-02 7.981300e-01 -1.136176e+00
1.114965e+00 -8.467136e-01 -1.327567e+00
1.910270e+00 -2.164920e+00 -1.313352e+00
2.387092e+00 -3.055244e+00 -1.140704e+00
2.573035e+00 -3.515460e+00 -8.673859e-01
-4.476989e+00 4.651105e+00 2.926563e-01
-4.306114e+00 4.609496e+00 1.131435e-01
-3.392955e+00 3.751003e+00 -5.870361e-02
-1.924810e+00 2.269768e+00 -2.064406e-01
-1.862794e-01 4.655214e-01 -3.132693e-01
1.437731e+00 -1.255053e+00 -3.632685e-01
2.668812e+00 -2.592081e+00 -3.554784e-01
3.430767e+00 -3.453106e+00 -3.043122e-01
3.749224e+00 -3.852027e+00 -2.265465e-01
-4.914410e+00 4.969859e+00 -5.463924e-01
-5.038757e+00 4.663623e+00 -1.067673e-01
-4.240710e+00 3.574413e+00 2.693404e-01
-2.719957e+00 1.912132e+00 5.600332e-01
-7.903934e-01 -1.351423e-02 7.454987e-01
1.101245e+00 -1.784700e+00 8.098280e-01
2.610447e+00 -3.103195e+00 7.607397e-01
3.619190e+00 -3.891681e+00 6.306939e-01
4.129040e+00 -4.188406e+00 4.531804e-01
-4.263489e+00 5.110665e+00 -9.161801e-01
-4.929719e+00 4.551267e+00 3.212779e-02
-4.590830e+00 3.266705e+00 8.087682e-01
-3.422090e+00 1.481532e+00 1.367643e+00
-1.713090e+00 -4.932018e-01 1.676491e+00
1.139021e-01 -2.245723e+00 1.719645e+00
1.701834e+00 -3.490504e+00 1.533726e+00
2.888619e+00 -4.173550e+00 1.195522e+00
3.635103e+00 -4.355756e+00 7.819718e-01
-2.923485e+00 4.944705e+00 -5.253823e-01
-4.182772e+00 4.221673e+00 6.469541e-01
-4.457841e+00 2.851664e+00 1.522444e+00
-3.882099e+00 1.066529e+00 2.044519e+00
-2.670862e+00 -8.345728e-01 2.203733e+00
-1.163670e+00 -2.468189e+00 2.034987e+00
3.162872e-01 -3.577040e+00 1.621363e+00
1.582015e+00 -4.130342e+00 1.078242e+00
2.543112e+00 -4.205147e+00 5.090862e-01
-1.475415e+00 4.478877e+00 5.315165e-01
-3.157416e+00 3.714566e+00 1.649242e+00
-3.980618e+00 2.374149e+00 2.325425e+00
-4.002164e+00 7.203359e-01 2.522465e+00
-3.353529e+00 -9.843719e-01 2.285350e+00
-2.267295e+00 -2.406643e+00 1.741129e+00
-1.010810e+00 -3.328584e+00 1.044216e+00
2.169930e-01 -3.734449e+00 3.222829e-01
1.309990e+00 -3.737302e+00 -3.293031e-01
-3.301034e-01 3.892665e+00 1.963485e+00
-2.178409e+00 3.072377e+00 2.838109e+00
-3.360749e+00 1.884242e+00 3.122304e+00
-3.806657e+00 4.686368e-01 2.807218e+00
-3.592984e+00 -9.624874e-01 2.036290e+00
-2.887010e+00 -2.133165e+00 1.045656e+00
-1.891027e+00 -2.859089e+00 5.602191e-02
-7.915283e-01 -3.128684e+00 -7.999502e-01
2.851224e-01 -2.979966e+00 -1.441540e+00
7.639907e-01 4.335403e+00 2.209362e+00
6.802209e-01 4.841386e+00 8.329041e-01
4.857747e-01 4.440802e+00 -4.767213e-01
2.199464e-01 3.257440e+00 -1.566307e+00
-6.959855e-02 1.591734e+00 -2.340262e+00
-3.225868e-01 -1.345760e-01 -2.707528e+00
-4.993871e-01 -1.603503e+00 -2.662782e+00
-5.935338e-01 -2.674166e+00 -2.294466e+00
-6.145152e-01 -3.314587e+00 -1.687651e+00
-1.215837e+00 4.247629e+00 2.236718e+00
-1.112879e+00 4.883829e+00 8.044443e-01
-7.928357e-01 4.541310e+00 -5.486136e-01
-3.545867e-01 3.398052e+00 -1.681692e+00
1.184886e-01 1.744172e+00 -2.476877e+00
5.352546e-01 -5.120599e-03 -2.836814e+00
8.358144e-01 -1.515855e+00 -2.767244e+00
1.008748e+00 -2.651131e+00 -2.370343e+00
1.093161e+00 -3.383245e+00 -1.771386e+00
-3.250750e+00 4.384880e+00 1.811416e+00
-2.930966e+00 4.969515e+00 5.661068e-01
-2.112893e+00 4.563956e+00 -5.659550e-01
-9.672027e-01 3.348758e+00 -1.496701e+00
2.934753e-01 1.624524e+00 -2.133743e+00
1.408874e+00 -1.812644e-01 -2.403210e+00
2.201586e+00 -1.727780e+00 -2.314265e+00
2.652716e+00 -2.874310e+00 -1.958621e+00
2.801333e+00 -3.579949e+00 -1.444343e+00
-4.802456e+00 4.742645e+00 9.931816e-01
-4.390204e+00 5.089083e+00 2.279330e-01
-3.255920e+00 4.463327e+00 -4.445829e-01
-1.607040e+00 3.059816e+00 -9.765106e-01
2.526648e-01 1.194420e+00 -1.322734e+00
1.923859e+00 -6.876164e-01 -1.446187e+00
3.135715e+00 -2.240884e+00 -1.359472e+00
3.830636e+00 -3.333492e+00 -1.123228e+00
4.058345e+00 -3.947965e+00 -8.015363e-01
-5.334211e+00 5.184725e+00 1.553738e-01
-5.115179e+00 5.156564e+00 1.217923e-02
-4.016681e+00 4.211083e+00 -1.106507e-01
-2.259666e+00 2.561100e+00 -2.043152e-01
-1.818665e-01 5.380055e-01 -2.609074e-01
1.756274e+00 -1.401501e+00 -2.741277e-01
3.218816e+00 -2.913887e+00 -2.474578e-01
4.120050e+00 -3.896109e+00 -1.936864e-01
4.488257e+00 -4.357562e+00 -1.273689e-01
-4.741686e+00 5.455522e+00 -2.072709e-01
-4.978232e+00 5.042351e+00 1.743820e-01
-4.278306e+00 3.802836e+00 4.593219e-01
-2.837936e+00 1.963103e+00 6.344569e-01
-9.669381e-01 -1.436911e-01 6.947466e-01
8.960969e-01 -2.063613e+00 6.505925e-01
2.409572e+00 -3.473660e+00 5.305739e-01
3.446090e+00 -4.297709e+00 3.671082e-01
4.001143e+00 -4.580861e+00 1.918683e-01
-3.416929e+00 5.333891e+00 1.772137e-01
-4.193119e+00 4.663166e+00 8.165266e-01
-4.068786e+00 3.270931e+00 1.219548e+00
-3.200253e+00 1.392712e+00 1.367191e+00
-1.823751e+00 -6.485835e-01 1.277365e+00
-2.912590e-01 -2.433932e+00 1.013415e+00
1.090120e+00 -3.671647e+00 6.537720e-01
2.176143e+00 -4.321247e+00 2.730423e-01
2.912038e+00 -4.450151e+00 -7.146227e-02
-1.971141e+00 4.806647e+00 1.183701e+00
-3.134860e+00 4.046576e+00 1.827194e+00
-3.532405e+00 2.668684e+00 2.070574e+00
-3.249388e+00 9.264397e-01 1.919046e+00
-2.434063e+00 -8.950005e-01 1.448578e+00
-1.331676e+00 -2.434154e+00 8.110631e-01
-1.893151e-01 -3.450600e+00 1.581172e-01
8.377142e-01 -3.921793e+00 -4.213846e-01
1.678019e+00 -3.942904e+00 -8.676752e-01
-8.226378e-01 4.050087e+00 2.510375e+00
-2.129875e+00 3.267325e+00 2.987877e+00
-2.872011e+00 2.056991e+00 2.901466e+00
-3.007154e+00 5.919945e-01 2.290807e+00
-2.631955e+00 -9.075964e-01 1.323093e+00
-1.917027e+00 -2.147108e+00 2.549803e-01
-1.043223e+00 -2.934453e+00 -6.998673e-01
-1.572341e-01 -3.251339e+00 -1.433718e+00
6.582168e-01 -3.150476e+00 -1.910802e+00
7.385678e-01 3.759970e+00 2.574439e+00
6.329035e-01 4.789158e+00 7.360333e-01
4.285304e-01 4.850953e+00 -9.278115e-01
1.635344e-01 4.007091e+00 -2.254894e+00
-1.158391e-01 2.539385e+00 -3.134691e+00
-3.530431e-01 8.578629e-01 -3.484099e+00
-5.123792e-01 -6.965180e-01 -3.319440e+00
-5.903027e-01 -1.953597e+00 -2.764849e+00
-5.970646e-01 -2.819675e+00 -1.928500e+00
-1.269446e+00 3.460337e+00 2.459599e+00
-1.132958e+00 4.703816e+00 6.118095e-01
-7.665476e-01 4.893000e+00 -1.062792e+00
-2.910379e-01 4.166300e+00 -2.390456e+00
2.045113e-01 2.779328e+00 -3.251219e+00
6.295745e-01 1.122530e+00 -3.557490e+00
9.256382e-01 -4.604573e-01 -3.348575e+00
1.088514e+00 -1.783479e+00 -2.764428e+00
1.169806e+00 -2.788551e+00 -1.968935e+00
-3.337481e+00 3.481574e+00 1.941494e+00
-2.898173e+00 4.694164e+00 2.898862e-01
-1.976410e+00 4.849366e+00 -1.134512e+00
-7.601194e-01 4.086666e+00 -2.227227e+00
5.326047e-01 2.670523e+00 -2.896238e+00
1.640486e+00 9.935810e-01 -3.084802e+00
2.399481e+00 -6.029381e-01 -2.840950e+00
2.801262e+00 -1.929605e+00 -2.295344e+00
2.901622e+00 -2.899102e+00 -1.585364e+00
-4.926519e+00 3.829820e+00 1.094452e+00
-4.299163e+00 4.766290e+00 -8.436423e-02
-2.993920e+00 4.675006e+00 -1.047680e+00
-1.236059e+00 3.714747e+00 -1.733852e+00
6.618174e-01 2.166196e+00 -2.100919e+00
2.305511e+00 4.331713e-01 -2.132326e+00
3.443453e+00 -1.141697e+00 -1.879969e+00
4.044316e+00 -2.386883e+00 -1.444452e+00
4.176080e+00 -3.241713e+00 -9.236067e-01
-5.528791e+00 4.365006e+00 2.871570e-01
-4.980114e+00 4.829931e+00 -2.920437e-01
-3.631893e+00 4.345159e+00 -7.229073e-01
-1.720199e+00 3.090041e+00 -9.856099e-01
4.098920e-01 1.360555e+00 -1.073704e+00
2.302831e+00 -4.243173e-01 -1.000579e+00
3.652567e+00 -1.932814e+00 -8.078665e-01
4.403580e+00 -3.025564e+00 -5.480852e-01
4.614734e+00 -3.677868e+00 -2.729514e-01
-5.021629e+00 4.767669e+00 -3.363063e-02
-4.824632e+00 4.733129e+00 -1.004319e-01
-3.796367e+00 3.860829e+00 -1.387073e-01
-2.148387e+00 2.346710e+00 -1.496745e-01
-2.011752e-01 4.952395e-01 -1.373999e-01
1.613156e+00 -1.276701e+00 -1.076854e-01
2.983733e+00 -2.659108e+00 -6.777212e-02
3.826947e+00 -3.554265e+00 -2.541840e-02
4.172104e+00 -3.975337e+00 1.259981e-02
-3.780945e+00 4.761820e+00 3.512402e-01
-4.040118e+00 4.361711e+00 5.636962e-01
-3.524356e+00 3.252876e+00 6.528532e-01
-2.400889e+00 1.640768e+00 6.151249e-01
-9.188395e-01 -1.816360e-01 4.737826e-01
5.721687e-01 -1.825663e+00 2.767567e-01
1.798162e+00 -3.019045e+00 7.041680e-02
2.656608e+00 -3.702115e+00 -1.116506e-01
3.138303e+00 -3.919191e+00 -2.506457e-01
-2.378345e+00 4.286394e+00 1.305196e+00
-2.991036e+00 3.723562e+00 1.572794e+00
-2.961347e+00 2.579127e+00 1.540640e+00
-2.391815e+00 1.067149e+00 1.232384e+00
-1.448108e+00 -5.545677e-01 7.280300e-01
-3.751002e-01 -1.955817e+00 1.641619e-01
6.102020e-01 -2.914858e+00 -3.422620e-01
1.398969e+00 -3.399271e+00 -7.344978e-01
1.961604e+00 -3.474834e+00 -9.894973e-01
-1.232624e+00 3.495582e+00 2.517810e+00
-1.991315e+00 2.906672e+00 2.705335e+00
-2.290771e+00 1.904817e+00 2.406165e+00
-2.135753e+00 6.552002e-01 1.695022e+00
-1.629255e+00 -6.454135e-01 7.325307e-01
-9.381116e-01 -1.740871e+00 -2.478968e-01
-2.169619e-01 -2.458063e+00 -1.060340e+00
4.373931e-01 -2.777924e+00 -1.633063e+00
9.776716e-01 -2.749013e+00 -1.955885e+00
6.805274e-01 2.623966e+00 2.322015e+00
5.633333e-01 4.222453e+00 2.251251e-01
3.623465e-01 4.885906e+00 -1.540359e+00
1.123992e-01 4.574282e+00 -2.838233e+00
-1.444219e-01 3.512353e+00 -3.593999e+00
-3.570356e-01 2.061004e+00 -3.761815e+00
-4.951702e-01 5.408539e-01 -3.409494e+00
-5.570427e-01 -8.181760e-01 -2.676672e+00
-5.522990e-01 -1.886038e+00 -1.665901e+00
-1.275771e+00 2.124740e+00 1.938702e+00
-1.104283e+00 4.002923e+00 -5.344016e-02