<?xml version="1.0"?>
<VTKFile type="StructuredGrid" version="0.1">
  <StructuredGrid WholeExtent="0 8 0 8 0 8">
    <Piece Extent="0 8 0 8 0 8">
      <PointData Scalars="temperature" Vectors="velocity">
        <DataArray type="Float32" Name="temperature" format="ascii">
1.000000e+00
8.682942e-01
7.435429e-01
6.192021e-01
4.946864e-01
3.699748e-01
2.451617e-01
1.206735e-01
0.000000e+00
1.000000e+00
8.685226e-01
7.439814e-01
6.200338e-01
4.958909e-01
3.706895e-01
2.454739e-01
1.208054e-01
0.000000e+00
1.000000e+00
8.689882e-01
7.448878e-01
6.217667e-01
4.984722e-01
3.721995e-01
2.461263e-01
1.210765e-01
0.000000e+00
1.000000e+00
8.696728e-01
7.462138e-01
6.242940e-01
5.022999e-01
3.744485e-01
2.470946e-01
1.214771e-01
0.000000e+00
1.000000e+00
8.704703e-01
7.477482e-01
6.272053e-01
5.067968e-01
3.771083e-01
2.482325e-01
1.219439e-01
0.000000e+00
1.000000e+00
8.712188e-01
7.491795e-01
6.299128e-01
5.110722e-01
3.796475e-01
2.493074e-01
1.223774e-01
0.000000e+00
1.000000e+00
8.717641e-01
7.502210e-01
6.318837e-01
5.142601e-01
3.815277e-01
2.500860e-01
1.226812e-01
0.000000e+00
1.000000e+00
8.720240e-01
7.506841e-01
6.327993e-01
5.158390e-01
3.823943e-01
2.504049e-01
1.228140e-01
0.000000e+00
1.000000e+00
8.707939e-01
7.495220e-01
6.316469e-01
5.145590e-01
3.810196e-01
2.491313e-01
1.216169e-01
0.000000e+00
1.000000e+00
8.681632e-01
7.432962e-01
6.187457e-01
4.940489e-01
3.696015e-01
2.450067e-01
1.206172e-01
0.000000e+00
1.000000e+00
8.683955e-01
7.437406e-01
6.195871e-01
4.952667e-01
3.703162e-01
2.453132e-01
1.207406e-01
0.000000e+00
1.000000e+00
8.688889e-01
7.446951e-01
6.214106e-01
4.980158e-01
3.718964e-01
2.459956e-01
1.210249e-01
0.000000e+00
1.000000e+00
8.696263e-01
7.461116e-01
6.241043e-01
5.021482e-01
3.742842e-01
2.470248e-01
1.214539e-01
0.000000e+00
1.000000e+00
8.704843e-01
7.477445e-01
6.271893e-01
5.069648e-01
3.770966e-01
2.482319e-01
1.219541e-01
0.000000e+00
1.000000e+00
8.712710e-01
7.492302e-01
6.299805e-01
5.113865e-01
3.797150e-01
2.493483e-01
1.224127e-01
0.000000e+00
1.000000e+00
8.718139e-01
7.502442e-01
6.318818e-01
5.144158e-01
3.815355e-01
2.501148e-01
1.227217e-01
0.000000e+00
1.000000e+00
8.719455e-01
7.505491e-01
6.325370e-01
5.154980e-01
3.821613e-01
2.503398e-01
1.227992e-01
0.000000e+00
1.000000e+00
8.718504e-01
7.503651e-01
6.322072e-01
5.148322e-01
3.818246e-01
2.501674e-01
1.227195e-01
0.000000e+00
1.000000e+00
8.677654e-01
7.425288e-01
6.173021e-01
4.919730e-01
3.684035e-01
2.444836e-01
1.203943e-01
0.000000e+00
1.000000e+00
8.679782e-01
7.429369e-01
6.180718e-01
4.930398e-01
3.690503e-01
2.447638e-01
1.205095e-01
0.000000e+00
1.000000e+00
8.684702e-01
7.438932e-01
6.199032e-01
4.957805e-01
3.706122e-01
2.454379e-01
1.207900e-01
0.000000e+00
1.000000e+00
8.692393e-01
7.453717e-01
6.227152e-01
5.000562e-01
3.730622e-01
2.464918e-01
1.212288e-01
0.000000e+00
1.000000e+00
8.701442e-01
7.470923e-01
6.259609e-01
5.050814e-01
3.759708e-01
2.477379e-01
1.217453e-01
0.000000e+00
1.000000e+00
8.709616e-01
7.486344e-01
6.288521e-01
5.096222e-01
3.786414e-01
2.488772e-01
1.222141e-01
0.000000e+00
1.000000e+00
8.714887e-01
7.496277e-01
6.307201e-01
5.125702e-01
3.804132e-01
2.496313e-01
1.225202e-01
0.000000e+00
1.000000e+00
8.716432e-01
7.499252e-01
6.312849e-01
5.134543e-01
3.809557e-01
2.498679e-01
1.226204e-01
0.000000e+00
1.000000e+00
8.714258e-01
7.495942e-01
6.307175e-01
5.123659e-01
3.804099e-01
2.496143e-01
1.224907e-01
0.000000e+00
1.000000e+00
8.671020e-01
7.412446e-01
6.148788e-01
4.884907e-01
3.664270e-01
2.436164e-01
1.200208e-01
0.000000e+00
1.000000e+00
8.672726e-01
7.415695e-01
6.154822e-01
4.892373e-01
3.669261e-01
2.438388e-01
1.201159e-01
0.000000e+00
1.000000e+00
8.677249e-01
7.424621e-01
6.172028e-01
4.917818e-01
3.683575e-01
2.444603e-01
1.203765e-01
0.000000e+00
1.000000e+00
8.684904e-01
7.439444e-01
6.200316e-01
4.960201e-01
3.707521e-01
2.454935e-01
1.208093e-01
0.000000e+00
1.000000e+00
8.694205e-01
7.457206e-01
6.233851e-01
5.011360e-01
3.736662e-01
2.467442e-01
1.213315e-01
0.000000e+00
1.000000e+00
8.702700e-01
7.473285e-01
6.264002e-01
5.057983e-01
3.763683e-01
2.479008e-01
1.218115e-01
0.000000e+00
1.000000e+00
8.708177e-01
7.483641e-01
6.283452e-01
5.088128e-01
3.781636e-01
2.486728e-01
1.221298e-01
0.000000e+00
1.000000e+00
8.709693e-01
7.486626e-01
6.289151e-01
5.096824e-01
3.787020e-01
2.489146e-01
1.222336e-01
0.000000e+00
1.000000e+00
8.707679e-01
7.483346e-01
6.283319e-01
5.085607e-01
3.781596e-01
2.486735e-01
1.221183e-01
0.000000e+00
1.000000e+00
8.662599e-01
7.396090e-01
6.117876e-01
4.840842e-01
3.639715e-01
2.425333e-01
1.195485e-01
0.000000e+00
1.000000e+00
8.663823e-01
7.398346e-01
6.121875e-01
4.844512e-01
3.642997e-01
2.426898e-01
1.196228e-01
0.000000e+00
1.000000e+00
8.667765e-01
7.406289e-01
6.137320e-01
4.866948e-01
3.655465e-01
2.432378e-01
1.198552e-01
0.000000e+00
1.000000e+00
8.675133e-01
7.420711e-01
6.164991e-01
4.907560e-01
3.678076e-01
2.442207e-01
1.202706e-01
0.000000e+00
1.000000e+00
8.684474e-01
7.438686e-01
6.199027e-01
4.958437e-01
3.706539e-01
2.454489e-01
1.207886e-01
0.000000e+00
1.000000e+00
8.693260e-01
7.455414e-01
6.230462e-01
5.006083e-01
3.733632e-01
2.466141e-01
1.212772e-01
0.000000e+00
1.000000e+00
8.699176e-01
7.466636e-01
6.251520e-01
5.038102e-01
3.752308e-01
2.474201e-01
1.216134e-01
0.000000e+00
1.000000e+00
8.701212e-01
7.470555e-01
6.258879e-01
5.049135e-01
3.758944e-01
2.477147e-01
1.217390e-01
0.000000e+00
1.000000e+00
8.699805e-01
7.468209e-01
6.254590e-01
5.040805e-01
3.755073e-01
2.475454e-01
1.216602e-01
0.000000e+00
1.000000e+00
8.653968e-01
7.379297e-01
6.086093e-01
4.795983e-01
3.615244e-01
2.414481e-01
1.190710e-01
0.000000e+00
1.000000e+00
8.654959e-01
7.380949e-01
6.088748e-01
4.797187e-01
3.617424e-01
2.415663e-01
1.191370e-01
0.000000e+00
1.000000e+00
8.658490e-01
7.388177e-01
6.102850e-01
4.817258e-01
3.628435e-01
2.420565e-01
1.193478e-01
0.000000e+00
1.000000e+00
8.665559e-01
7.402145e-01
6.129731e-01
4.855878e-01
3.649623e-01
2.429849e-01
1.197444e-01
0.000000e+00
1.000000e+00
8.674794e-01
7.420057e-01
6.163732e-01
4.905656e-01
3.677006e-01
2.441745e-01
1.202513e-01
0.000000e+00
1.000000e+00
8.683732e-01
7.437202e-01
6.196043e-01
4.953668e-01
3.703811e-01
2.453335e-01
1.207423e-01
0.000000e+00
1.000000e+00
8.690099e-01
7.449339e-01
6.218835e-01
4.987737e-01
3.723244e-01
2.461735e-01
1.210959e-01
0.000000e+00
1.000000e+00
8.692840e-01
7.454565e-01
6.228591e-01
5.002191e-01
3.731678e-01
2.465422e-01
1.212519e-01
0.000000e+00
1.000000e+00
8.692261e-01
7.453600e-01
6.226769e-01
4.998332e-01
3.730062e-01
2.464722e-01
1.212183e-01
0.000000e+00
1.000000e+00
8.646822e-01
7.365427e-01
6.059823e-01
4.759197e-01
3.595656e-01
2.405800e-01
1.186840e-01
0.000000e+00
1.000000e+00
8.648087e-01
7.367367e-01
6.062791e-01
4.760858e-01
3.597981e-01
2.407146e-01
1.187708e-01
0.000000e+00
1.000000e+00
8.651654e-01
7.374664e-01
6.076910e-01
4.780606e-01
3.608597e-01
2.411849e-01
1.189739e-01
0.000000e+00
1.000000e+00
8.658655e-01
7.388504e-01
6.103466e-01
4.818132e-01
3.628893e-01
2.420770e-01
1.193570e-01
0.000000e+00
1.000000e+00
8.667685e-01
7.406139e-01
6.137015e-01
4.866471e-01
3.655175e-01
2.432258e-01
1.198507e-01
0.000000e+00
1.000000e+00
8.676526e-01
7.423232e-01
6.169364e-01
4.913806e-01
3.681297e-01
2.443620e-01
1.203356e-01
0.000000e+00
1.000000e+00
8.683096e-01
7.435848e-01
6.193142e-01
4.948881e-01
3.701018e-01
2.452169e-01
1.206977e-01
0.000000e+00
1.000000e+00
8.686377e-01
7.442114e-01
6.204874e-01
4.966091e-01
3.710891e-01
2.456456e-01
1.208782e-01
0.000000e+00
1.000000e+00
8.686519e-01
7.442412e-01
6.205380e-01
4.966292e-01
3.711293e-01
2.456632e-01
1.208835e-01
0.000000e+00
1.000000e+00
8.642037e-01
7.356357e-01
6.043399e-01
4.736288e-01
3.583991e-01
2.400886e-01
1.185035e-01
0.000000e+00
1.000000e+00
8.643476e-01
7.359103e-01
6.048058e-01
4.741051e-01
3.587371e-01
2.402402e-01
1.185651e-01
0.000000e+00
1.000000e+00
8.648543e-01
7.368277e-01
6.064543e-01
4.763308e-01
3.599283e-01
2.407725e-01
1.187965e-01
0.000000e+00
1.000000e+00
8.655636e-01
7.382297e-01
6.091328e-01
4.800861e-01
3.619380e-01
2.416534e-01
1.191756e-01
0.000000e+00
1.000000e+00
8.664395e-01
7.399484e-01
6.124048e-01
4.847672e-01
3.644683e-01
2.427649e-01
1.196563e-01
0.000000e+00
1.000000e+00
8.672872e-01
7.416001e-01
6.155406e-01
4.893257e-01
3.669695e-01
2.438589e-01
1.201258e-01
0.000000e+00
1.000000e+00
8.679291e-01
7.428434e-01
6.178934e-01
4.927776e-01
3.688957e-01
2.446972e-01
1.204826e-01
0.000000e+00
1.000000e+00
8.682761e-01
7.435109e-01
6.191493e-01
4.946134e-01
3.699395e-01
2.451501e-01
1.206730e-01
0.000000e+00
1.000000e+00
8.683336e-01
7.436197e-01
6.193491e-01
4.948837e-01
3.701048e-01
2.452220e-01
1.207019e-01
0.000000e+00
1.000000e+00
8.627655e-01
7.341756e-01
6.026240e-01
4.718261e-01
3.570409e-01
2.388606e-01
1.173773e-01
0.000000e+00
1.000000e+00
8.642590e-01
7.357441e-01
6.045478e-01
4.739332e-01
3.585484e-01
2.401536e-01
1.185311e-01
0.000000e+00
1.000000e+00
8.647876e-01
7.367500e-01
6.063785e-01
4.764810e-01
3.598576e-01
2.407079e-01
1.187390e-01
0.000000e+00
1.000000e+00
8.655333e-01
7.381980e-01
6.091209e-01
4.803239e-01
3.619123e-01
2.416183e-01
1.191442e-01
0.000000e+00
1.000000e+00
8.664020e-01
7.398872e-01
6.123166e-01
4.848406e-01
3.643855e-01
2.427144e-01
1.196261e-01
0.000000e+00
1.000000e+00
8.672234e-01
7.414806e-01
6.153262e-01
4.891362e-01
3.667875e-01
2.437733e-01
1.200874e-01
0.000000e+00
1.000000e+00
8.678460e-01
7.426840e-01
6.175946e-01
4.923964e-01
3.686437e-01
2.445873e-01
1.204375e-01
0.000000e+00
1.000000e+00
8.681937e-01
7.433525e-01
6.188490e-01
4.941940e-01
3.696855e-01
2.450416e-01
1.206301e-01
0.000000e+00
1.000000e+00
8.682640e-01
7.434908e-01
6.191092e-01
4.945524e-01
3.699008e-01
2.451325e-01
1.206644e-01
0.000000e+00
        </DataArray>
        <DataArray type="Float32" Name="velocity" NumberOfComponents="3" format="ascii">
7.372374e-01 4.588882e-08 -3.621815e-02
7.228696e-01 9.810461e-08 -2.248527e-03
5.809877e-01 4.590165e-08 2.730907e-02
3.469946e-01 1.893920e-08 4.623882e-02
6.755233e-02 -3.215588e-09 5.537590e-02
-1.953654e-01 2.171233e-09 5.545957e-02
-3.965078e-01 -1.645918e-08 4.912865e-02
-5.229506e-01 -2.886353e-08 3.873655e-02
-5.804053e-01 -1.029541e-08 2.851348e-02
2.253633e+00 1.396521e-07 -3.554368e-01
2.226988e+00 6.969341e-08 -1.486621e-01
1.811805e+00 9.974591e-08 5.524409e-02
1.105301e+00 -7.217898e-09 2.254335e-01
2.502967e-01 1.631429e-08 3.478968e-01
-5.621663e-01 -1.050245e-08 4.111001e-01
-1.190372e+00 -6.700172e-09 4.126305e-01
-1.592314e+00 6.466119e-08 3.641222e-01
-1.780824e+00 2.173813e-08 2.808666e-01
3.525986e+00 1.013563e-08 -9.890894e-01
3.574796e+00 1.905257e-07 -4.209279e-01
2.995442e+00 -7.279702e-08 1.373754e-01
1.923952e+00 4.542855e-08 6.100415e-01
5.825302e-01 -2.232099e-08 9.573069e-01
-7.198941e-01 -9.357516e-09 1.139163e+00
-1.750413e+00 4.075644e-08 1.146520e+00
-2.430880e+00 -1.797104e-08 1.012791e+00
-2.771420e+00 1.223567e-07 7.774229e-01
4.220140e+00 1.557471e-07 -1.774573e+00
4.504491e+00 -7.421176e-08 -7.067441e-01
3.977041e+00 5.143318e-08 3.199535e-01
2.772308e+00 -1.037006e-07 1.181107e+00
1.159462e+00 -2.860535e-08 1.803138e+00
-4.738742e-01 -3.981020e-08 2.115939e+00
-1.820475e+00 -7.966860e-08 2.106310e+00
-2.762836e+00 5.125708e-09 1.836737e+00
-3.288559e+00 -9.208574e-08 1.382842e+00
4.124377e+00 -2.536628e-07 -2.398566e+00
4.826669e+00 -9.495957e-10 -8.150805e-01
4.619448e+00 -1.402741e-07 6.538472e-01
3.584776e+00 6.251200e-08 1.850379e+00
1.995770e+00 -1.131822e-07 2.683320e+00
2.658418e-01 -1.634855e-07 3.062197e+00
-1.263007e+00 -1.830698e-07 2.981810e+00
-2.423058e+00 -2.920642e-07 2.540454e+00
-3.164603e+00 -1.994879e-07 1.840402e+00
3.279879e+00 -4.083748e-08 -2.521673e+00
4.535359e+00 -3.859454e-07 -5.637397e-01
4.857875e+00 -2.142628e-07 1.156191e+00
4.259310e+00 -1.444415e-07 2.490798e+00
2.974633e+00 -6.421980e-08 3.346589e+00
1.381362e+00 -2.274024e-07 3.651248e+00
-1.737886e-01 -3.804390e-07 3.424513e+00
-1.489817e+00 -4.728484e-07 2.796697e+00
-2.454128e+00 -6.526492e-07 1.886810e+00
2.004398e+00 -3.347959e-07 -1.982924e+00
3.798039e+00 -2.074191e-07 1.115636e-01
4.721179e+00 -4.200514e-07 1.801705e+00
4.686599e+00 -2.701165e-07 2.987362e+00
3.867480e+00 -3.182662e-07 3.622305e+00
2.576599e+00 -3.771416e-07 3.680889e+00
1.123378e+00 -4.639126e-07 3.235267e+00
-2.530043e-01 -5.918801e-07 2.432274e+00
-1.399321e+00 -5.285883e-07 1.384329e+00
6.650582e-01 -3.154630e-07 -8.330532e-01
2.885183e+00 -4.065290e-07 1.125843e+00
4.307888e+00 -3.012920e-07 2.492190e+00
4.788314e+00 -5.265919e-07 3.275704e+00
4.448506e+00 -4.172976e-07 3.470017e+00
3.505550e+00 -4.088845e-07 3.142051e+00
2.229724e+00 -4.806759e-07 2.433600e+00
8.716107e-01 -4.278044e-07 1.517990e+00
-3.566851e-01 -4.794387e-07 4.467844e-01
-4.491170e-01 -4.843714e-07 7.062910e-01
2.088202e+00 -4.180473e-07 2.298368e+00
3.766961e+00 -4.965387e-07 3.168491e+00
4.605623e+00 -4.412826e-07 3.376869e+00
4.618439e+00 -4.083654e-07 2.994072e+00
3.969139e+00 -4.248504e-07 2.210009e+00
2.885765e+00 -4.079136e-07 1.235627e+00
1.604887e+00 -4.431808e-07 2.402458e-01
3.916154e-01 -4.983056e-07 -6.158629e-01
7.407807e-01 -1.613133e+00 1.376413e-01
7.216811e-01 -1.580095e+00 7.914385e-02
5.759098e-01 -1.267196e+00 1.294625e-02
3.391269e-01 -7.523161e-01 -5.059848e-02
5.825511e-02 -1.399418e-01 -1.034781e-01
-2.047508e-01 4.348321e-01 -1.375943e-01
-4.049278e-01 8.736528e-01 -1.484648e-01
-5.295670e-01 1.149288e+00 -1.372035e-01
-5.846108e-01 1.270846e+00 -1.083857e-01
2.320484e+00 -1.696217e+00 -1.850293e-01
2.282108e+00 -1.646247e+00 -6.796891e-02
1.843578e+00 -1.303991e+00 4.213032e-02
1.109449e+00 -7.554092e-01 1.317309e-01
2.272913e-01 -1.101434e-01 1.935644e-01
-6.074455e-01 4.915070e-01 2.224828e-01
-1.250151e+00 9.481129e-01 2.192040e-01
-1.658714e+00 1.231790e+00 1.911998e-01
-1.847396e+00 1.354962e+00 1.467900e-01
3.632252e+00 -1.796462e+00 -8.477027e-01
3.676458e+00 -1.709359e+00 -3.481248e-01
3.064516e+00 -1.317368e+00 1.329602e-01
1.950658e+00 -7.199077e-01 5.436846e-01
5.626858e-01 -3.265613e-02 8.428593e-01
-7.825561e-01 5.987758e-01 9.940495e-01
-1.843933e+00 1.070648e+00 9.938345e-01
-2.543887e+00 1.355618e+00 8.724667e-01
-2.892521e+00 1.473195e+00 6.699750e-01
4.286695e+00 -1.896001e+00 -1.658037e+00
4.604711e+00 -1.755679e+00 -6.312125e-01
4.062386e+00 -1.297427e+00 3.419538e-01
2.829766e+00 -6.421448e-01 1.162294e+00
1.177670e+00 8.803766e-02 1.750695e+00
-5.002080e-01 7.452924e-01 2.033988e+00
-1.888473e+00 1.223731e+00 2.007858e+00
-2.864602e+00 1.500388e+00 1.739304e+00
-3.422190e+00 1.608165e+00 1.311690e+00
4.043057e+00 -1.959034e+00 -2.237088e+00
4.857548e+00 -1.758485e+00 -6.952797e-01
4.680587e+00 -1.235679e+00 7.221821e-01
3.670068e+00 -5.320204e-01 1.879617e+00
2.086937e+00 2.269682e-01 2.671094e+00
3.362451e-01 8.935288e-01 3.007353e+00
-1.226845e+00 1.364691e+00 2.895538e+00
-2.437915e+00 1.621228e+00 2.442518e+00
-3.253275e+00 1.713426e+00 1.781590e+00
3.003470e+00 -1.939302e+00 -2.204116e+00
4.440276e+00 -1.692435e+00 -3.418315e-01
4.850201e+00 -1.129791e+00 1.291560e+00
4.343426e+00 -4.087748e-01 2.540237e+00
3.130146e+00 3.463188e-01 3.310784e+00
1.565007e+00 9.945207e-01 3.534961e+00
-4.748435e-03 1.437925e+00 3.255251e+00
-1.369724e+00 1.664794e+00 2.612790e+00
-2.449397e+00 1.739233e+00 1.774661e+00
1.569275e+00 -1.822205e+00 -1.407390e+00
3.583675e+00 -1.545454e+00 4.758799e-01
4.615477e+00 -9.857395e-01 1.999601e+00
4.717312e+00 -2.926985e-01 3.019710e+00
4.025022e+00 4.172086e-01 3.489071e+00
2.808324e+00 1.013381e+00 3.413921e+00
1.377299e+00 1.407810e+00 2.887826e+00
-4.382167e-02 1.595780e+00 2.079782e+00
-1.323889e+00 1.640910e+00 1.171064e+00
2.228021e-01 -1.593334e+00 -3.597140e-02
2.601898e+00 -1.346016e+00 1.621224e+00
4.107424e+00 -8.232537e-01 2.757318e+00
4.726772e+00 -1.984681e-01 3.282347e+00
4.530390e+00 4.295592e-01 3.229155e+00
3.695248e+00 9.453724e-01 2.710604e+00
2.478739e+00 1.274357e+00 1.900361e+00
1.120905e+00 1.413742e+00 9.670098e-01
-2.336730e-01 1.468687e+00 7.244079e-02
-7.404578e-01 -1.489175e+00 1.598802e+00
1.743719e+00 -1.093112e+00 2.883245e+00
3.511248e+00 -6.509028e-01 3.495583e+00
4.460238e+00 -1.174070e-01 3.390820e+00
4.620053e+00 4.109210e-01 2.719574e+00
4.106164e+00 8.311212e-01 1.715261e+00
3.118501e+00 1.080310e+00 6.163903e-01
1.893310e+00 1.156924e+00 -4.049762e-01
5.807695e-01 1.004840e+00 -1.222996e+00
7.513146e-01 -3.098822e+00 6.712248e-01
7.175446e-01 -3.089781e+00 3.167758e-01
5.596023e-01 -2.533379e+00 -4.586623e-02
3.144105e-01 -1.565340e+00 -3.640318e-01
2.929671e-02 -3.868146e-01 -6.065618e-01
-2.336543e-01 7.341263e-01 -7.416620e-01
-4.302389e-01 1.604510e+00 -7.586405e-01
-5.490521e-01 2.164238e+00 -6.788712e-01
-5.968001e-01 2.427085e+00 -5.253120e-01
2.421703e+00 -3.254383e+00 3.793328e-01
2.337122e+00 -3.218119e+00 1.809159e-01
1.843161e+00 -2.609644e+00 -2.209213e-02
1.056354e+00 -1.579661e+00 -2.058056e-01
1.321149e-01 -3.377934e-01 -3.469305e-01
-7.284233e-01 8.382040e-01 -4.236831e-01
-1.380610e+00 1.745055e+00 -4.317466e-01
-1.784453e+00 2.325115e+00 -3.832592e-01
-1.961949e+00 2.594450e+00 -2.971479e-01
3.826585e+00 -3.465629e+00 -2.818510e-01
3.787779e+00 -3.344375e+00 -9.692459e-02
3.080703e+00 -2.637848e+00 7.016403e-02
1.870875e+00 -1.508443e+00 2.065312e-01
4.005971e-01 -1.779855e-01 3.013687e-01
-1.000495e+00 1.062880e+00 3.456150e-01
-2.085629e+00 2.001951e+00 3.398310e-01
-2.783345e+00 2.584899e+00 2.951717e-01
-3.107563e+00 2.831722e+00 2.244511e-01
4.526113e+00 -3.695282e+00 -1.107170e+00
4.737874e+00 -3.437060e+00 -3.706936e-01
4.078197e+00 -2.592644e+00 2.983529e-01
2.725458e+00 -1.340990e+00 8.510974e-01
9.685722e-01 8.532885e-02 1.237309e+00
-7.804756e-01 1.383260e+00 1.411932e+00
-2.200820e+00 2.336635e+00 1.375961e+00
-3.173109e+00 2.898594e+00 1.177966e+00
-3.690179e+00 3.102744e+00 8.779831e-01
4.241451e+00 -3.847894e+00 -1.673390e+00
4.951778e+00 -3.437619e+00 -3.977177e-01
4.662405e+00 -2.456043e+00 7.201657e-01
3.539582e+00 -1.099634e+00 1.606742e+00
1.861910e+00 3.909139e-01 2.187135e+00
5.010111e-02 1.711986e+00 2.403598e+00
-1.536962e+00 2.646371e+00 2.270778e+00
-2.737762e+00 3.164248e+00 1.880478e+00
-3.500177e+00 3.312952e+00 1.340224e+00
3.103843e+00 -3.821131e+00 -1.560301e+00
4.447289e+00 -3.286660e+00 3.179876e-02
4.764510e+00 -2.221707e+00 1.344174e+00
4.173341e+00 -8.314416e-01 2.296742e+00
2.900130e+00 6.504589e-01 2.826743e+00
1.306367e+00 1.929087e+00 2.904751e+00
-2.649548e-01 2.802089e+00 2.587401e+00
-1.607566e+00 3.249995e+00 2.001516e+00
-2.620161e+00 3.336674e+00 1.281425e+00
1.597702e+00 -3.550182e+00 -6.470953e-01
3.504027e+00 -2.968247e+00 9.412022e-01
4.443348e+00 -1.912456e+00 2.110324e+00
4.483048e+00 -5.839607e-01 2.796195e+00
3.767201e+00 7.930905e-01 2.983425e+00
2.560782e+00 1.954694e+00 2.726212e+00
1.159811e+00 2.718053e+00 2.138921e+00
-2.180474e-01 3.085916e+00 1.377592e+00
-1.415533e+00 3.121455e+00 5.817881e-01
2.662242e-01 -3.108458e+00 8.112883e-01
2.463438e+00 -2.540547e+00 2.157562e+00
3.853416e+00 -1.559104e+00 2.923820e+00
4.416102e+00 -3.799939e-01 3.089522e+00
4.217833e+00 8.130081e-01 2.724139e+00
3.424921e+00 1.793691e+00 1.995127e+00
2.273054e+00 2.410999e+00 1.101040e+00
9.855578e-01 2.668998e+00 1.913543e-01
-2.759061e-01 2.666532e+00 -6.215841e-01
-6.353317e-01 -2.685790e+00 2.511785e+00
1.585206e+00 -2.039604e+00 3.456009e+00
3.189193e+00 -1.205785e+00 3.690749e+00
4.044193e+00 -2.349910e-01 3.219040e+00
4.185626e+00 7.377485e-01 2.223547e+00
3.722823e+00 1.517623e+00 9.985363e-01
2.829738e+00 1.986804e+00 -1.956252e-01
1.709658e+00 2.130218e+00 -1.198339e+00
5.118928e-01 1.961060e+00 -1.932676e+00
7.634136e-01 -4.099494e+00 1.455927e+00
7.062147e-01 -4.253866e+00 6.267524e-01
5.299724e-01 -3.640755e+00 -1.916737e-01
2.730303e-01 -2.416308e+00 -8.939645e-01
-1.662044e-02 -8.525349e-01 -1.411770e+00
-2.772987e-01 6.822821e-01 -1.681572e+00
-4.664788e-01 1.912684e+00 -1.690123e+00
-5.747898e-01 2.746915e+00 -1.486548e+00
-6.105672e-01 3.182179e+00 -1.129261e+00
2.538040e+00 -4.254405e+00 1.208920e+00
2.377736e+00 -4.400189e+00 4.990589e-01
1.798559e+00 -3.737562e+00 -1.903829e-01
9.400322e-01 -2.450693e+00 -7.864346e-01
-3.265167e-02 -8.176200e-01 -1.223331e+00
-9.153135e-01 7.817412e-01 -1.440113e+00
-1.564819e+00 2.063074e+00 -1.432331e+00
-1.949894e+00 2.929651e+00 -1.248553e+00
-2.106611e+00 3.389951e+00 -9.485950e-01
4.077815e+00 -4.531430e+00 5.725412e-01
3.882929e+00 -4.555463e+00 2.173408e-01
3.018420e+00 -3.762420e+00 -1.169633e-01
1.669597e+00 -2.344050e+00 -4.043674e-01
9.605984e-02 -5.936541e-01 -6.121965e-01
-1.357934e+00 1.089703e+00 -7.106023e-01
-2.447331e+00 2.412356e+00 -6.975427e-01
-3.113055e+00 3.279222e+00 -5.992500e-01
-3.384958e+00 3.697620e+00 -4.486716e-01
4.896372e+00 -4.874477e+00 -2.530541e-01
4.871014e+00 -4.676100e+00 -5.836636e-02
3.982706e+00 -3.674393e+00 1.087932e-01
2.429981e+00 -2.075900e+00 2.375254e-01
5.252998e-01 -1.886561e-01 3.201392e-01
-1.299586e+00 1.572294e+00 3.508821e-01
-2.721975e+00 2.905785e+00 3.332823e-01
-3.640685e+00 3.728534e+00 2.797641e-01
-4.070379e+00 4.067665e+00 2.033953e-01
4.673354e+00 -5.137434e+00 -8.256821e-01
5.082274e+00 -4.670763e+00 -7.711229e-02
4.513732e+00 -3.446771e+00 5.490661e-01
3.153889e+00 -1.684827e+00 1.014951e+00
1.306771e+00 3.011220e-01 1.291422e+00
-5.839442e-01 2.089953e+00 1.359280e+00
-2.159872e+00 3.386038e+00 1.239247e+00
-3.277877e+00 4.122592e+00 9.897250e-01
-3.916883e+00 4.351573e+00 6.695601e-01
3.535557e+00 -5.126682e+00 -7.105562e-01
4.537086e+00 -4.445657e+00 3.748979e-01
4.546076e+00 -3.078992e+00 1.207741e+00
3.705166e+00 -1.253965e+00 1.743646e+00
2.265855e+00 7.224949e-01 1.965863e+00
6.074416e-01 2.445957e+00 1.886807e+00
-9.281157e-01 3.640061e+00 1.571228e+00
-2.160091e+00 4.261128e+00 1.115479e+00
-3.021951e+00 4.379949e+00 6.084138e-01
2.017697e+00 -4.753601e+00 1.981079e-01
3.538817e+00 -3.974880e+00 1.306949e+00
4.149620e+00 -2.603363e+00 2.016900e+00
3.938707e+00 -8.637677e-01 2.295415e+00
3.070756e+00 9.600975e-01 2.175984e+00
1.823113e+00 2.505634e+00 1.754115e+00
4.839306e-01 3.532615e+00 1.156316e+00
-7.526006e-01 4.018439e+00 5.084365e-01
-1.773578e+00 4.044150e+00 -9.227355e-02
6.765301e-01 -4.083062e+00 1.630359e+00
2.454709e+00 -3.332409e+00 2.529806e+00
3.491138e+00 -2.076977e+00 2.866273e+00
3.797065e+00 -5.557101e-01 2.650729e+00
3.456252e+00 9.951721e-01 1.993457e+00
2.640460e+00 2.275194e+00 1.104098e+00
1.573273e+00 3.090610e+00 1.894160e-01
4.466403e-01 3.430871e+00 -6.212174e-01
-6.227307e-01 3.401450e+00 -1.251506e+00
-1.955444e-01 -3.323369e+00 3.214349e+00
1.549049e+00 -2.590171e+00 3.796047e+00
2.763153e+00 -1.558793e+00 3.650144e+00
3.348287e+00 -3.440407e-01 2.845144e+00
3.345080e+00 8.751260e-01 1.596405e+00
2.869485e+00 1.865190e+00 2.275450e-01
2.079443e+00 2.470240e+00 -9.870927e-01
1.139632e+00 2.683363e+00 -1.917997e+00
1.750587e-01 2.535505e+00 -2.515915e+00
7.639902e-01 -4.335402e+00 2.209362e+00
6.802209e-01 -4.841386e+00 8.329041e-01
4.857743e-01 -4.440803e+00 -4.767212e-01
2.199465e-01 -3.257440e+00 -1.566307e+00
-6.959876e-02 -1.591734e+00 -2.340262e+00
-3.225871e-01 1.345759e-01 -2.707528e+00
-4.993873e-01 1.603503e+00 -2.662782e+00
-5.935342e-01 2.674166e+00 -2.294466e+00
-6.145154e-01 3.314586e+00 -1.687650e+00
2.623152e+00 -4.368023e+00 1.957224e+00
2.372523e+00 -4.931310e+00 6.792784e-01
1.701799e+00 -4.517275e+00 -5.189080e-01
7.756423e-01 -3.313559e+00 -1.518697e+00
-2.329363e-01 -1.614854e+00 -2.215754e+00
-1.119628e+00 1.588715e-01 -2.523957e+00
-1.749805e+00 1.672339e+00 -2.449953e+00
-2.100749e+00 2.792848e+00 -2.086218e+00
-2.228463e+00 3.498402e+00 -1.544423e+00
4.284971e+00 -4.613565e+00 1.324762e+00
3.900865e+00 -5.048560e+00 3.664197e-01
2.860139e+00 -4.503564e+00 -4.896046e-01
1.372875e+00 -3.172163e+00 -1.184064e+00
-2.836626e-01 -1.364344e+00 -1.649386e+00
-1.761211e+00 4.835121e-01 -1.832612e+00
-2.820758e+00 2.029269e+00 -1.743763e+00
-3.428744e+00 3.140967e+00 -1.454553e+00
-3.631763e+00 3.789355e+00 -1.049812e+00
5.251601e+00 -5.006947e+00 4.911482e-01
4.912922e+00 -5.152067e+00 6.793469e-02
3.750286e+00 -4.348815e+00 -2.931941e-01
1.984635e+00 -2.804682e+00 -5.699204e-01
-5.182949e-02 -8.450490e-01 -7.410186e-01
-1.914297e+00 1.076337e+00 -7.889531e-01
-3.292772e+00 2.614785e+00 -7.231624e-01
-4.112023e+00 3.651238e+00 -5.801359e-01
-4.416225e+00 4.184207e+00 -3.956444e-01
5.153784e+00 -5.361804e+00 -1.051768e-01
5.137824e+00 -5.132010e+00 3.209105e-02
4.204418e+00 -4.025352e+00 1.387298e-01
2.564340e+00 -2.263153e+00 2.081518e-01
5.469928e-01 -1.806063e-01 2.380865e-01
-1.389433e+00 1.764710e+00 2.318258e-01
-2.898633e+00 3.235579e+00 1.976413e-01
-3.877141e+00 4.143516e+00 1.463276e-01
-4.336817e+00 4.514109e+00 8.685643e-02
4.103685e+00 -5.421971e+00 -4.253572e-02
4.588315e+00 -4.863364e+00 4.660514e-01
4.163408e+00 -3.535878e+00 8.080645e-01
2.996613e+00 -1.665981e+00 9.711252e-01
1.362416e+00 4.206898e-01 9.625254e-01
-3.406242e-01 2.283902e+00 8.163981e-01
-1.787677e+00 3.615681e+00 5.857955e-01
-2.839870e+00 4.353856e+00 3.201381e-01
-3.471704e+00 4.554921e+00 6.249409e-02
2.616412e+00 -5.025070e+00 7.767144e-01
3.569945e+00 -4.298836e+00 1.370254e+00
3.707495e+00 -2.925782e+00 1.640873e+00
3.145584e+00 -1.129792e+00 1.589282e+00
2.073521e+00 7.885074e-01 1.269560e+00
7.853279e-01 2.441562e+00 7.955511e-01
-4.471389e-01 3.562820e+00 2.818006e-01
-1.478497e+00 4.122452e+00 -1.881380e-01
-2.238303e+00 4.191423e+00 -5.620119e-01
1.270065e+00 -4.234531e+00 2.070866e+00
2.459213e+00 -3.510049e+00 2.544528e+00
3.005589e+00 -2.261861e+00 2.516584e+00
2.953806e+00 -7.129354e-01 2.032898e+00
2.409311e+00 8.883321e-01 1.223981e+00
1.560530e+00 2.227391e+00 3.079791e-01
6.112701e-01 3.097507e+00 -5.216677e-01
-2.951231e-01 3.482727e+00 -1.174862e+00
-1.081727e+00 3.469089e+00 -1.607963e+00
3.654779e-01 -3.268852e+00 3.476662e+00
1.521792e+00 -2.607667e+00 3.734596e+00
2.248976e+00 -1.615323e+00 3.317471e+00
2.485163e+00 -4.275742e-01 2.328609e+00
2.293590e+00 7.805880e-01 9.919306e-01
1.795868e+00 1.772739e+00 -3.684896e-01
1.128749e+00 2.395774e+00 -1.498378e+00
4.145649e-01 2.636864e+00 -2.292654e+00
-2.703872e-01 2.537604e+00 -2.740105e+00
7.385679e-01 -3.759970e+00 2.574439e+00
6.329030e-01 -4.789158e+00 7.360333e-01
4.285301e-01 -4.850953e+00 -9.278117e-01
1.635343e-01 -4.007091e+00 -2.254894e+00
-1.158388e-01 -2.539385e+00 -3.134691e+00
-3.530432e-01 -8.578631e-01 -3.484099e+00
-5.123795e-01 6.965178e-01 -3.319440e+00
-5.903029e-01 1.953597e+00 -2.764849e+00
-5.970653e-01 2.819675e+00 -1.928499e+00
2.614341e+00 -3.590788e+00 2.211005e+00
2.288479e+00 -4.750947e+00 4.989595e-01
1.552296e+00 -4.860173e+00 -1.037041e+00
5.930543e-01 -4.067122e+00 -2.245287e+00
-4.145049e-01 -2.632744e+00 -3.018310e+00
-1.274349e+00 -9.520236e-01 -3.278198e+00
-1.862703e+00 6.308298e-01 -3.064947e+00
-2.169926e+00 1.934822e+00 -2.509298e+00
-2.268561e+00 2.908370e+00 -1.762135e+00
4.324597e+00 -3.723515e+00 1.509906e+00
3.772169e+00 -4.767039e+00 1.094810e-01
2.601959e+00 -4.768022e+00 -1.070121e+00
1.041530e+00 -3.880142e+00 -1.952501e+00
-6.290397e-01 -2.377794e+00 -2.467909e+00
-2.067630e+00 -6.621297e-01 -2.578537e+00
-3.057661e+00 9.262810e-01 -2.332655e+00
-3.582569e+00 2.208881e+00 -1.843056e+00
-3.709471e+00 3.110861e+00 -1.226442e+00
5.368914e+00 -4.098648e+00 6.446813e-01
4.753186e+00 -4.809772e+00 -2.353676e-01
3.378951e+00 -4.524987e+00 -9.220331e-01
1.486069e+00 -3.416834e+00 -1.379330e+00
-5.852006e-01 -1.775490e+00 -1.587296e+00
-2.399695e+00 -1.184128e-02 -1.547533e+00
-3.673991e+00 1.535357e+00 -1.309276e+00
-4.365697e+00 2.710430e+00 -9.513021e-01
-4.542714e+00 3.469563e+00 -5.469821e-01
5.391304e+00 -4.523436e+00 2.951950e-02
4.971579e+00 -4.764864e+00 -2.996632e-01
3.732525e+00 -4.108147e+00 -5.196220e-01
1.901568e+00 -2.741167e+00 -6.271689e-01
-1.829016e-01 -9.621038e-01 -6.265762e-01
-2.068705e+00 8.121843e-01 -5.365257e-01
-3.443919e+00 2.260726e+00 -3.893050e-01
-4.241441e+00 3.262018e+00 -2.167913e-01
-4.510221e+00 3.808208e+00 -4.971019e-02
4.457669e+00 -4.681449e+00 4.433392e-02
4.434240e+00 -4.487991e+00 1.046861e-01
3.619659e+00 -3.527912e+00 1.392161e-01
2.199688e+00 -1.996248e+00 1.440558e-01
4.623552e-01 -1.864307e-01 1.222404e-01
-1.198567e+00 1.503730e+00 8.381859e-02
-2.490953e+00 2.784660e+00 3.996246e-02
-3.324762e+00 3.575684e+00 -1.773125e-03
-3.714824e+00 3.901632e+00 -3.733075e-02
3.049768e+00 -4.363565e+00 7.602147e-01
3.428180e+00 -3.905784e+00 9.650954e-01
3.123356e+00 -2.829621e+00 9.790581e-01
2.266373e+00 -1.326303e+00 8.125553e-01
1.062516e+00 3.390879e-01 5.142684e-01
-1.945254e-01 1.817208e+00 1.680530e-01
-1.266364e+00 2.867190e+00 -1.532224e-01
-2.053049e+00 3.442490e+00 -4.081808e-01
-2.534883e+00 3.590585e+00 -5.795488e-01
1.711025e+00 -3.593960e+00 1.914747e+00
2.319009e+00 -3.075275e+00 2.081557e+00
2.410584e+00 -2.085848e+00 1.871621e+00
2.051032e+00 -8.061761e-01 1.339011e+00
1.364349e+00 5.505426e-01 6.021374e-01
5.395097e-01 1.711052e+00 -1.562277e-01
-2.504054e-01 2.493860e+00 -7.899090e-01
-9.099329e-01 2.875138e+00 -1.240603e+00
-1.406828e+00 2.911595e+00 -1.495784e+00
7.559569e-01 -2.576953e+00 3.152374e+00
1.366611e+00 -2.121661e+00 3.206706e+00
1.653351e+00 -1.371715e+00 2.695430e+00
1.603819e+00 -4.467496e-01 1.737746e+00
1.286281e+00 5.102256e-01 5.328923e-01
8.164702e-01 1.312307e+00 -6.412158e-01
3.043741e-01 1.832720e+00 -1.572324e+00
-1.777520e-01 2.058802e+00 -2.189798e+00
-5.891768e-01 2.025846e+00 -2.499784e+00
6.805270e-01 -2.623967e+00 2.322015e+00
5.633336e-01 -4.222453e+00 2.251251e-01
3.623464e-01 -4.885906e+00 -1.540359e+00
1.123994e-01 -4.574282e+00 -2.838233e+00
-1.444218e-01 -3.512353e+00 -3.593999e+00
-3.570355e-01 -2.061004e+00 -3.761814e+00
-4.951703e-01 -5.408541e-01 -3.409494e+00
-5.570430e-01 8.181756e-01 -2.676671e+00
-5.522990e-01 1.886038e+00 -1.665900e+00
2.484129e+00 -2.251612e+00 1.724870e+00
2.108625e+00 -4.043210e+00 -1.518464e-01
1.359563e+00 -4.793801e+00 -1.723503e+00
4.237288e-01 -4.595698e+00 -2.834591e+00