<?xml version="1.0"?>
<VTKFile type="StructuredGrid" version="0.1">
  <StructuredGrid WholeExtent="0 8 0 8 0 8">
    <Piece Extent="0 8 0 8 0 8">
      <PointData Scalars="temperature" Vectors="velocity">
        <DataArray type="Float32" Name="temperature" format="ascii">
1.000000e+00
8.750000e-01
7.500000e-01
6.250000e-01
5.001738e-01
3.750000e-01
2.500000e-01
1.250000e-01
0.000000e+00
1.000000e+00
8.750000e-01
7.500000e-01
6.250000e-01
4.993471e-01
3.750000e-01
2.500000e-01
1.250000e-01
0.000000e+00
1.000000e+00
8.750000e-01
7.500000e-01
6.250000e-01
4.966767e-01
3.750000e-01
2.500000e-01
1.250000e-01
0.000000e+00
1.000000e+00
8.750000e-01
7.500000e-01
6.250000e-01
4.922142e-01
3.750000e-01
2.500000e-01
1.250000e-01
0.000000e+00
1.000000e+00
8.750000e-01
7.500000e-01
6.250000e-01
4.865757e-01
3.750000e-01
2.500000e-01
1.250000e-01
0.000000e+00
1.000000e+00
8.750000e-01
7.500000e-01
6.250000e-01
4.808345e-01
3.750000e-01
2.500000e-01
1.250000e-01
0.000000e+00
1.000000e+00
8.750000e-01
7.500000e-01
6.250000e-01
4.761229e-01
3.750000e-01
2.500000e-01
1.250000e-01
0.000000e+00
1.000000e+00
8.750000e-01
7.500000e-01
6.250000e-01
4.731971e-01
3.750000e-01
2.500000e-01
1.250000e-01
0.000000e+00
1.000000e+00
8.750000e-01
7.500000e-01
6.250000e-01
4.722520e-01
3.750000e-01
2.500000e-01
1.250000e-01
0.000000e+00
1.000000e+00
8.750000e-01
7.500000e-01
6.250000e-01
5.017325e-01
3.750000e-01
2.500000e-01
1.250000e-01
0.000000e+00
1.000000e+00
8.750000e-01
7.500000e-01
6.250000e-01
5.009268e-01
3.750000e-01
2.500000e-01
1.250000e-01
0.000000e+00
1.000000e+00
8.750000e-01
7.500000e-01
6.250000e-01
4.980773e-01
3.750000e-01
2.500000e-01
1.250000e-01
0.000000e+00
1.000000e+00
8.750000e-01
7.500000e-01
6.250000e-01
4.932282e-01
3.750000e-01
2.500000e-01
1.250000e-01
0.000000e+00
1.000000e+00
8.750000e-01
7.500000e-01
6.250000e-01
4.871241e-01
3.750000e-01
2.500000e-01
1.250000e-01
0.000000e+00
1.000000e+00
8.750000e-01
7.500000e-01
6.250000e-01
4.810690e-01
3.750000e-01
2.500000e-01
1.250000e-01
0.000000e+00
1.000000e+00
8.750000e-01
7.500000e-01
6.250000e-01
4.763880e-01
3.750000e-01
2.500000e-01
1.250000e-01
0.000000e+00
1.000000e+00
8.750000e-01
7.500000e-01
6.250000e-01
4.738692e-01
3.750000e-01
2.500000e-01
1.250000e-01
0.000000e+00
1.000000e+00
8.750000e-01
7.500000e-01
6.250000e-01
4.735857e-01
3.750000e-01
2.500000e-01
1.250000e-01
0.000000e+00
1.000000e+00
8.750000e-01
7.500000e-01
6.250000e-01
5.050757e-01
3.750000e-01
2.500000e-01
1.250000e-01
0.000000e+00
1.000000e+00
8.750000e-01
7.500000e-01
6.250000e-01
5.044651e-01
3.750000e-01
2.500000e-01
1.250000e-01
0.000000e+00
1.000000e+00
8.750000e-01
7.500000e-01
6.250000e-01
5.016104e-01
3.750000e-01
2.500000e-01
1.250000e-01
0.000000e+00
1.000000e+00
8.750000e-01
7.500000e-01
6.250000e-01
4.965206e-01
3.750000e-01
2.500000e-01
1.250000e-01
0.000000e+00
1.000000e+00
8.750000e-01
7.500000e-01
6.250000e-01
4.900409e-01
3.750000e-01
2.500000e-01
1.250000e-01
0.000000e+00
1.000000e+00
8.750000e-01
7.500000e-01
6.250000e-01
4.836883e-01
3.750000e-01
2.500000e-01
1.250000e-01
0.000000e+00
1.000000e+00
8.750000e-01
7.500000e-01
6.250000e-01
4.789700e-01
3.750000e-01
2.500000e-01
1.250000e-01
0.000000e+00
1.000000e+00
8.750000e-01
7.500000e-01
6.250000e-01
4.767017e-01
3.750000e-01
2.500000e-01
1.250000e-01
0.000000e+00
1.000000e+00
8.750000e-01
7.500000e-01
6.250000e-01
4.768444e-01
3.750000e-01
2.500000e-01
1.250000e-01
0.000000e+00
1.000000e+00
8.750000e-01
7.500000e-01
6.250000e-01
5.100092e-01
3.750000e-01
2.500000e-01
1.250000e-01
0.000000e+00
1.000000e+00
8.750000e-01
7.500000e-01
6.250000e-01
5.097493e-01
3.750000e-01
2.500000e-01
1.250000e-01
0.000000e+00
1.000000e+00
8.750000e-01
7.500000e-01
6.250000e-01
5.070784e-01
3.750000e-01
2.500000e-01
1.250000e-01
0.000000e+00
1.000000e+00
8.750000e-01
7.500000e-01
6.250000e-01
5.019479e-01
3.750000e-01
2.500000e-01
1.250000e-01
0.000000e+00
1.000000e+00
8.750000e-01
7.500000e-01
6.250000e-01
4.952506e-01
3.750000e-01
2.500000e-01
1.250000e-01
0.000000e+00
1.000000e+00
8.750000e-01
7.500000e-01
6.250000e-01
4.886509e-01
3.750000e-01
2.500000e-01
1.250000e-01
0.000000e+00
1.000000e+00
8.750000e-01
7.500000e-01
6.250000e-01
4.837961e-01
3.750000e-01
2.500000e-01
1.250000e-01
0.000000e+00
1.000000e+00
8.750000e-01
7.500000e-01
6.250000e-01
4.815353e-01
3.750000e-01
2.500000e-01
1.250000e-01
0.000000e+00
1.000000e+00
8.750000e-01
7.500000e-01
6.250000e-01
4.817667e-01
3.750000e-01
2.500000e-01
1.250000e-01
0.000000e+00
1.000000e+00
8.750000e-01
7.500000e-01
6.250000e-01
5.157881e-01
3.750000e-01
2.500000e-01
1.250000e-01
0.000000e+00
1.000000e+00
8.750000e-01
7.500000e-01
6.250000e-01
5.158879e-01
3.750000e-01
2.500000e-01
1.250000e-01
0.000000e+00
1.000000e+00
8.750000e-01
7.500000e-01
6.250000e-01
5.134787e-01
3.750000e-01
2.500000e-01
1.250000e-01
0.000000e+00
1.000000e+00
8.750000e-01
7.500000e-01
6.250000e-01
5.084652e-01
3.750000e-01
2.500000e-01
1.250000e-01
0.000000e+00
1.000000e+00
8.750000e-01
7.500000e-01
6.250000e-01
5.017369e-01
3.750000e-01
2.500000e-01
1.250000e-01
0.000000e+00
1.000000e+00
8.750000e-01
7.500000e-01
6.250000e-01
4.950042e-01
3.750000e-01
2.500000e-01
1.250000e-01
0.000000e+00
1.000000e+00
8.750000e-01
7.500000e-01
6.250000e-01
4.899723e-01
3.750000e-01
2.500000e-01
1.250000e-01
0.000000e+00
1.000000e+00
8.750000e-01
7.500000e-01
6.250000e-01
4.875203e-01
3.750000e-01
2.500000e-01
1.250000e-01
0.000000e+00
1.000000e+00
8.750000e-01
7.500000e-01
6.250000e-01
4.875461e-01
3.750000e-01
2.500000e-01
1.250000e-01
0.000000e+00
1.000000e+00
8.750000e-01
7.500000e-01
6.250000e-01
5.212836e-01
3.750000e-01
2.500000e-01
1.250000e-01
0.000000e+00
1.000000e+00
8.750000e-01
7.500000e-01
6.250000e-01
5.215293e-01
3.750000e-01
2.500000e-01
1.250000e-01
0.000000e+00
1.000000e+00
8.750000e-01
7.500000e-01
6.250000e-01
5.192613e-01
3.750000e-01
2.500000e-01
1.250000e-01
0.000000e+00
1.000000e+00
8.750000e-01
7.500000e-01
6.250000e-01
5.143939e-01
3.750000e-01
2.500000e-01
1.250000e-01
0.000000e+00
1.000000e+00
8.750000e-01
7.500000e-01
6.250000e-01
5.077933e-01
3.750000e-01
2.500000e-01
1.250000e-01
0.000000e+00
1.000000e+00
8.750000e-01
7.500000e-01
6.250000e-01
5.011116e-01
3.750000e-01
2.500000e-01
1.250000e-01
0.000000e+00
1.000000e+00
8.750000e-01
7.500000e-01
6.250000e-01
4.960004e-01
3.750000e-01
2.500000e-01
1.250000e-01
0.000000e+00
1.000000e+00
8.750000e-01
7.500000e-01
6.250000e-01
4.933319e-01
3.750000e-01
2.500000e-01
1.250000e-01
0.000000e+00
1.000000e+00
8.750000e-01
7.500000e-01
6.250000e-01
4.930420e-01
3.750000e-01
2.500000e-01
1.250000e-01
0.000000e+00
1.000000e+00
8.750000e-01
7.500000e-01
6.250000e-01
5.254102e-01
3.750000e-01
2.500000e-01
1.250000e-01
0.000000e+00
1.000000e+00
8.750000e-01
7.500000e-01
6.250000e-01
5.254314e-01
3.750000e-01
2.500000e-01
1.250000e-01
0.000000e+00
1.000000e+00
8.750000e-01
7.500000e-01
6.250000e-01
5.230398e-01
3.750000e-01
2.500000e-01
1.250000e-01
0.000000e+00
1.000000e+00
8.750000e-01
7.500000e-01
6.250000e-01
5.182342e-01
3.750000e-01
2.500000e-01
1.250000e-01
0.000000e+00
1.000000e+00
8.750000e-01
7.500000e-01
6.250000e-01
5.118637e-01
3.750000e-01
2.500000e-01
1.250000e-01
0.000000e+00
1.000000e+00
8.750000e-01
7.500000e-01
6.250000e-01
5.054435e-01
3.750000e-01
2.500000e-01
1.250000e-01
0.000000e+00
1.000000e+00
8.750000e-01
7.500000e-01
6.250000e-01
5.004661e-01
3.750000e-01
2.500000e-01
1.250000e-01
0.000000e+00
1.000000e+00
8.750000e-01
7.500000e-01
6.250000e-01
4.977344e-01
3.750000e-01
2.500000e-01
1.250000e-01
0.000000e+00
1.000000e+00
8.750000e-01
7.500000e-01
6.250000e-01
4.972207e-01
3.750000e-01
2.500000e-01
1.250000e-01
0.000000e+00
1.000000e+00
8.750000e-01
7.500000e-01
6.250000e-01
5.275364e-01
3.750000e-01
2.500000e-01
1.250000e-01
0.000000e+00
1.000000e+00
8.750000e-01
7.500000e-01
6.250000e-01
5.269760e-01
3.750000e-01
2.500000e-01
1.250000e-01
0.000000e+00
1.000000e+00
8.750000e-01
7.500000e-01
6.250000e-01
5.242080e-01
3.750000e-01
2.500000e-01
1.250000e-01
0.000000e+00
1.000000e+00
8.750000e-01
7.500000e-01
6.250000e-01
5.193641e-01
3.750000e-01
2.500000e-01
1.250000e-01
0.000000e+00
1.000000e+00
8.750000e-01
7.500000e-01
6.250000e-01
5.132802e-01
3.750000e-01
2.500000e-01
1.250000e-01
0.000000e+00
1.000000e+00
8.750000e-01
7.500000e-01
6.250000e-01
5.072914e-01
3.750000e-01
2.500000e-01
1.250000e-01
0.000000e+00
1.000000e+00
8.750000e-01
7.500000e-01
6.250000e-01
5.026658e-01
3.750000e-01
2.500000e-01
1.250000e-01
0.000000e+00
1.000000e+00
8.750000e-01
7.500000e-01
6.250000e-01
5.000855e-01
3.750000e-01
2.500000e-01
1.250000e-01
0.000000e+00
1.000000e+00
8.750000e-01
7.500000e-01
6.250000e-01
4.995353e-01
3.750000e-01
2.500000e-01
1.250000e-01
0.000000e+00
1.000000e+00
8.750000e-01
7.500000e-01
6.250000e-01
5.276118e-01
3.750000e-01
2.500000e-01
1.250000e-01
0.000000e+00
1.000000e+00
8.750000e-01
7.500000e-01
6.250000e-01
5.262658e-01
3.750000e-01
2.500000e-01
1.250000e-01
0.000000e+00
1.000000e+00
8.750000e-01
7.500000e-01
6.250000e-01
5.230003e-01
3.750000e-01
2.500000e-01
1.250000e-01
0.000000e+00
1.000000e+00
8.750000e-01
7.500000e-01
6.250000e-01
5.180810e-01
3.750000e-01
2.500000e-01
1.250000e-01
0.000000e+00
1.000000e+00
8.750000e-01
7.500000e-01
6.250000e-01
5.123167e-01
3.750000e-01
2.500000e-01
1.250000e-01
0.000000e+00
1.000000e+00
8.750000e-01
7.500000e-01
6.250000e-01
5.068483e-01
3.750000e-01
2.500000e-01
1.250000e-01
0.000000e+00
1.000000e+00
8.750000e-01
7.500000e-01
6.250000e-01
5.027058e-01
3.750000e-01
2.500000e-01
1.250000e-01
0.000000e+00
1.000000e+00
8.750000e-01
7.500000e-01
6.250000e-01
5.004314e-01
3.750000e-01
2.500000e-01
1.250000e-01
0.000000e+00
1.000000e+00
8.750000e-01
7.500000e-01
6.250000e-01
5.000030e-01
3.750000e-01
2.500000e-01
1.250000e-01
0.000000e+00
        </DataArray>
        <DataArray type="Float32" Name="velocity" NumberOfComponents="3" format="ascii">
3.367844e-01 5.469004e-08 -1.654516e-02
3.379218e-01 7.423712e-08 -7.842035e-03
2.870454e-01 5.933541e-08 8.668502e-04
1.825297e-01 4.089765e-08 9.050835e-03
3.293564e-02 3.952789e-08 1.622089e-02
-1.068628e-01 3.947278e-08 2.016277e-02
-1.993167e-01 3.393187e-08 2.010502e-02
-2.521800e-01 3.335550e-08 1.752399e-02
-2.768448e-01 3.776109e-08 1.360051e-02
3.383706e-01 7.312594e-01 6.226917e-02
3.373935e-01 7.344027e-01 3.003801e-02
2.847757e-01 6.258877e-01 -2.575741e-03
1.790216e-01 3.996410e-01 -3.190828e-02
2.870909e-02 7.493362e-02 -5.833237e-02
-1.112484e-01 -2.293160e-01 -7.457359e-02
-2.033498e-01 -4.314414e-01 -7.629185e-02
-2.554071e-01 -5.477536e-01 -6.671931e-02
-2.789389e-01 -6.015293e-01 -5.119287e-02
3.430490e-01 1.403333e+00 3.038330e-01
3.354990e-01 1.436213e+00 1.411234e-01
2.775919e-01 1.249577e+00 -1.933187e-02
1.679535e-01 8.268224e-01 -1.671899e-01
1.530222e-02 2.006640e-01 -2.975566e-01
-1.249804e-01 -3.924321e-01 -3.720244e-01
-2.154483e-01 -7.938626e-01 -3.722621e-01
-2.647693e-01 -1.032078e+00 -3.242552e-01
-2.849235e-01 -1.148891e+00 -2.485440e-01
3.483087e-01 1.854084e+00 6.583249e-01
3.303110e-01 1.975984e+00 2.871485e-01
2.642941e-01 1.790237e+00 -7.118721e-02
1.491639e-01 1.260799e+00 -3.989824e-01
-6.130591e-03 4.307579e-01 -6.820977e-01
-1.457079e-01 -3.792598e-01 -8.345239e-01
-2.327409e-01 -9.503342e-01 -8.239185e-01
-2.771121e-01 -1.311074e+00 -7.083586e-01
-2.917071e-01 -1.507739e+00 -5.349333e-01
3.481864e-01 1.956985e+00 9.971350e-01
3.182584e-01 2.246141e+00 3.855889e-01
2.439557e-01 2.170128e+00 -1.879341e-01
1.245476e-01 1.671084e+00 -6.994359e-01
-3.095211e-02 7.902893e-01 -1.126563e+00
-1.670795e-01 -1.155810e-01 -1.338938e+00
-2.482900e-01 -8.034692e-01 -1.295283e+00
-2.860654e-01 -1.278390e+00 -1.093034e+00
-2.938148e-01 -1.573483e+00 -8.010494e-01
3.361812e-01 1.692686e+00 1.158795e+00
2.961568e-01 2.216175e+00 3.427223e-01
2.169050e-01 2.349193e+00 -3.898530e-01
9.762029e-02 2.014376e+00 -1.017731e+00
-5.273529e-02 1.248106e+00 -1.509282e+00
-1.809275e-01 3.748475e-01 -1.717598e+00
-2.540359e-01 -3.623852e-01 -1.612650e+00
-2.844155e-01 -9.345805e-01 -1.317410e+00
-2.856126e-01 -1.340456e+00 -9.167099e-01
3.092859e-01 1.175266e+00 1.039803e+00
2.636919e-01 1.945274e+00 1.077757e-01
1.849144e-01 2.336030e+00 -6.789363e-01
7.228597e-02 2.252433e+00 -1.300264e+00
-6.622266e-02 1.710445e+00 -1.732060e+00
-1.816637e-01 9.726354e-01 -1.847985e+00
-2.448120e-01 2.448039e-01 -1.650821e+00
-2.681434e-01 -3.910963e-01 -1.273068e+00
-2.641845e-01 -8.980507e-01 -7.931715e-01
2.686414e-01 5.646643e-01 6.277405e-01
2.229725e-01 1.553736e+00 -3.082602e-01
1.509331e-01 2.182566e+00 -1.022832e+00
5.068816e-02 2.355694e+00 -1.517529e+00
-6.992061e-02 2.083502e+00 -1.762075e+00
-1.684708e-01 1.521266e+00 -1.698626e+00
-2.209011e-01 8.419740e-01 -1.390938e+00
-2.386988e-01 1.701871e-01 -9.612355e-01
-2.319665e-01 -4.076554e-01 -4.513249e-01
2.189283e-01 3.277773e-03 -6.114131e-03
1.787425e-01 1.180250e+00 -8.373589e-01
1.177075e-01 1.957083e+00 -1.385546e+00
3.474212e-02 2.329983e+00 -1.647945e+00
-6.421014e-02 2.274079e+00 -1.607108e+00
-1.450192e-01 1.877798e+00 -1.325993e+00
-1.866071e-01 1.280765e+00 -9.035459e-01
-1.994322e-01 6.125746e-01 -4.312096e-01
-1.953068e-01 -3.777504e-03 4.246090e-03
1.031202e+00 7.334609e-08 -1.626384e-01
1.043986e+00 8.883249e-08 -7.722217e-02
8.973395e-01 6.818546e-08 8.274625e-03
5.817216e-01 5.005816e-08 8.711813e-02
1.236186e-01 4.576112e-08 1.570162e-01
-3.078118e-01 4.183103e-08 1.972776e-01
-5.965514e-01 5.570078e-08 1.986483e-01
-7.650415e-01 6.900977e-08 1.732307e-01
-8.452295e-01 8.981833e-08 1.333073e-01
1.062278e+00 7.697570e-01 -8.546704e-02
1.069893e+00 7.658229e-01 -3.983581e-02
9.135133e-01 6.446668e-01 5.172127e-03
5.855324e-01 4.025920e-01 4.770000e-02
1.137036e-01 6.096717e-02 8.497904e-02
-3.298033e-01 -2.576185e-01 1.051348e-01
-6.257415e-01 -4.677815e-01 1.045054e-01
-7.970274e-01 -5.868020e-01 9.081450e-02
-8.772761e-01 -6.404838e-01 7.004047e-02
1.108099e+00 1.475052e+00 1.701757e-01
1.095408e+00 1.496985e+00 7.711514e-02
9.154823e-01 1.288305e+00 -1.272533e-02
5.632419e-01 8.376872e-01 -9.876112e-02
6.984478e-02 1.783855e-01 -1.742420e-01
-3.882750e-01 -4.447200e-01 -2.135591e-01
-6.885785e-01 -8.628815e-01 -2.105816e-01
-8.568334e-01 -1.108075e+00 -1.821050e-01
-9.309012e-01 -1.225656e+00 -1.396970e-01
1.160117e+00 1.925921e+00 5.453171e-01
1.113730e+00 2.044853e+00 2.282956e-01
8.967620e-01 1.838637e+00 -7.309226e-02
5.109769e-01 1.282403e+00 -3.545437e-01
-6.929315e-03 4.178328e-01 -5.961160e-01
-4.782140e-01 -4.292445e-01 -7.149215e-01
-7.771010e-01 -1.024545e+00 -6.957480e-01
-9.349496e-01 -1.397450e+00 -5.932110e-01
-9.979272e-01 -1.601977e+00 -4.478536e-01
1.196874e+00 1.974321e+00 8.826172e-01
1.109898e+00 2.287718e+00 3.159382e-01
8.524284e-01 2.205705e+00 -2.092678e-01
4.347917e-01 1.701995e+00 -6.843726e-01
-1.006571e-01 8.096334e-01 -1.074400e+00
-5.762660e-01 -1.270573e-01 -1.249148e+00
-8.654313e-01 -8.388186e-01 -1.189343e+00
-1.005869e+00 -1.333530e+00 -9.922984e-01
-1.053662e+00 -1.652968e+00 -7.295954e-01
1.189828e+00 1.619886e+00 9.954524e-01
1.068072e+00 2.196646e+00 2.347592e-01
7.809826e-01 2.348045e+00 -4.441637e-01
3.474207e-01 2.043090e+00 -1.023560e+00
-1.858310e-01 1.305328e+00 -1.462383e+00
-6.487550e-01 4.235751e-01 -1.617948e+00
-9.183716e-01 -3.317555e-01 -1.487034e+00
-1.037124e+00 -9.241428e-01 -1.193828e+00
-1.069786e+00 -1.372513e+00 -8.317343e-01
1.125559e+00 1.012933e+00 7.743655e-01
9.806992e-01 1.859157e+00 -6.404584e-02
6.858373e-01 2.281345e+00 -7.718876e-01
2.636377e-01 2.257738e+00 -1.313062e+00
-2.410871e-01 1.784384e+00 -1.650665e+00
-6.706239e-01 1.062981e+00 -1.690588e+00
-9.104517e-01 3.340906e-01 -1.456307e+00
-1.006562e+00 -3.226056e-01 -1.083051e+00
-1.021998e+00 -8.843695e-01 -6.682336e-01
9.978634e-01 3.719502e-01 2.593921e-01
8.588482e-01 1.418813e+00 -5.452454e-01
5.771255e-01 2.072111e+00 -1.153122e+00
1.898560e-01 2.310785e+00 -1.524694e+00
-2.578483e-01 2.126628e+00 -1.628055e+00
-6.343704e-01 1.605176e+00 -1.459011e+00
-8.388525e-01 9.462297e-01 -1.104069e+00
-9.113108e-01 2.784187e-01 -6.736341e-01
-9.305742e-01 -3.506925e-01 -2.467379e-01
9.052885e-01 -1.435323e-01 -4.349833e-01
7.062170e-01 9.969529e-01 -1.115302e+00
4.638790e-01 1.802820e+00 -1.543154e+00
1.317883e-01 2.227409e+00 -1.648818e+00
-2.592143e-01 2.255845e+00 -1.441078e+00
-5.624538e-01 1.927916e+00 -1.035788e+00
-7.187441e-01 1.374168e+00 -5.556665e-01
-7.612782e-01 7.406736e-01 -8.567153e-02
-6.865486e-01 9.855474e-02 3.133556e-01
1.614523e+00 7.962922e-08 -4.528967e-01
1.677290e+00 9.023532e-08 -2.066930e-01
1.481445e+00 3.645907e-08 3.474677e-02
1.004944e+00 4.620469e-08 2.576035e-01
2.847911e-01 5.014864e-08 4.525577e-01
-4.047441e-01 4.877113e-08 5.607656e-01
-8.787891e-01 6.499342e-08 5.576996e-01
-1.166887e+00 7.604970e-08 4.833361e-01
-1.314760e+00 9.057625e-08 3.688089e-01
1.664330e+00 8.175450e-01 -3.890950e-01
1.724651e+00 7.967603e-01 -1.738198e-01
1.515718e+00 6.534512e-01 3.417506e-02
1.021387e+00 3.874057e-01 2.308378e-01
2.780286e-01 2.377901e-02 4.017851e-01
-4.354472e-01 -3.110005e-01 4.905772e-01
-9.247448e-01 -5.273854e-01 4.829644e-01
-1.221126e+00 -6.452945e-01 4.163352e-01
-1.372878e+00 -6.954815e-01 3.184372e-01
1.751690e+00 1.574552e+00 -1.320787e-01
1.775937e+00 1.558824e+00 -5.548568e-02
1.527498e+00 1.307288e+00 1.700209e-02
9.904612e-01 8.095690e-01 8.433998e-02
2.030531e-01 1.012345e-01 1.417747e-01
-5.416697e-01 -5.574874e-01 1.707444e-01
-1.041066e+00 -9.879372e-01 1.666470e-01
-1.334250e+00 -1.230796e+00 1.423519e-01
-1.473299e+00 -1.336504e+00 1.079579e-01
1.863259e+00 2.055871e+00 2.555082e-01
1.818862e+00 2.121227e+00 9.534211e-02
1.502862e+00 1.859076e+00 -5.165746e-02
9.028025e-01 1.240037e+00 -1.865146e-01
6.040738e-02 3.093801e-01 -2.980456e-01
-7.153766e-01 -5.833392e-01 -3.506897e-01
-1.215053e+00 -1.194314e+00 -3.371529e-01
-1.489747e+00 -1.562472e+00 -2.830897e-01
-1.602518e+00 -1.746026e+00 -2.105328e-01
1.953137e+00 2.090361e+00 5.962619e-01
1.824405e+00 2.346905e+00 1.703657e-01
1.431191e+00 2.208402e+00 -2.083973e-01
7.681959e-01 1.643605e+00 -5.403316e-01
-1.184176e-01 6.879699e-01 -7.989790e-01
-9.111025e-01 -2.886450e-01 -9.046973e-01
-1.394496e+00 -1.011264e+00 -8.458322e-01
-1.638228e+00 -1.497567e+00 -6.915278e-01
-1.716149e+00 -1.789577e+00 -4.954489e-01
1.964981e+00 1.685342e+00 6.806632e-01
1.759739e+00 2.208893e+00 5.536937e-02
1.308210e+00 2.312550e+00 -4.738362e-01
6.115628e-01 1.961142e+00 -9.027288e-01
-2.822278e-01 1.181108e+00 -1.195972e+00
-1.057493e+00 2.803799e-01 -1.270125e+00
-1.506540e+00 -4.735588e-01 -1.132027e+00
-1.709246e+00 -1.052231e+00 -8.773061e-01
-1.749779e+00 -1.467275e+00 -5.784072e-01
1.857721e+00 1.030214e+00 4.066877e-01
1.611030e+00 1.817925e+00 -2.892431e-01
1.140920e+00 2.193987e+00 -8.351497e-01
4.593921e-01 2.138103e+00 -1.208383e+00
-3.850435e-01 1.646741e+00 -1.377160e+00
-1.102296e+00 9.333580e-01 -1.315168e+00
-1.496425e+00 2.254014e-01 -1.061630e+00
-1.658261e+00 -4.061645e-01 -7.211308e-01
-1.669561e+00 -9.270507e-01 -3.667957e-01
1.654940e+00 3.796014e-01 -1.570524e-01
1.399548e+00 1.335087e+00 -8.079771e-01
9.473522e-01 1.930202e+00 -1.242875e+00
3.241249e-01 2.139438e+00 -1.431890e+00
-4.208337e-01 1.953491e+00 -1.347274e+00
-1.036517e+00 1.462678e+00 -1.057211e+00
-1.359862e+00 8.461156e-01 -6.717910e-01
-1.471436e+00 2.214962e-01 -2.670357e-01
-1.462371e+00 -3.560630e-01 1.091737e-01
1.434170e+00 -1.165468e-01 -8.863981e-01
1.142020e+00 8.967181e-01 -1.400586e+00
7.488848e-01 1.621937e+00 -1.648753e+00
2.242285e-01 1.998611e+00 -1.562923e+00
-4.036463e-01 2.019219e+00 -1.155768e+00
-8.976670e-01 1.729525e+00 -6.213950e-01
-1.144916e+00 1.233664e+00 -1.074218e-01
-1.203589e+00 6.614875e-01 3.331407e-01
-1.117398e+00 8.367494e-02 6.773394e-01
1.934590e+00 6.028583e-08 -8.134969e-01
2.115071e+00 5.345556e-08 -3.438157e-01
1.960789e+00 3.107496e-08 1.059633e-01
1.428757e+00 2.466726e-08 5.151229e-01
5.632405e-01 2.484066e-08 8.647119e-01
-2.975492e-01 3.770110e-08 1.047668e+00
-9.200297e-01 3.614494e-08 1.027143e+00
-1.326818e+00 3.947772e-08 8.773015e-01
-1.561219e+00 6.139733e-08 6.564940e-01
1.967352e+00 8.665957e-01 -7.613965e-01
2.160859e+00 8.210982e-01 -3.108756e-01
2.001391e+00 6.470973e-01 1.158525e-01
1.460112e+00 3.516619e-01 5.107198e-01
5.776536e-01 -3.458438e-02 8.459313e-01
-3.098485e-01 -3.838799e-01 1.008813e+00
-9.540642e-01 -6.022435e-01 9.779783e-01
-1.375752e+00 -7.141744e-01 8.302602e-01
-1.624628e+00 -7.584389e-01 6.233374e-01
2.074288e+00 1.684953e+00 -5.097623e-01
2.221449e+00 1.607451e+00 -1.879737e-01
2.014195e+00 1.293111e+00 1.076502e-01
1.419381e+00 7.354040e-01 3.764459e-01
4.803369e-01 -2.697438e-02 5.980962e-01
-4.457813e-01 -7.181355e-01 7.016105e-01
-1.103180e+00 -1.151630e+00 6.729486e-01
-1.520629e+00 -1.379701e+00 5.644707e-01
-1.749690e+00 -1.463171e+00 4.184876e-01
2.238187e+00 2.218860e+00 -1.198676e-01
2.281415e+00 2.185061e+00 -3.638093e-02
1.976351e+00 1.828845e+00 3.836029e-02
1.289533e+00 1.120376e+00 1.037591e-01
2.715118e-01 1.117537e-01 1.555740e-01
-6.975527e-01 -8.245048e-01 1.771715e-01
-1.353261e+00 -1.435653e+00 1.664585e-01
-1.740778e+00 -1.776573e+00 1.370138e-01
-1.927039e+00 -1.920170e+00 9.880644e-02
2.393026e+00 2.276239e+00 2.202975e-01
2.297588e+00 2.403911e+00 3.015066e-02
1.872589e+00 2.148626e+00 -1.318516e-01
1.086827e+00 1.477645e+00 -2.638339e-01
-2.990111e-03 4.347419e-01 -3.591510e-01
-9.964401e-01 -5.843681e-01 -3.866056e-01
-1.627589e+00 -1.297599e+00 -3.479683e-01
-1.963508e+00 -1.741438e+00 -2.741305e-01
-2.088366e+00 -1.976412e+00 -1.856160e-01
2.439060e+00 1.862507e+00 2.933528e-01
2.218106e+00 2.238121e+00 -1.047231e-01
1.697411e+00 2.211558e+00 -4.206036e-01
8.510418e-01 1.749354e+00 -6.480338e-01
-2.584414e-01 8.883439e-01 -7.717920e-01
-1.230489e+00 -4.291535e-02 -7.595372e-01
-1.810365e+00 -7.718995e-01 -6.339184e-01
-2.082629e+00 -1.292796e+00 -4.530820e-01
-2.145166e+00 -1.637815e+00 -2.577566e-01
2.316162e+00 1.193205e+00 4.629809e-03
2.020084e+00 1.811960e+00 -4.719244e-01
1.460452e+00 2.047308e+00 -8.085695e-01
6.250909e-01 1.879985e+00 -9.782867e-01
-4.238581e-01 1.318787e+00 -9.714393e-01
-1.314582e+00 5.917727e-01 -8.133331e-01
-1.814590e+00 -7.405247e-02 -5.637326e-01
-2.019531e+00 -6.305012e-01 -2.893012e-01
-2.030157e+00 -1.068073e+00 -3.172080e-02
2.038534e+00 5.352655e-01 -5.630304e-01
1.728137e+00 1.303238e+00 -1.004308e+00
1.189992e+00 1.743352e+00 -1.237520e+00
4.320136e-01 1.837075e+00 -1.227869e+00
-4.823886e-01 1.586487e+00 -9.667113e-01
-1.235764e+00 1.093481e+00 -5.792099e-01
-1.637092e+00 5.334229e-01 -1.916165e-01
-1.775094e+00 -4.585412e-03 1.532745e-01
-1.755234e+00 -4.898484e-01 4.365052e-01
1.693350e+00 5.534491e-02 -1.253730e+00
1.375711e+00 8.539080e-01 -1.590670e+00
9.159090e-01 1.405573e+00 -1.653580e+00
2.929280e-01 1.658831e+00 -1.388101e+00
-4.519832e-01 1.610925e+00 -8.214798e-01
-1.048951e+00 1.322979e+00 -1.912441e-01
-1.351167e+00 8.932126e-01 3.282743e-01
-1.432325e+00 4.172095e-01 7.222868e-01
-1.354573e+00 -4.837209e-02 9.937537e-01
1.893681e+00 -2.305121e-08 -1.101286e+00
2.269372e+00 -3.558606e-09 -3.986610e-01
2.266017e+00 2.136353e-08 2.521211e-01
1.819022e+00 5.188790e-08 8.255902e-01
9.670087e-01 1.015827e-08 1.295800e+00
6.158738e-02 -2.457632e-08 1.518806e+00
-6.525366e-01 -4.581261e-08 1.454708e+00
-1.167165e+00 -5.407796e-08 1.214550e+00
-1.505542e+00 -6.862309e-08 8.755606e-01
1.860606e+00 9.003201e-01 -1.029668e+00
2.281002e+00 8.264537e-01 -3.457767e-01
2.290953e+00 6.211776e-01 2.834545e-01
1.861510e+00 2.997413e-01 8.447753e-01
1.020684e+00 -1.021606e-01 1.297250e+00
9.772349e-02 -4.580355e-01 1.492453e+00
-6.370227e-01 -6.717768e-01 1.410354e+00
-1.174903e+00 -7.725818e-01 1.166750e+00
-1.546356e+00 -8.080889e-01 8.476861e-01
1.948147e+00 1.763030e+00 -7.698950e-01
2.321976e+00 1.615301e+00 -2.048798e-01
2.285909e+00 1.235614e+00 2.953737e-01
1.806965e+00 6.241588e-01 7.286896e-01
9.146321e-01 -1.765439e-01 1.061746e+00
-3.996971e-02 -8.835069e-01 1.192453e+00
-7.830439e-01 -1.304245e+00 1.108105e+00
-1.313798e+00 -1.507166e+00 9.001044e-01
-1.660218e+00 -1.562428e+00 6.383597e-01
2.138990e+00 2.347905e+00 -3.796305e-01
2.379704e+00 2.192535e+00 -4.744163e-02
2.222583e+00 1.732324e+00 2.353777e-01
1.633512e+00 9.393569e-01 4.651452e-01
6.510816e-01 -1.288538e-01 6.287691e-01
-3.474678e-01 -1.083488e+00 6.747679e-01
-1.080685e+00 -1.671129e+00 6.059603e-01
-1.567096e+00 -1.965603e+00 4.753261e-01
-1.854302e+00 -2.055046e+00 3.194567e-01
2.350265e+00 2.446321e+00 -4.708784e-02
2.402054e+00 2.405200e+00 1.287604e-02
2.083774e+00 2.008993e+00 6.111304e-02
1.362993e+00 1.226464e+00 9.640054e-02
2.866251e-01 1.086399e-01 1.163936e-01
-7.403710e-01 -9.275038e-01 1.161209e-01
-1.435952e+00 -1.601502e+00 9.802595e-02
-1.850289e+00 -1.977728e+00 7.110532e-02
-2.050570e+00 -2.133628e+00 4.163345e-02
2.451086e+00 2.061785e+00 1.890279e-02
2.320599e+00 2.227408e+00 -1.346395e-01
1.863377e+00 2.029363e+00 -2.422477e-01
1.049487e+00 1.435966e+00 -3.020827e-01
-6.600319e-02 4.898818e-01 -3.061177e-01
-1.071042e+00 -4.520017e-01 -2.621941e-01
-1.698786e+00 -1.126293e+00 -1.883649e-01
-2.023356e+00 -1.558153e+00 -1.041809e-01
-2.131701e+00 -1.800387e+00 -2.399812e-02
2.344298e+00 1.406461e+00 -2.628162e-01
2.099083e+00 1.787932e+00 -5.109081e-01
1.573860e+00 1.830334e+00 -6.493205e-01
7.528609e-01 1.517175e+00 -6.583230e-01
-3.062532e-01 8.663837e-01 -5.347423e-01
-1.221418e+00 1.333372e-01 -3.425317e-01
-1.751284e+00 -4.656059e-01 -1.399784e-01
-1.987250e+00 -9.180454e-01 4.373924e-02
-2.022911e+00 -1.236655e+00 1.935153e-01
2.039956e+00 7.563932e-01 -7.963919e-01
1.759526e+00 1.269993e+00 -1.038440e+00
1.248397e+00 1.503102e+00 -1.095816e+00
5.065903e-01 1.442309e+00 -9.425109e-01
-4.067604e-01 1.095999e+00 -5.794411e-01
-1.168103e+00 6.000719e-01 -1.638078e-01
-1.583974e+00 1.147147e-01 1.814473e-01
-1.740416e+00 -3.093054e-01 4.466356e-01
-1.730991e+00 -6.630759e-01 6.332570e-01
1.628541e+00 2.783224e-01 -1.424931e+00
1.351842e+00 8.139010e-01 -1.601202e+00
9.224143e-01 1.151065e+00 -1.521608e+00
3.303605e-01 1.246736e+00 -1.146268e+00
-3.889804e-01 1.106558e+00 -5.055061e-01
-9.745495e-01 8.151974e-01 1.431423e-01
-1.279438e+00 4.605226e-01 6.262161e-01
-1.372591e+00 1.034239e-01 9.519342e-01
-1.317885e+00 -2.273790e-01 1.147074e+00
1.510663e+00 -2.357710e-08 -1.161444e+00
2.136174e+00 -8.601842e-08 -2.836964e-01
2.369967e+00 -8.708594e-08 4.892140e-01
2.129252e+00 4.347468e-09 1.136689e+00
1.444969e+00 2.305120e-09 1.625769e+00
6.164957e-01 -6.701895e-08 1.811084e+00
-1.223810e-01 -1.225966e-07 1.672705e+00
-7.245137e-01 -2.004143e-07 1.340922e+00
-1.174071e+00 -2.278547e-07 9.026625e-01
1.389205e+00 8.976561e-01 -1.019380e+00
2.086810e+00 8.006099e-01 -1.820982e-01
2.357011e+00 5.741333e-01 5.548872e-01
2.167279e+00 2.405901e-01 1.168184e+00
1.533347e+00 -1.605986e-01 1.614232e+00
7.097572e-01 -5.089098e-01 1.752460e+00
-4.329876e-02 -7.099100e-01 1.586507e+00
-6.684487e-01 -7.961806e-01 1.250969e+00
-1.168533e+00 -8.225393e-01 8.476789e-01
1.431771e+00 1.760950e+00 -7.202972e-01
2.084660e+00 1.553679e+00 -3.878626e-03
2.315344e+00 1.130238e+00 5.947521e-01
2.088433e+00 4.963371e-01 1.067360e+00
1.421753e+00 -3.046090e-01 1.375829e+00
5.857483e-01 -9.928731e-01 1.435330e+00
-1.639574e-01 -1.383425e+00 1.259957e+00
-7.764556e-01 -1.552194e+00 9.583768e-01
-1.245255e+00 -1.577507e+00 6.116732e-01
1.622702e+00 2.354050e+00 -3.255378e-01
2.121671e+00 2.097602e+00 1.657056e-01
2.215372e+00 1.564736e+00 5.512309e-01
1.870489e+00 7.327797e-01 8.211942e-01
1.116119e+00 -3.367308e-01 9.574241e-01
2.450550e-01 -1.260350e+00 9.275506e-01
-4.807641e-01 -1.797390e+00 7.622883e-01
-1.034094e+00 -2.035166e+00 5.328499e-01
-1.430530e+00 -2.071950e+00 2.887859e-01
1.874588e+00 2.482153e+00 -1.499334e-02
2.142195e+00 2.289306e+00 2.176770e-01
2.041689e+00 1.784628e+00 3.801190e-01
1.541590e+00 9.400566e-01 4.667596e-01
6.781076e-01 -1.875936e-01 4.678579e-01
-2.192285e-01 -1.183930e+00 3.964903e-01
-8.943824e-01 -1.787083e+00 2.808328e-01
-1.355236e+00 -2.080062e+00 1.508425e-01
-1.641069e+00 -2.155480e+00 2.757552e-02
2.030056e+00 2.139055e+00 2.873437e-02
2.068034e+00 2.106476e+00 5.510863e-02
1.789547e+00 1.763321e+00 6.963425e-02
1.165058e+00 1.080830e+00 7.036183e-02
2.409097e-01 1.091436e-01 5.718571e-02
-6.389092e-01 -7.923489e-01 3.681120e-02
-1.234256e+00 -1.380773e+00 1.545337e-02
-1.586256e+00 -1.708882e+00 -4.009385e-03
-1.756035e+00 -1.846377e+00 -2.010132e-02
1.971092e+00 1.525583e+00 -2.511034e-01
1.850946e+00 1.672677e+00 -3.289674e-01
1.470649e+00 1.541232e+00 -3.501559e-01
8.124337e-01 1.113505e+00 -3.012399e-01
-7.605729e-02 4.196510e-01 -1.872009e-01
-8.699826e-01 -2.783463e-01 -5.631243e-02
-1.359532e+00 -7.848732e-01 5.404750e-02
-1.606116e+00 -1.117631e+00 1.381214e-01
-1.681772e+00 -1.312104e+00 1.961177e-01
1.690602e+00 8.988439e-01 -7.553868e-01
1.506126e+00 1.163779e+00 -8.511147e-01
1.119273e+00 1.207701e+00 -8.110715e-01
5.245252e-01 1.017380e+00 -6.158419e-01
-2.304578e-01 6.121931e-01 -2.751264e-01
-8.753928e-01 1.440720e-01 7.257258e-02
-1.245673e+00 -2.470422e-01 3.297838e-01
-1.403836e+00 -5.464224e-01 5.028794e-01
-1.420525e+00 -7.665662e-01 6.061145e-01
1.273468e+00 4.241408e-01 -1.327812e+00
1.089292e+00 7.132584e-01 -1.395959e+00
7.719408e-01 8.546699e-01 -1.249164e+00
3.173511e-01 8.208723e-01 -8.632213e-01
-2.458160e-01 6.229909e-01 -2.691056e-01
-7.157264e-01 3.523890e-01 3.049493e-01
-9.708868e-01 8.741739e-02 7.040710e-01
-1.061736e+00 -1.487477e-01 9.512340e-01
-1.040249e+00 -3.473911e-01 1.081079e+00
9.274579e-01 -6.462317e-08 -9.175217e-01
1.795070e+00 -8.345636e-08 3.396576e-02
2.292167e+00 -1.195887e-07 8.121251e-01
2.321182e+00 -9.990773e-08 1.399085e+00
1.890518e+00 -1.012452e-07 1.773053e+00
1.225973e+00 -1.415787e-07 1.827187e+00
5.170683e-01 -2.020437e-07 1.583780e+00
-1.356809e-01 -2.316619e-07 1.174314e+00
-6.794331e-01 -2.440528e-07 6.721540e-01
7.333146e-01 8.502768e-01 -6.578596e-01
1.687681e+00 7.376480e-01 2.058153e-01
2.227878e+00 5.076345e-01 9.152619e-01