<?xml version="1.0"?>
<VTKFile type="StructuredGrid" version="0.1">
  <StructuredGrid WholeExtent="0 8 0 8 0 8">
    <Piece Extent="0 8 0 8 0 8">
      <PointData Scalars="temperature" Vectors="velocity">
        <DataArray type="Float32" Name="temperature" format="ascii">
1.000000e+00
8.682630e-01
7.434889e-01
6.191058e-01
4.945475e-01
3.698981e-01
2.451313e-01
1.206639e-01
0.000000e+00
1.000000e+00
8.681983e-01
7.433616e-01
6.188665e-01
4.942195e-01
3.697004e-01
2.450481e-01
1.206328e-01
0.000000e+00
1.000000e+00
8.678563e-01
7.427042e-01
6.176333e-01
4.924533e-01
3.686762e-01
2.446015e-01
1.204435e-01
0.000000e+00
1.000000e+00
8.672390e-01
7.415112e-01
6.153847e-01
4.892213e-01
3.668355e-01
2.437943e-01
1.200963e-01
0.000000e+00
1.000000e+00
8.664217e-01
7.399258e-01
6.123906e-01
4.849470e-01
3.644443e-01
2.427402e-01
1.196371e-01
0.000000e+00
1.000000e+00
8.655552e-01
7.382414e-01
6.092042e-01
4.804419e-01
3.619764e-01
2.416465e-01
1.191564e-01
0.000000e+00
1.000000e+00
8.648101e-01
7.367947e-01
6.064643e-01
4.766010e-01
3.599217e-01
2.407362e-01
1.187513e-01
0.000000e+00
1.000000e+00
8.642805e-01
7.357870e-01
6.046303e-01
4.740478e-01
3.586087e-01
2.401801e-01
1.185426e-01
0.000000e+00
1.000000e+00
8.627855e-01
7.342153e-01
6.027001e-01
4.719302e-01
3.570952e-01
2.388845e-01
1.173875e-01
0.000000e+00
1.000000e+00
8.683383e-01
7.436288e-01
6.193666e-01
4.949093e-01
3.701197e-01
2.452284e-01
1.207046e-01
0.000000e+00
1.000000e+00
8.682503e-01
7.434618e-01
6.190572e-01
4.944835e-01
3.698625e-01
2.451175e-01
1.206601e-01
0.000000e+00
1.000000e+00
8.678699e-01
7.427295e-01
6.176785e-01
4.924711e-01
3.687179e-01
2.446213e-01
1.204519e-01
0.000000e+00
1.000000e+00
8.671944e-01
7.414210e-01
6.152023e-01
4.888476e-01
3.666964e-01
2.437417e-01
1.200780e-01
0.000000e+00
1.000000e+00
8.663194e-01
7.397155e-01
6.119646e-01
4.841537e-01
3.641241e-01
2.426167e-01
1.195954e-01
0.000000e+00
1.000000e+00
8.654279e-01
7.379652e-01
6.086320e-01
4.793979e-01
3.615592e-01
2.414897e-01
1.191079e-01
0.000000e+00
1.000000e+00
8.647163e-01
7.365578e-01
6.059433e-01
4.756356e-01
3.595522e-01
2.406095e-01
1.187290e-01
0.000000e+00
1.000000e+00
8.642184e-01
7.356570e-01
6.043245e-01
4.734600e-01
3.583880e-01
2.400888e-01
1.185021e-01
0.000000e+00
1.000000e+00
8.641010e-01
7.354335e-01
6.039505e-01
4.730528e-01
3.581202e-01
2.399668e-01
1.184515e-01
0.000000e+00
1.000000e+00
8.686623e-01
7.442614e-01
6.205764e-01
4.966862e-01
3.711622e-01
2.456774e-01
1.208895e-01
0.000000e+00
1.000000e+00
8.685786e-01
7.440985e-01
6.202751e-01
4.963023e-01
3.709089e-01
2.455688e-01
1.208474e-01
0.000000e+00
1.000000e+00
8.681748e-01
7.433256e-01
6.188233e-01
4.941676e-01
3.696887e-01
2.450398e-01
1.206249e-01
0.000000e+00
1.000000e+00
8.674434e-01
7.419188e-01
6.161687e-01
4.902624e-01
3.674994e-01
2.440906e-01
1.202229e-01
0.000000e+00
1.000000e+00
8.665010e-01
7.400937e-01
6.127117e-01
4.852261e-01
3.647317e-01
2.428859e-01
1.197082e-01
0.000000e+00
1.000000e+00
8.655681e-01
7.382682e-01
6.092365e-01
4.802449e-01
3.620374e-01
2.417066e-01
1.192005e-01
0.000000e+00
1.000000e+00
8.648695e-01
7.368839e-01
6.065795e-01
4.765111e-01
3.600292e-01
2.408221e-01
1.188199e-01
0.000000e+00
1.000000e+00
8.645385e-01
7.362039e-01
6.052623e-01
4.746840e-01
3.590490e-01
2.403865e-01
1.186311e-01
0.000000e+00
1.000000e+00
8.644597e-01
7.361036e-01
6.051408e-01
4.747268e-01
3.589485e-01
2.403091e-01
1.185669e-01
0.000000e+00
1.000000e+00
8.692417e-01
7.453900e-01
6.227337e-01
4.999187e-01
3.730560e-01
2.464937e-01
1.212273e-01
0.000000e+00
1.000000e+00
8.691918e-01
7.452819e-01
6.225321e-01
4.997392e-01
3.728838e-01
2.464217e-01
1.212038e-01
0.000000e+00
1.000000e+00
8.688016e-01
7.445364e-01
6.211333e-01
4.976527e-01
3.716773e-01
2.458970e-01
1.209826e-01
0.000000e+00
1.000000e+00
8.680524e-01
7.431047e-01
6.184391e-01
4.936372e-01
3.694004e-01
2.449128e-01
1.205678e-01
0.000000e+00
1.000000e+00
8.670741e-01
7.412226e-01
6.148859e-01
4.883899e-01
3.664908e-01
2.436528e-01
1.200327e-01
0.000000e+00
1.000000e+00
8.661128e-01
7.393515e-01
6.113291e-01
4.832238e-01
3.636705e-01
2.424247e-01
1.195075e-01
0.000000e+00
1.000000e+00
8.654176e-01
7.379722e-01
6.086718e-01
4.794398e-01
3.616091e-01
2.415182e-01
1.191189e-01
0.000000e+00
1.000000e+00
8.651136e-01
7.373428e-01
6.074394e-01
4.777064e-01
3.606589e-01
2.410918e-01
1.189344e-01
0.000000e+00
1.000000e+00
8.650884e-01
7.373212e-01
6.074461e-01
4.779504e-01
3.606485e-01
2.410631e-01
1.189045e-01
0.000000e+00
1.000000e+00
8.700001e-01
7.468580e-01
6.255289e-01
5.041876e-01
3.755703e-01
2.475725e-01
1.216715e-01
0.000000e+00
1.000000e+00
8.700025e-01
7.468333e-01
6.254743e-01
5.042957e-01
3.755246e-01
2.475586e-01
1.216773e-01
0.000000e+00
1.000000e+00
8.696530e-01
7.461636e-01
6.242139e-01
5.023812e-01
3.743956e-01
2.470652e-01
1.214691e-01
0.000000e+00
1.000000e+00
8.689234e-01
7.447762e-01
6.216050e-01
4.984256e-01
3.721098e-01
2.460793e-01
1.210569e-01
0.000000e+00
1.000000e+00
8.679458e-01
7.429081e-01
6.180865e-01
4.931333e-01
3.691268e-01
2.447940e-01
1.205159e-01
0.000000e+00
1.000000e+00
8.669743e-01
7.410303e-01
6.145237e-01
4.878607e-01
3.662035e-01
2.435286e-01
1.199797e-01
0.000000e+00
1.000000e+00
8.662637e-01
7.396314e-01
6.118337e-01
4.839566e-01
3.640462e-01
2.425866e-01
1.195796e-01
0.000000e+00
1.000000e+00
8.659414e-01
7.389726e-01
6.105457e-01
4.821100e-01
3.630209e-01
2.421320e-01
1.193856e-01
0.000000e+00
1.000000e+00
8.659158e-01
7.389328e-01
6.104984e-01
4.822432e-01
3.629702e-01
2.420945e-01
1.193597e-01
0.000000e+00
1.000000e+00
8.707896e-01
7.483753e-01
6.284082e-01
5.086798e-01
3.782305e-01
2.487037e-01
1.221308e-01
0.000000e+00
1.000000e+00
8.708361e-01
7.484156e-01
6.284582e-01
5.089873e-01
3.782811e-01
2.487380e-01
1.221646e-01
0.000000e+00
1.000000e+00
8.705257e-01
7.478174e-01
6.273254e-01
5.072308e-01
3.772258e-01
2.482763e-01
1.219702e-01
0.000000e+00
1.000000e+00
8.698331e-01
7.465053e-01
6.248580e-01
5.034194e-01
3.749806e-01
2.473116e-01
1.215710e-01
0.000000e+00
1.000000e+00
8.688857e-01
7.447052e-01
6.214741e-01
4.982316e-01
3.720018e-01
2.460339e-01
1.210382e-01
0.000000e+00
1.000000e+00
8.679273e-01
7.428659e-01
6.179925e-01
4.929782e-01
3.690366e-01
2.447569e-01
1.205022e-01
0.000000e+00
1.000000e+00
8.672025e-01
7.414536e-01
6.152897e-01
4.889757e-01
3.667920e-01
2.437841e-01
1.200927e-01
0.000000e+00
1.000000e+00
8.668385e-01
7.407267e-01
6.138811e-01
4.869182e-01
3.656373e-01
2.432793e-01
1.198798e-01
0.000000e+00
1.000000e+00
8.667788e-01
7.406132e-01
6.136780e-01
4.867577e-01
3.654651e-01
2.431967e-01
1.198416e-01
0.000000e+00
1.000000e+00
8.714478e-01
7.496353e-01
6.307941e-01
5.124873e-01
3.804828e-01
2.496452e-01
1.225033e-01
0.000000e+00
1.000000e+00
8.715085e-01
7.496777e-01
6.308299e-01
5.127504e-01
3.805262e-01
2.496885e-01
1.225510e-01
0.000000e+00
1.000000e+00
8.711999e-01
7.490910e-01
6.297240e-01
5.110036e-01
3.794735e-01
2.492351e-01
1.223620e-01
0.000000e+00
1.000000e+00
8.705393e-01
7.478439e-01
6.273770e-01
5.073167e-01
3.772774e-01
2.482993e-01
1.219800e-01
0.000000e+00
1.000000e+00
8.696394e-01
7.461394e-01
6.241731e-01
5.023286e-01
3.743680e-01
2.470551e-01
1.214656e-01
0.000000e+00
1.000000e+00
8.687212e-01
7.443851e-01
6.208545e-01
4.972439e-01
3.714489e-01
2.458007e-01
1.209429e-01
0.000000e+00
1.000000e+00
8.680046e-01
7.429996e-01
6.182114e-01
4.932677e-01
3.691859e-01
2.448236e-01
1.205342e-01
0.000000e+00
1.000000e+00
8.676086e-01
7.422235e-01
6.167196e-01
4.910593e-01
3.679311e-01
2.442798e-01
1.203072e-01
0.000000e+00
1.000000e+00
8.675110e-01
7.420345e-01
6.163642e-01
4.906076e-01
3.676331e-01
2.441488e-01
1.202525e-01
0.000000e+00
1.000000e+00
8.718713e-01
7.504040e-01
6.322795e-01
5.149482e-01
3.818945e-01
2.501968e-01
1.227314e-01
0.000000e+00
1.000000e+00
8.718199e-01
7.503196e-01
6.321149e-01
5.148441e-01
3.817562e-01
2.501710e-01
1.227341e-01
0.000000e+00
1.000000e+00
8.715516e-01
7.497591e-01
6.309832e-01
5.129973e-01
3.806754e-01
2.497525e-01
1.225777e-01
0.000000e+00
1.000000e+00
8.708991e-01
7.485359e-01
6.286867e-01
5.093555e-01
3.785002e-01
2.488331e-01
1.222047e-01
0.000000e+00
1.000000e+00
8.700536e-01
7.469329e-01
6.256676e-01
5.046093e-01
3.757085e-01
2.476397e-01
1.217122e-01
0.000000e+00
1.000000e+00
8.691997e-01
7.453005e-01
6.225750e-01
4.998224e-01
3.729322e-01
2.464449e-01
1.212148e-01
0.000000e+00
1.000000e+00
8.685229e-01
7.439943e-01
6.200846e-01
4.960341e-01
3.707557e-01
2.455043e-01
1.208214e-01
0.000000e+00
1.000000e+00
8.681251e-01
7.432218e-01
6.186064e-01
4.938255e-01
3.694895e-01
2.449569e-01
1.205933e-01
0.000000e+00
1.000000e+00
8.680051e-01
7.429911e-01
6.181694e-01
4.932093e-01
3.691211e-01
2.447988e-01
1.205301e-01
0.000000e+00
1.000000e+00
8.708132e-01
7.495576e-01
6.317132e-01
5.146646e-01
3.810830e-01
2.491579e-01
1.216275e-01
0.000000e+00
1.000000e+00
8.719247e-01
7.505017e-01
6.324606e-01
5.152561e-01
3.820684e-01
2.502692e-01
1.227600e-01
0.000000e+00
1.000000e+00
8.715494e-01
7.498233e-01
6.311439e-01
5.130543e-01
3.808170e-01
2.497862e-01
1.225601e-01
0.000000e+00
1.000000e+00
8.709211e-01
7.486218e-01
6.288697e-01
5.094106e-01
3.786629e-01
2.488881e-01
1.222060e-01
0.000000e+00
1.000000e+00
8.701373e-01
7.471179e-01
6.260187e-01
5.049466e-01
3.760173e-01
2.477645e-01
1.217507e-01
0.000000e+00
1.000000e+00
8.693591e-01
7.456142e-01
6.231585e-01
5.005641e-01
3.734334e-01
2.466566e-01
1.212949e-01
0.000000e+00
1.000000e+00
8.687403e-01
7.444107e-01
6.208595e-01
4.971083e-01
3.714077e-01
2.457833e-01
1.209331e-01
0.000000e+00
1.000000e+00
8.683677e-01
7.436830e-01
6.194672e-01
4.950534e-01
3.702044e-01
2.452638e-01
1.207177e-01
0.000000e+00
1.000000e+00
8.682332e-01
7.434373e-01
6.190134e-01
4.944137e-01
3.698239e-01
2.451020e-01
1.206546e-01
0.000000e+00
        </DataArray>
        <DataArray type="Float32" Name="velocity" NumberOfComponents="3" format="ascii">
-3.7095e-01 3.6999e-01 -1.0537e-02
-3.7224e-01 3.5204e-01 -9.5639e-03
-3.0637e-01 2.7311e-01 -6.6904e-03
-1.8914e-01 1.5379e-01 -2.9341e-03
-4.5893e-02 1.5951e-02 8.3284e-04
9.0580e-02 -1.1103e-01 3.8403e-03
1.9586e-01 -2.0670e-01 5.8463e-03
2.6305e-01 -2.6549e-01 6.9756e-03
2.9319e-01 -2.9247e-01 7.5269e-03
3.5186e-01 -4.8152e-01 1.1814e+00
3.6749e-01 -4.4903e-01 1.1544e+00
3.1549e-01 -3.3908e-01 9.2299e-01
2.1176e-01 -1.7639e-01 5.4469e-01
7.9355e-02 7.5445e-03 9.5700e-02
-5.1328e-02 1.7367e-01 -3.2520e-01
-1.5759e-01 2.9389e-01 -6.4612e-01
-2.3264e-01 3.6089e-01 -8.4688e-01
-2.7602e-01 3.7821e-01 -9.3475e-01
7.7427e-01 -1.5571e+00 2.3334e+00
9.7661e-01 -1.3527e+00 2.3036e+00
9.7892e-01 -9.3596e-01 1.8666e+00
8.0047e-01 -3.8808e-01 1.1286e+00
4.9909e-01 1.9709e-01 2.4040e-01
1.5721e-01 6.9964e-01 -5.9827e-01
-1.5938e-01 1.0398e+00 -1.2440e+00
-4.1551e-01 1.2066e+00 -1.6537e+00
-6.0297e-01 1.2173e+00 -1.8403e+00
7.7149e-01 -2.6188e+00 3.1898e+00
1.3642e+00 -2.1734e+00 3.2394e+00
1.6339e+00 -1.4128e+00 2.7097e+00
1.5756e+00 -4.6650e-01 1.7313e+00
1.2584e+00 5.0938e-01 5.1383e-01
7.9498e-01 1.3211e+00 -6.6161e-01
2.9126e-01 1.8437e+00 -1.5876e+00
-1.8394e-01 2.0688e+00 -2.1993e+00
-5.9092e-01 2.0298e+00 -2.5021e+00
3.7747e-01 -3.3321e+00 3.5287e+00
1.5251e+00 -2.6725e+00 3.7816e+00
2.2412e+00 -1.6571e+00 3.3397e+00
2.4702e+00 -4.3672e-01 2.3214e+00
2.2771e+00 7.9551e-01 9.6676e-01
1.7828e+00 1.7944e+00 -3.9376e-01
1.1204e+00 2.4152e+00 -1.5162e+00
4.1103e-01 2.6518e+00 -2.3024e+00
-2.7226e-01 2.5427e+00 -2.7416e+00
-1.9298e-01 -3.4068e+00 3.2767e+00
1.5608e+00 -2.6664e+00 3.8581e+00
2.7768e+00 -1.6022e+00 3.6873e+00
3.3585e+00 -3.4614e-01 2.8471e+00
3.3496e+00 9.0130e-01 1.5741e+00
2.8696e+00 1.8984e+00 2.0120e-01
2.0785e+00 2.4990e+00 -1.0061e+00
1.1387e+00 2.7071e+00 -1.9305e+00
1.7277e-01 2.5489e+00 -2.5213e+00
-6.4558e-01 -2.7783e+00 2.5744e+00
1.6155e+00 -2.1191e+00 3.5339e+00
3.2441e+00 -1.2490e+00 3.7541e+00
4.1047e+00 -2.3673e-01 3.2510e+00
4.2346e+00 7.6396e-01 2.2270e+00
3.7526e+00 1.5536e+00 9.8778e-01
2.8448e+00 2.0275e+00 -2.1247e-01
1.7179e+00 2.1704e+00 -1.2150e+00
5.1172e-01 1.9884e+00 -1.9446e+00
-7.5854e-01 -1.5626e+00 1.6449e+00
1.8299e+00 -1.1489e+00 2.9817e+00
3.6649e+00 -6.7762e-01 3.6106e+00
4.6377e+00 -1.1770e-01 3.4951e+00
4.7861e+00 4.2802e-01 2.8021e+00
4.2404e+00 8.5730e-01 1.7766e+00
3.2119e+00 1.1168e+00 6.5223e-01
1.9449e+00 1.2112e+00 -4.0306e-01
5.8658e-01 1.0490e+00 -1.2417e+00
-4.5277e-01 -5.9224e-08 7.1204e-01
2.2504e+00 -1.4333e-07 2.4075e+00
4.0195e+00 -1.7934e-07 3.3284e+00
4.8908e+00 -2.2102e-07 3.5492e+00
4.8993e+00 -2.1265e-07 3.1609e+00
4.2212e+00 -2.8822e-07 2.3638e+00
3.0899e+00 -2.5573e-07 1.3666e+00
1.7213e+00 -2.2957e-07 3.2042e-01
3.8810e-01 -3.4354e-07 -6.1033e-01
5.3287e-01 -3.9511e-01 -1.1121e+00
4.7640e-01 -4.3213e-01 -1.0862e+00
3.4446e-01 -3.8834e-01 -8.7195e-01
1.6401e-01 -2.7546e-01 -5.1876e-01
-3.4000e-02 -1.2098e-01 -9.7111e-02
-2.1046e-01 3.6253e-02 2.9993e-01
-3.3665e-01 1.6717e-01 6.0422e-01
-4.0635e-01 2.6083e-01 7.9623e-01
-4.2649e-01 3.1658e-01 8.8397e-01
1.3004e+00 -1.3272e+00 7.9648e-02
1.2649e+00 -1.2984e+00 7.7730e-02
1.0085e+00 -1.0394e+00 5.9107e-02
5.9298e-01 -6.1313e-01 3.1322e-02
1.0095e-01 -1.0591e-01 6.4683e-04
-3.6094e-01 3.7013e-01 -2.6286e-02
-7.1479e-01 7.3342e-01 -4.5483e-02
-9.3807e-01 9.6038e-01 -5.6232e-02
-1.0394e+00 1.0598e+00 -5.7893e-02
1.7451e+00 -2.5050e+00 1.2004e+00
1.9112e+00 -2.2698e+00 1.2196e+00
1.7094e+00 -1.6603e+00 1.0202e+00
1.2145e+00 -8.0137e-01 6.5270e-01
5.4244e-01 1.4865e-01 1.9510e-01
-1.4676e-01 9.8980e-01 -2.4642e-01
-7.2659e-01 1.5872e+00 -5.9264e-01
-1.1472e+00 1.9147e+00 -8.2072e-01
-1.4047e+00 2.0043e+00 -9.3008e-01
1.7249e+00 -3.6386e+00 1.9582e+00
2.3125e+00 -3.1257e+00 2.1175e+00
2.3898e+00 -2.1253e+00 1.8869e+00
2.0232e+00 -8.2441e-01 1.3319e+00
1.3383e+00 5.5022e-01 5.8076e-01
5.2130e-01 1.7178e+00 -1.8079e-01
-2.6009e-01 2.5011e+00 -8.1125e-01
-9.1399e-01 2.8821e+00 -1.2564e+00
-1.4104e+00 2.9216e+00 -1.5042e+00
1.2869e+00 -4.3091e+00 2.1192e+00
2.4636e+00 -3.5789e+00 2.5857e+00
2.9986e+00 -2.3047e+00 2.5356e+00
2.9373e+00 -7.2014e-01 2.0257e+00
2.3895e+00 9.0543e-01 1.1998e+00
1.5443e+00 2.2485e+00 2.8129e-01
6.0108e-01 3.1135e+00 -5.4279e-01
-3.0117e-01 3.4963e+00 -1.1897e+00
-1.0876e+00 3.4875e+00 -1.6161e+00
6.9283e-01 -4.1850e+00 1.6721e+00
2.4760e+00 -3.4182e+00 2.5727e+00
3.5100e+00 -2.1250e+00 2.8937e+00
3.8056e+00 -5.5718e-01 2.6535e+00
3.4524e+00 1.0239e+00 1.9767e+00
2.6293e+00 2.3085e+00 1.0816e+00
1.5614e+00 3.1188e+00 1.7030e-01
4.3658e-01 3.4572e+00 -6.3352e-01
-6.3263e-01 3.4351e+00 -1.2572e+00
2.8307e-01 -3.2213e+00 8.2950e-01
2.5177e+00 -2.6303e+00 2.1983e+00
3.9239e+00 -1.6074e+00 2.9693e+00
4.4801e+00 -3.8185e-01 3.1232e+00
4.2593e+00 8.4134e-01 2.7401e+00
3.4413e+00 1.8313e+00 1.9985e+00
2.2716e+00 2.4529e+00 1.0993e+00
9.7501e-01 2.7192e+00 1.8879e-01
-2.9080e-01 2.7276e+00 -6.2239e-01
2.5262e-01 -1.6739e+00 -6.3545e-02
2.7119e+00 -1.4059e+00 1.6566e+00
4.2580e+00 -8.5324e-01 2.8323e+00
4.8786e+00 -2.0011e-01 3.3695e+00
4.6541e+00 4.4647e-01 3.3083e+00
3.7784e+00 9.7088e-01 2.7746e+00
2.5191e+00 1.3100e+00 1.9511e+00
1.1207e+00 1.4663e+00 1.0082e+00
-2.6676e-01 1.5392e+00 1.0626e-01
7.1419e-01 -1.5471e-07 -8.9460e-01
3.0246e+00 -9.8030e-09 1.1443e+00
4.4886e+00 -1.7835e-07 2.5711e+00
4.9674e+00 -2.4635e-07 3.3824e+00
4.5979e+00 -2.4264e-07 3.5785e+00
3.6130e+00 -3.3907e-07 3.2399e+00
2.2867e+00 -3.2036e-07 2.5195e+00
8.7150e-01 -3.5084e-07 1.5959e+00
-3.9155e-01 -3.4488e-07 4.9046e-01
1.6606e+00 -8.6626e-01 -2.1598e+00
1.4297e+00 -1.0911e+00 -2.1392e+00
9.8245e-01 -1.0930e+00 -1.7475e+00
4.0202e-01 -8.8972e-01 -1.0732e+00
-2.1773e-01 -5.4677e-01 -2.5190e-01
-7.5264e-01 -1.5850e-01 5.3100e-01
-1.1174e+00 1.9788e-01 1.1385e+00
-1.2992e+00 4.8336e-01 1.5283e+00
-1.3188e+00 6.8864e-01 1.7110e+00
2.5038e+00 -1.8686e+00 -9.5783e-01
2.2778e+00 -2.0187e+00 -9.8251e-01
1.6785e+00 -1.7799e+00 -8.3657e-01
8.2861e-01 -1.2361e+00 -5.5199e-01
-1.1821e-01 -5.1125e-01 -1.8654e-01
-9.6441e-01 2.2254e-01 1.7365e-01
-1.5730e+00 8.2994e-01 4.6117e-01
-1.9147e+00 1.2599e+00 6.5465e-01
-2.0170e+00 1.5104e+00 7.5376e-01
3.0234e+00 -3.1572e+00 1.3639e-01
2.9776e+00 -3.0571e+00 1.4208e-01
2.4066e+00 -2.4207e+00 1.1910e-01
1.4452e+00 -1.3940e+00 7.6387e-02
2.8556e-01 -1.8010e-01 2.4925e-02
-8.1567e-01 9.5333e-01 -2.3399e-02
-1.6669e+00 1.8113e+00 -6.1203e-02
-2.2137e+00 2.3437e+00 -8.5608e-02
-2.4672e+00 2.5696e+00 -9.6420e-02
3.0547e+00 -4.3990e+00 8.0233e-01
3.4149e+00 -3.9494e+00 9.9758e-01
3.1006e+00 -2.8643e+00 9.9188e-01
2.2416e+00 -1.3424e+00 8.0561e-01
1.0432e+00 3.3916e-01 4.9476e-01
-2.0418e-01 1.8237e+00 1.4442e-01
-1.2683e+00 2.8734e+00 -1.7574e-01
-2.0518e+00 3.4481e+00 -4.2694e-01
-2.5334e+00 3.5970e+00 -5.9148e-01
2.6344e+00 -5.0903e+00 8.1131e-01
3.5742e+00 -4.3611e+00 1.3972e+00
3.6996e+00 -2.9639e+00 1.6515e+00
3.1275e+00 -1.1344e+00 1.5824e+00
2.0531e+00 8.0650e-01 1.2515e+00
7.7135e-01 2.4616e+00 7.7464e-01
-4.5314e-01 3.5760e+00 2.6289e-01
-1.4809e+00 4.1320e+00 -2.0267e-01
-2.2405e+00 4.2034e+00 -5.7002e-01
2.0492e+00 -4.8444e+00 2.1135e-01
3.5683e+00 -4.0525e+00 1.3218e+00
4.1680e+00 -2.6455e+00 2.0263e+00
3.9383e+00 -8.6182e-01 2.2952e+00
3.0553e+00 9.8917e-01 2.1669e+00
1.8041e+00 2.5352e+00 1.7407e+00
4.6806e-01 3.5538e+00 1.1435e+00
-7.6447e-01 4.0377e+00 4.9971e-01
-1.7835e+00 4.0689e+00 -9.4098e-02
1.6466e+00 -3.6440e+00 -6.7218e-01
3.5686e+00 -3.0441e+00 9.3637e-01
4.5017e+00 -1.9521e+00 2.1207e+00
4.5162e+00 -5.8191e-01 2.8123e+00
3.7711e+00 8.2090e-01 2.9960e+00
2.5458e+00 1.9851e+00 2.7320e+00
1.1363e+00 2.7452e+00 2.1425e+00
-2.4491e-01 3.1178e+00 1.3857e+00
-1.4415e+00 3.1630e+00 5.9806e-01
1.6380e+00 -1.8794e+00 -1.4725e+00
3.6817e+00 -1.5901e+00 4.5147e-01
4.7112e+00 -1.0087e+00 2.0117e+00
4.7834e+00 -2.9199e-01 3.0550e+00
4.0519e+00 4.3237e-01 3.5281e+00
2.8042e+00 1.0315e+00 3.4454e+00
1.3537e+00 1.4269e+00 2.9153e+00
-7.8404e-02 1.6192e+00 2.1113e+00
-1.3640e+00 1.6721e+00 1.2095e+00
2.0795e+00 -8.8007e-08 -2.0573e+00
3.9051e+00 -1.2062e-07 7.5824e-02
4.8198e+00 -2.5083e-07 1.8078e+00
4.7495e+00 -1.3149e-07 3.0236e+00
3.8894e+00 -1.5465e-07 3.6676e+00
2.5689e+00 -3.4567e-07 3.7203e+00
1.0977e+00 -5.3588e-07 3.2714e+00
-2.8243e-01 -5.6886e-07 2.4673e+00
-1.4226e+00 -5.3097e-07 1.4074e+00
2.7755e+00 -9.2408e-01 -2.8951e+00
2.3014e+00 -1.5329e+00 -2.9697e+00
1.5012e+00 -1.7863e+00 -2.5217e+00
5.0676e-01 -1.6819e+00 -1.6537e+00
-5.2627e-01 -1.2992e+00 -5.4846e-01
-1.3956e+00 -7.6790e-01 5.3667e-01
-1.9638e+00 -2.0826e-01 1.4033e+00
-2.2162e+00 3.0430e-01 1.9839e+00
-2.1914e+00 7.3113e-01 2.2801e+00
3.6855e+00 -1.9629e+00 -1.6381e+00
3.1910e+00 -2.5007e+00 -1.8055e+00
2.1992e+00 -2.4980e+00 -1.6443e+00
8.9562e-01 -2.0367e+00 -1.1983e+00
-4.9858e-01 -1.2555e+00 -5.6803e-01
-1.7006e+00 -3.5953e-01 8.8095e-02
-2.5214e+00 4.6895e-01 6.4210e-01
-2.9337e+00 1.1368e+00 1.0410e+00
-2.9937e+00 1.6176e+00 1.2721e+00
4.3064e+00 -3.3425e+00 -5.3224e-01
3.9326e+00 -3.5898e+00 -6.9150e-01
2.9209e+00 -3.1453e+00 -7.1334e-01
1.4589e+00 -2.1567e+00 -6.0252e-01
-1.8889e-01 -8.4538e-01 -3.9286e-01
-1.6721e+00 4.7828e-01 -1.4461e-01
-2.7461e+00 1.5705e+00 8.9193e-02
-3.3579e+00 2.3386e+00 2.7685e-01
-3.5485e+00 2.7738e+00 4.0454e-01
4.4459e+00 -4.6981e+00 7.9187e-02
4.4107e+00 -4.5152e+00 1.2839e-01
3.5952e+00 -3.5531e+00 1.4649e-01
2.1824e+00 -2.0109e+00 1.3734e-01
4.5613e-01 -1.8889e-01 1.0798e-01
-1.1954e+00 1.5088e+00 6.7317e-02
-2.4833e+00 2.7914e+00 2.3596e-02
-3.3169e+00 3.5808e+00 -1.6737e-02
-3.7084e+00 3.9045e+00 -4.8788e-02
4.1166e+00 -5.4618e+00 -2.3848e-02
4.5894e+00 -4.9042e+00 4.7566e-01
4.1546e+00 -3.5620e+00 8.0775e-01
2.9812e+00 -1.6686e+00 9.6410e-01
1.3486e+00 4.3487e-01 9.5355e-01
-3.4576e-01 2.2998e+00 8.0794e-01
-1.7854e+00 3.6256e+00 5.7773e-01
-2.8352e+00 4.3588e+00 3.1216e-01
-3.4690e+00 4.5591e+00 5.6028e-02
3.5754e+00 -5.1845e+00 -7.1853e-01
4.5683e+00 -4.4962e+00 3.6497e-01
4.5594e+00 -3.1053e+00 1.1991e+00
3.6965e+00 -1.2484e+00 1.7384e+00
2.2447e+00 7.4675e-01 1.9635e+00
5.8866e-01 2.4667e+00 1.8852e+00
-9.3939e-01 3.6498e+00 1.5696e+00
-2.1671e+00 4.2658e+00 1.1150e+00
-3.0289e+00 4.3881e+00 6.1086e-01
3.1687e+00 -3.8777e+00 -1.6004e+00
4.5084e+00 -3.3326e+00 6.0607e-05
4.8021e+00 -2.2440e+00 1.3279e+00
4.1755e+00 -8.2456e-01 2.2958e+00
2.8753e+00 6.7319e-01 2.8330e+00
1.2747e+00 1.9472e+00 2.9099e+00
-2.9226e-01 2.8102e+00 2.5912e+00
-1.6297e+00 3.2552e+00 2.0086e+00
-2.6387e+00 3.3480e+00 1.2944e+00
3.0852e+00 -1.9728e+00 -2.2669e+00
4.5218e+00 -1.7175e+00 -3.8705e-01
4.9050e+00 -1.1414e+00 1.2723e+00
4.3546e+00 -4.0490e-01 2.5456e+00
3.1054e+00 3.5825e-01 3.3269e+00
1.5278e+00 1.0039e+00 3.5483e+00
-3.8733e-02 1.4422e+00 3.2651e+00
-1.3968e+00 1.6690e+00 2.6243e+00
-2.4738e+00 1.7510e+00 1.7931e+00
3.3613e+00 -1.3116e-07 -2.5843e+00
4.6222e+00 -2.3318e-07 -6.1027e-01
4.9151e+00 -1.9313e-07 1.1376e+00
4.2701e+00 -2.9436e-07 2.4996e+00
2.9496e+00 -1.3606e-07 3.3689e+00
1.3460e+00 -3.0010e-07 3.6721e+00
-2.0260e-01 -4.3687e-07 3.4402e+00
-1.5103e+00 -4.9180e-07 2.8100e+00
-2.4637e+00 -6.2845e-07 1.8942e+00
3.5445e+00 -6.0572e-01 -3.1015e+00
2.8510e+00 -1.7503e+00 -3.4008e+00
1.7844e+00 -2.4235e+00 -3.0840e+00
4.9812e-01 -2.5782e+00 -2.2298e+00
-8.1600e-01 -2.2932e+00 -1.0385e+00
-1.9004e+00 -1.7096e+00 1.9477e-01
-2.5877e+00 -9.7823e-01 1.2354e+00
-2.8625e+00 -2.2504e-01 1.9817e+00
-2.7718e+00 4.7725e-01 2.4152e+00
4.4333e+00 -1.6462e+00 -1.7260e+00
3.7165e+00 -2.7289e+00 -2.2062e+00
2.4349e+00 -3.1342e+00 -2.2422e+00
8.2222e-01 -2.9303e+00 -1.8682e+00
-8.5818e-01 -2.2440e+00 -1.1923e+00
-2.2741e+00 -1.2884e+00 -4.0288e-01
-3.2059e+00 -2.8114e-01 3.2909e-01
-3.6336e+00 6.3749e-01 9.2008e-01
-3.6449e+00 1.3997e+00 1.3264e+00
5.1071e+00 -3.0710e+00 -5.6246e-01
4.4452e+00 -3.8342e+00 -1.0878e+00
3.0984e+00 -3.7646e+00 -1.3483e+00
1.2933e+00 -3.0024e+00 -1.3409e+00
-6.6098e-01 -1.7618e+00 -1.1055e+00
-2.3650e+00 -3.6411e-01 -7.3200e-01
-3.5414e+00 9.0830e-01 -3.1360e-01
-4.1532e+00 1.9196e+00 7.8509e-02
-4.2668e+00 2.6158e+00 3.9748e-01
5.3573e+00 -4.5144e+00 4.9612e-02
4.9343e+00 -4.7675e+00 -2.8970e-01
3.7060e+00 -4.1184e+00 -5.2010e-01
1.8944e+00 -2.7545e+00 -6.3412e-01
-1.7379e-01 -9.7188e-01 -6.3482e-01
-2.0541e+00 8.0995e-01 -5.4390e-01
-3.4311e+00 2.2633e+00 -3.9661e-01
-4.2313e+00 3.2646e+00 -2.2484e-01
-4.5005e+00 3.8073e+00 -5.7212e-02
5.1552e+00 -5.3662e+00 -1.0308e-01
5.1311e+00 -5.1427e+00 2.3777e-02
4.1941e+00 -4.0355e+00 1.2628e-01
2.5552e+00 -2.2671e+00 1.9835e-01
5.4359e-01 -1.7751e-01 2.3551e-01
-1.3864e+00 1.7703e+00 2.3508e-01
-2.8927e+00 3.2390e+00 2.0201e-01
-3.8720e+00 4.1430e+00 1.4811e-01
-4.3332e+00 4.5111e+00 8.6174e-02
4.7095e+00 -5.1546e+00 -8.4314e-01
5.1072e+00 -4.6881e+00 -1.0282e-01
4.5208e+00 -3.4560e+00 5.2620e-01
3.1428e+00 -1.6804e+00 1.0027e+00
1.2880e+00 3.1330e-01 1.2913e+00
-5.9798e-01 2.0978e+00 1.3664e+00
-2.1667e+00 3.3851e+00 1.2478e+00
-3.2813e+00 4.1163e+00 9.9673e-01
-3.9202e+00 4.3463e+00 6.7452e-01
4.3043e+00 -3.8691e+00 -1.7088e+00
5.0021e+00 -3.4545e+00 -4.3793e-01
4.6844e+00 -2.4628e+00 6.8997e-01
3.5279e+00 -1.0928e+00 1.5934e+00
1.8304e+00 4.0356e-01 2.1876e+00
1.9695e-02 1.7174e+00 2.4090e+00
-1.5576e+00 2.6417e+00 2.2764e+00
-2.7510e+00 3.1565e+00 1.8859e+00
-3.5097e+00 3.3102e+00 1.3474e+00
4.1207e+00 -1.9727e+00 -2.2833e+00
4.9228e+00 -1.7673e+00 -7.4164e-01
4.7122e+00 -1.2387e+00 6.9012e-01
3.6596e+00 -5.2781e-01 1.8681e+00
2.0499e+00 2.3354e-01 2.6735e+00
2.9820e-01 8.9543e-01 3.0122e+00
-1.2535e+00 1.3611e+00 2.8989e+00
-2.4550e+00 1.6165e+00 2.4466e+00
-3.2668e+00 1.7150e+00 1.7898e+00
4.1988e+00 -4.8429e-07 -2.4419e+00
4.8952e+00 -3.4885e-07 -8.6025e-01
4.6526e+00 -3.4521e-07 6.2252e-01
3.5746e+00 -2.4511e-07 1.8400e+00
1.9586e+00 -3.8731e-07 2.6877e+00
2.2857e-01 -2.9544e-07 3.0694e+00
-1.2884e+00 -4.3612e-07 2.9873e+00
-2.4354e+00 -6.3267e-07 2.5452e+00
-3.1643e+00 -6.0303e-07 1.8402e+00
3.6751e+00 -1.2057e-01 -2.7200e+00
2.8919e+00 -1.8372e+00 -3.3714e+00
1.7602e+00 -2.9719e+00 -3.3673e+00
4.1701e-01 -3.4460e+00 -2.7441e+00
-9.3771e-01 -3.3197e+00 -1.6870e+00
-2.0438e+00 -2.7341e+00 -4.8226e-01
-2.7277e+00 -1.8647e+00 6.2088e-01
-2.9797e+00 -8.8006e-01 1.4963e+00
-2.8383e+00 1.0059e-01 2.0840e+00
4.4097e+00 -1.1585e+00 -1.2169e+00
3.6366e+00 -2.7974e+00 -2.1371e+00
2.3042e+00 -3.6517e+00 -2.5585e+00
6.6918e-01 -3.7618e+00 -2.4784e+00
-1.0099e+00 -3.2387e+00 -1.9809e+00
-2.4057e+00 -2.2857e+00 -1.2405e+00
-3.3061e+00 -1.1445e+00 -4.3798e-01
-3.6967e+00 -3.1009e-03 3.0417e-01
-3.6876e+00 1.0337e+00 9.0941e-01
5.0251e+00 -2.5926e+00 1.4783e-02
4.2636e+00 -3.8789e+00 -1.0180e+00
2.8540e+00 -4.2318e+00 -1.7121e+00
1.0322e+00 -3.7692e+00 -2.0321e+00
-8.9918e-01 -2.6868e+00 -1.9975e+00
-2.5519e+00 -1.2969e+00 -1.6791e+00
-3.6667e+00 9.7215e-02 -1.1812e+00
-4.2147e+00 1.3128e+00 -6.1651e-01
-4.2763e+00 2.2570e+00 -7.5802e-02
5.3158e+00 -4.0601e+00 6.4018e-01
4.7050e+00 -4.7815e+00 -2.4440e-01
3.3513e+00 -4.5140e+00 -9.3139e-01
1.4872e+00 -3.4252e+00 -1.3852e+00
-5.6516e-01 -1.7937e+00 -1.5888e+00
-2.3792e+00 -2.7079e-02 -1.5468e+00
-3.6606e+00 1.5261e+00 -1.3086e+00
-4.3555e+00 2.7030e+00 -9.5109e-01
-4.5291e+00 3.4599e+00 -5.4602e-01
5.2403e+00 -4.9751e+00 4.7618e-01
4.8988e+00 -5.1310e+00 4.2637e-02
3.7396e+00 -4.3423e+00 -3.1724e-01
1.9829e+00 -2.8115e+00 -5.8386e-01
-4.6192e-02 -8.5740e-01 -7.4172e-01
-1.9082e+00 1.0659e+00 -7.8054e-01
-3.2900e+00 2.6070e+00 -7.1245e-01
-4.1116e+00 3.6434e+00 -5.7146e-01
-4.4144e+00 4.1747e+00 -3.9034e-01
4.9210e+00 -4.8558e+00 -2.7378e-01
4.8869e+00 -4.6640e+00 -9.3311e-02
3.9861e+00 -3.6701e+00 7.5468e-02
2.4229e+00 -2.0768e+00 2.1722e-01
5.1394e-01 -1.9262e-01 3.1657e-01
-1.3097e+00 1.5652e+00 3.5925e-01
-2.7296e+00 2.8956e+00 3.4545e-01
-3.6464e+00 3.7168e+00 2.9006e-01
-4.0738e+00 4.0572e+00 2.0979e-01
4.5759e+00 -3.6881e+00 -1.1325e+00
4.7751e+00 -3.4311e+00 -4.1160e-01
4.0916e+00 -2.5891e+00 2.5982e-01
2.7137e+00 -1.3382e+00 8.2642e-01
9.4326e-01 8.5781e-02 1.2288e+00
-8.0462e-01 1.3774e+00 1.4140e+00
-2.2178e+00 2.3249e+00 1.3818e+00
-3.1844e+00 2.8856e+00 1.1842e+00
-3.6971e+00 3.0943e+00 8.8353e-01
4.3489e+00 -1.8949e+00 -1.6857e+00
4.6532e+00 -1.7525e+00 -6.7321e-01
4.0814e+00 -1.2951e+00 3.0203e-01
2.8160e+00 -6.3977e-01 1.1357e+00
1.1453e+00 8.8755e-02 1.7386e+00
-5.3165e-01 7.4158e-01 2.0304e+00
-1.9100e+00 1.2160e+00 2.0081e+00
-2.8770e+00 1.4922e+00 1.7414e+00
-3.4301e+00 1.6061e+00 1.3155e+00
4.2797e+00 -2.5181e-07 -1.7996e+00
4.5551e+00 -4.5227e-07 -7.4709e-01
3.9971e+00 -3.2029e-07 2.8006e-01
2.7582e+00 -4.0627e-07 1.1536e+00
1.1260e+00 -3.2526e-07 1.7896e+00
-5.0663e-01 -3.7808e-07 2.1110e+00
-1.8419e+00 -4.5176e-07 2.1056e+00
-2.7732e+00 -3.8579e-07 1.8382e+00
-3.2878e+00 -5.2048e-07 1.3825e+00
3.1024e+00 2.5068e-01 -1.9148e+00
2.3884e+00 -1.9233e+00 -2.9576e+00
1.4300e+00 -3.4223e+00 -3.3729e+00
3.0438e-01 -4.1384e+00 -3.1248e+00
-8.2902e-01 -4.1302e+00 -2.3605e+00
-1.7447e+00 -3.5366e+00 -1.3305e+00
-2.3039e+00 -2.5523e+00 -2.6500e-01
-2.4894e+00 -1.3840e+00 6.7769e-01
-2.3233e+00 -1.7352e-01 1.4075e+00
3.5563e+00 -8.1631e-01 -3.3667e-01
2.9309e+00 -2.8515e+00 -1.7231e+00
1.8274e+00 -4.0327e+00 -2.5976e+00
4.8614e-01 -4.3714e+00 -2.9240e+00
-8.8091e-01 -3.9646e+00 -2.7421e+00
-2.0125e+00 -3.0148e+00 -2.1803e+00
-2.7338e+00 -1.7786e+00 -1.4086e+00
-3.0460e+00 -4.7537e-01 -5.6919e-01
-3.0556e+00 7.4739e-01 2.2321e-01
4.0098e+00 -2.2238e+00 8.7794e-01
3.3890e+00 -3.8763e+00 -6.4431e-01
2.2252e+00 -4.5355e+00 -1.8070e+00
7.3915e-01 -4.3007e+00 -2.5432e+00
-8.1587e-01 -3.3498e+00 -2.8227e+00
-2.1376e+00 -1.9861e+00 -2.6741e+00
-3.0169e+00 -5.2314e-01 -2.1889e+00
-3.4513e+00 8.3341e-01 -1.5097e+00
-3.5086e+00 1.9487e+00 -7.7136e-01
4.2694e+00 -3.6569e+00 1.4749e+00
3.7264e+00 -4.7073e+00 7.9098e-02
2.5785e+00 -4.7331e+00 -1.0875e+00
1.0464e+00 -3.8794e+00 -1.9549e+00
-6.0750e-01 -2.4013e+00 -2.4611e+00
-2.0487e+00 -6.9052e-01 -2.5704e+00
-3.0469e+00 9.0186e-01 -2.3255e+00
-3.5739e+00 2.1875e+00 -1.8344e+00
-3.6949e+00 3.0904e+00 -1.2148e+00
4.2675e+00 -4.5530e+00 1.2941e+00
3.8854e+00 -5.0012e+00 3.2705e-01
2.8518e+00 -4.4827e+00 -5.2216e-01
1.3756e+00 -3.1810e+00 -1.2010e+00
-2.7495e-01 -1.3906e+00 -1.6508e+00
-1.7566e+00 4.5698e-01 -1.8254e+00
-2.8228e+00 2.0090e+00 -1.7343e+00
-3.4322e+00 3.1247e+00 -1.4458e+00
-3.6300e+00 3.7747e+00 -1.0416e+00
4.0902e+00 -4.4868e+00 5.4997e-01
3.8916e+00 -4.5218e+00 1.7693e-01
3.0207e+00 -3.7487e+00 -1.5698e-01
1.6674e+00 -2.3504e+00 -4.3156e-01
9.0948e-02 -6.1195e-01 -6.2245e-01
-1.3660e+00 1.0692e+00 -7.0816e-01
-2.4573e+00 2.3941e+00 -6.8979e-01
-3.1219e+00 3.2633e+00 -5.9109e-01
-3.3887e+00 3.6846e+00 -4.4208e-01
3.8585e+00 -3.4394e+00 -2.9835e-01
3.8123e+00 -3.3232e+00 -1.3634e-01
3.0895e+00 -2.6282e+00 2.6660e-02
1.8640e+00 -1.5103e+00 1.7218e-01
3.8448e-01 -1.8801e-01 2.8212e-01
-1.0184e+00 1.0482e+00 3.3943e-01
-2.1011e+00 1.9857e+00 3.4102e-01
-2.7944e+00 2.5704e+00 2.9860e-01
-3.1126e+00 2.8224e+00 2.2838e-01
3.6738e+00 -1.7855e+00 -8.6118e-01
3.7089e+00 -1.6986e+00 -3.8525e-01
3.0765e+00 -1.3122e+00 8.8447e-02
1.9410e+00 -7.1983e-01 5.0516e-01
5.4042e-01 -3.6903e-02 8.1705e-01
-8.0576e-01 5.9089e-01 9.8046e-01
-1.8617e+00 1.0609e+00 9.8873e-01
-2.5552e+00 1.3463e+00 8.7200e-01
-2.8983e+00 1.4696e+00 6.7209e-01
3.5660e+00 -3.2255e-07 -1.0003e+00
3.6087e+00 -1.8307e-07 -4.5632e-01
3.0078e+00 -3.6729e-07 9.2330e-02
1.9136e+00 -2.4440e-07 5.6962e-01
5.5866e-01 -3.6797e-07 9.2842e-01
-7.4426e-01 -3.4668e-07 1.1223e+00
-1.7686e+00 -3.5039e-07 1.1387e+00
-2.4405e+00 -4.6095e-07 1.0113e+00
-2.7711e+00 -3.1820e-07 7.7733e-01
1.9492e+00 3.0643e-01 -9.3237e-01
1.4699e+00 -2.1136e+00 -2.3402e+00
8.8586e-01 -3.7561e+00 -3.1610e+00
1.7986e-01 -4.5459e+00 -3.3081e+00
-5.2556e-01 -4.5375e+00 -2.8942e+00
-1.0936e+00 -3.8792e+00 -2.1038e+00
-1.4388e+00 -2.7937e+00 -1.1430e+00
-1.5583e+00 -1.5200e+00 -1.8218e-01
-1.4062e+00 -1.9865e-01 6.3665e-01
2.1278e+00 -7.9123e-01 5.5071e-01
1.7945e+00 -3.0012e+00 -1.1667e+00
1.1141e+00 -4.2896e+00 -2.4301e+00
2.9090e-01 -4.6768e+00 -3.1342e+00
-5.4327e-01 -4.2643e+00 -3.2803e+00
-1.2330e+00 -3.2666e+00 -2.9390e+00
-1.6774e+00 -1.9631e+00 -2.2550e+00
-1.8711e+00 -5.8949e-01 -1.3911e+00