<?xml version="1.0"?>
<VTKFile type="StructuredGrid" version="0.1">
  <StructuredGrid WholeExtent="0 8 0 8 0 8">
    <Piece Extent="0 8 0 8 0 8">
      <PointData Scalars="temperature" Vectors="velocity">
        <DataArray type="Float32" Name="temperature" format="ascii">
1.000000e+00
8.682640e-01
7.434908e-01
6.191092e-01
4.945524e-01
3.699008e-01
2.451325e-01
1.206644e-01
0.000000e+00
1.000000e+00
8.680893e-01
7.431513e-01
6.184700e-01
4.936461e-01
3.693704e-01
2.449056e-01
1.205736e-01
0.000000e+00
1.000000e+00
8.676449e-01
7.422938e-01
6.168553e-01
4.913218e-01
3.680356e-01
2.443234e-01
1.203260e-01
0.000000e+00
1.000000e+00
8.669492e-01
7.409455e-01
6.143097e-01
4.876684e-01
3.659702e-01
2.434170e-01
1.199354e-01
0.000000e+00
1.000000e+00
8.660983e-01
7.392911e-01
6.111813e-01
4.832170e-01
3.634994e-01
2.423264e-01
1.194593e-01
0.000000e+00
1.000000e+00
8.652541e-01
7.376476e-01
6.080695e-01
4.788321e-01
3.611169e-01
2.412689e-01
1.189932e-01
0.000000e+00
1.000000e+00
8.645825e-01
7.363454e-01
6.056035e-01
4.753809e-01
3.592872e-01
2.404576e-01
1.186308e-01
0.000000e+00
1.000000e+00
8.641632e-01
7.355556e-01
6.041847e-01
4.733951e-01
3.582879e-01
2.400398e-01
1.184824e-01
0.000000e+00
1.000000e+00
8.627851e-01
7.342143e-01
6.026978e-01
4.719268e-01
3.570933e-01
2.388837e-01
1.173871e-01
0.000000e+00
1.000000e+00
8.684462e-01
7.438367e-01
6.197615e-01
4.954898e-01
3.704581e-01
2.453748e-01
1.207652e-01
0.000000e+00
1.000000e+00
8.682844e-01
7.435275e-01
6.191844e-01
4.946718e-01
3.699760e-01
2.451664e-01
1.206797e-01
0.000000e+00
1.000000e+00
8.678399e-01
7.426695e-01
6.175645e-01
4.922912e-01
3.686287e-01
2.445810e-01
1.204324e-01
0.000000e+00
1.000000e+00
8.671226e-01
7.412778e-01
6.149274e-01
4.884257e-01
3.664774e-01
2.436434e-01
1.200326e-01
0.000000e+00
1.000000e+00
8.662443e-01
7.395641e-01
6.116712e-01
4.837057e-01
3.638953e-01
2.425127e-01
1.195464e-01
0.000000e+00
1.000000e+00
8.653946e-01
7.378947e-01
6.084911e-01
4.791727e-01
3.614509e-01
2.414378e-01
1.190811e-01
0.000000e+00
1.000000e+00
8.647623e-01
7.366445e-01
6.061016e-01
4.758369e-01
3.596662e-01
2.406562e-01
1.187452e-01
0.000000e+00
1.000000e+00
8.643641e-01
7.359431e-01
6.048686e-01
4.741929e-01
3.587830e-01
2.402605e-01
1.185739e-01
0.000000e+00
1.000000e+00
8.643343e-01
7.358934e-01
6.048350e-01
4.743482e-01
3.587564e-01
2.402449e-01
1.185706e-01
0.000000e+00
1.000000e+00
8.688692e-01
7.446600e-01
6.213350e-01
4.978235e-01
3.718231e-01
2.459638e-01
1.210090e-01
0.000000e+00
1.000000e+00
8.687513e-01
7.444323e-01
6.209140e-01
4.972680e-01
3.714674e-01
2.458108e-01
1.209482e-01
0.000000e+00
1.000000e+00
8.683251e-01
7.436156e-01
6.193784e-01
4.949952e-01
3.701675e-01
2.452462e-01
1.207098e-01
0.000000e+00
1.000000e+00
8.675909e-01
7.422039e-01
6.167138e-01
4.910579e-01
3.679551e-01
2.442863e-01
1.203030e-01
0.000000e+00
1.000000e+00
8.666756e-01
7.404327e-01
6.133590e-01
4.861508e-01
3.652501e-01
2.431088e-01
1.198000e-01
0.000000e+00
1.000000e+00
8.658002e-01
7.387220e-01
6.101022e-01
4.814631e-01
3.627027e-01
2.419948e-01
1.193212e-01
0.000000e+00
1.000000e+00
8.651787e-01
7.374925e-01
6.077409e-01
4.781310e-01
3.608971e-01
2.412013e-01
1.189810e-01
0.000000e+00
1.000000e+00
8.649283e-01
7.369748e-01
6.067369e-01
4.767282e-01
3.601388e-01
2.408655e-01
1.188371e-01
0.000000e+00
1.000000e+00
8.649137e-01
7.369996e-01
6.068567e-01
4.771583e-01
3.602122e-01
2.408639e-01
1.188066e-01
0.000000e+00
1.000000e+00
8.695237e-01
7.459298e-01
6.237575e-01
5.014790e-01
3.739682e-01
2.468878e-01
1.213914e-01
0.000000e+00
1.000000e+00
8.694790e-01
7.458318e-01
6.235768e-01
5.013368e-01
3.738145e-01
2.468231e-01
1.213703e-01
0.000000e+00
1.000000e+00
8.691065e-01
7.451197e-01
6.222410e-01
4.993323e-01
3.726481e-01
2.463144e-01
1.211551e-01
0.000000e+00
1.000000e+00
8.683906e-01
7.437540e-01
6.196728e-01
4.954791e-01
3.704483e-01
2.453631e-01
1.207546e-01
0.000000e+00
1.000000e+00
8.674635e-01
7.419753e-01
6.163178e-01
4.904870e-01
3.676596e-01
2.441568e-01
1.202435e-01
0.000000e+00
1.000000e+00
8.665662e-01
7.402344e-01
6.130105e-01
4.856422e-01
3.649917e-01
2.429977e-01
1.197498e-01
0.000000e+00
1.000000e+00
8.659352e-01
7.389869e-01
6.106070e-01
4.821871e-01
3.630900e-01
2.421649e-01
1.193949e-01
0.000000e+00
1.000000e+00
8.656830e-01
7.384652e-01
6.095836e-01
4.807295e-01
3.622824e-01
2.418050e-01
1.192414e-01
0.000000e+00
1.000000e+00
8.656899e-01
7.385073e-01
6.097117e-01
4.811635e-01
3.623631e-01
2.418163e-01
1.192299e-01
0.000000e+00
1.000000e+00
8.703134e-01
7.474522e-01
6.266492e-01
5.059287e-01
3.765961e-01
2.480132e-01
1.218537e-01
0.000000e+00
1.000000e+00
8.703501e-01
7.474915e-01
6.267142e-01
5.062185e-01
3.766591e-01
2.480447e-01
1.218769e-01
0.000000e+00
1.000000e+00
8.700453e-01
7.469063e-01
6.256123e-01
5.045373e-01
3.756553e-01
2.476033e-01
1.216898e-01
0.000000e+00
1.000000e+00
8.693714e-01
7.456278e-01
6.232109e-01
5.008676e-01
3.735132e-01
2.466790e-01
1.213044e-01
0.000000e+00
1.000000e+00
8.684565e-01
7.438858e-01
6.199349e-01
4.958921e-01
3.706811e-01
2.454606e-01
1.207934e-01
0.000000e+00
1.000000e+00
8.675454e-01
7.421325e-01
6.166127e-01
4.909206e-01
3.678962e-01
2.442589e-01
1.202870e-01
0.000000e+00
1.000000e+00
8.668808e-01
7.408317e-01
6.141152e-01
4.872509e-01
3.658472e-01
2.433692e-01
1.199119e-01
0.000000e+00
1.000000e+00
8.665822e-01
7.402277e-01
6.129375e-01
4.855389e-01
3.648883e-01
2.429487e-01
1.197353e-01
0.000000e+00
1.000000e+00
8.665622e-01
7.402018e-01
6.129158e-01
4.856998e-01
3.648572e-01
2.429209e-01
1.197149e-01
0.000000e+00
1.000000e+00
8.710805e-01
7.489212e-01
6.294309e-01
5.103033e-01
3.791921e-01
2.491139e-01
1.222987e-01
0.000000e+00
1.000000e+00
8.711732e-01
7.490472e-01
6.296383e-01
5.108397e-01
3.793901e-01
2.492098e-01
1.223559e-01
0.000000e+00
1.000000e+00
8.709145e-01
7.485463e-01
6.286878e-01
5.093609e-01
3.784876e-01
2.488118e-01
1.221873e-01
0.000000e+00
1.000000e+00
8.702805e-01
7.473481e-01
6.264366e-01
5.058553e-01
3.764015e-01
2.479149e-01
1.218173e-01
0.000000e+00
1.000000e+00
8.693917e-01
7.456653e-01
6.232784e-01
5.009653e-01
3.735668e-01
2.467010e-01
1.213132e-01
0.000000e+00
1.000000e+00
8.684819e-01
7.439271e-01
6.199939e-01
4.959536e-01
3.707107e-01
2.454750e-01
1.208015e-01
0.000000e+00
1.000000e+00
8.677859e-01
7.425797e-01
6.174218e-01
4.920989e-01
3.685296e-01
2.445349e-01
1.204087e-01
0.000000e+00
1.000000e+00
8.674271e-01
7.418718e-01
6.160571e-01
4.900828e-01
3.673895e-01
2.440417e-01
1.202037e-01
0.000000e+00
1.000000e+00
8.673586e-01
7.417452e-01
6.158291e-01
4.898639e-01
3.671950e-01
2.439512e-01
1.201635e-01
0.000000e+00
1.000000e+00
8.716673e-01
7.500426e-01
6.315527e-01
5.137193e-01
3.812099e-01
2.499524e-01
1.226276e-01
0.000000e+00
1.000000e+00
8.717697e-01
7.501619e-01
6.317281e-01
5.141682e-01
3.813863e-01
2.500515e-01
1.226958e-01
0.000000e+00
1.000000e+00
8.715021e-01
7.496527e-01
6.307668e-01
5.126450e-01
3.804579e-01
2.496502e-01
1.225279e-01
0.000000e+00
1.000000e+00
8.708862e-01
7.484923e-01
6.285845e-01
5.091925e-01
3.783869e-01
2.487679e-01
1.221688e-01
0.000000e+00
1.000000e+00
8.700285e-01
7.468723e-01
6.255431e-01
5.044188e-01
3.755833e-01
2.475706e-01
1.216754e-01
0.000000e+00
1.000000e+00
8.691425e-01
7.451854e-01
6.223568e-01
4.994943e-01
3.727361e-01
2.463500e-01
1.211691e-01
0.000000e+00
1.000000e+00
8.684417e-01
7.438376e-01
6.197918e-01
4.956012e-01
3.705058e-01
2.453910e-01
1.207703e-01
0.000000e+00
1.000000e+00
8.680433e-01
7.430644e-01
6.183125e-01
4.933955e-01
3.692447e-01
2.448486e-01
1.205464e-01
0.000000e+00
1.000000e+00
8.679338e-01
7.428565e-01
6.179232e-01
4.928746e-01
3.689162e-01
2.447066e-01
1.204888e-01
0.000000e+00
1.000000e+00
8.719844e-01
7.506121e-01
6.326661e-01
5.156061e-01
3.822669e-01
2.503523e-01
1.227934e-01
0.000000e+00
1.000000e+00
8.719620e-01
7.505799e-01
6.325942e-01
5.155909e-01
3.822172e-01
2.503635e-01
1.228087e-01
0.000000e+00
1.000000e+00
8.717155e-01
7.500600e-01
6.315368e-01
5.138599e-01
3.811992e-01
2.499714e-01
1.226627e-01
0.000000e+00
1.000000e+00
8.710859e-01
7.488812e-01
6.293245e-01
5.103346e-01
3.790882e-01
2.490795e-01
1.223013e-01
0.000000e+00
1.000000e+00
8.702612e-01
7.473200e-01
6.263854e-01
5.056919e-01
3.763489e-01
2.479095e-01
1.218194e-01
0.000000e+00
1.000000e+00
8.694224e-01
7.457196e-01
6.233558e-01
5.009797e-01
3.736068e-01
2.467309e-01
1.213301e-01
0.000000e+00
1.000000e+00
8.687527e-01
7.444303e-01
6.209006e-01
4.972281e-01
3.714438e-01
2.457980e-01
1.209409e-01
0.000000e+00
1.000000e+00
8.683542e-01
7.436584e-01
6.194257e-01
4.950172e-01
3.701707e-01
2.452485e-01
1.207123e-01
0.000000e+00
1.000000e+00
8.682224e-01
7.434126e-01
6.189664e-01
4.943633e-01
3.697858e-01
2.450871e-01
1.206514e-01
0.000000e+00
1.000000e+00
8.708132e-01
7.495576e-01
6.317132e-01
5.146646e-01
3.810830e-01
2.491579e-01
1.216275e-01
0.000000e+00
1.000000e+00
8.719247e-01
7.505017e-01
6.324606e-01
5.152561e-01
3.820684e-01
2.502692e-01
1.227600e-01
0.000000e+00
1.000000e+00
8.715494e-01
7.498233e-01
6.311439e-01
5.130543e-01
3.808170e-01
2.497862e-01
1.225601e-01
0.000000e+00
1.000000e+00
8.709211e-01
7.486218e-01
6.288697e-01
5.094106e-01
3.786629e-01
2.488881e-01
1.222060e-01
0.000000e+00
1.000000e+00
8.701373e-01
7.471179e-01
6.260187e-01
5.049466e-01
3.760173e-01
2.477645e-01
1.217507e-01
0.000000e+00
1.000000e+00
8.693591e-01
7.456142e-01
6.231585e-01
5.005641e-01
3.734334e-01
2.466566e-01
1.212949e-01
0.000000e+00
1.000000e+00
8.687403e-01
7.444107e-01
6.208595e-01
4.971083e-01
3.714077e-01
2.457833e-01
1.209331e-01
0.000000e+00
1.000000e+00
8.683677e-01
7.436830e-01
6.194672e-01
4.950534e-01
3.702044e-01
2.452638e-01
1.207177e-01
0.000000e+00
1.000000e+00
8.682332e-01
7.434373e-01
6.190134e-01
4.944137e-01
3.698239e-01
2.451020e-01
1.206546e-01
0.000000e+00
        </DataArray>
        <DataArray type="Float32" Name="velocity" NumberOfComponents="3" format="ascii">
-3.7107e-01 3.7027e-01 -7.3399e-03
-3.5254e-01 3.7223e-01 -7.9066e-03
-2.7316e-01 3.0691e-01 -7.2428e-03
-1.5349e-01 1.9010e-01 -5.2201e-03
-1.5359e-02 4.7196e-02 -2.1265e-03
1.1171e-01 -8.9153e-02 1.2950e-03
2.0732e-01 -1.9444e-01 4.1986e-03
2.6601e-01 -2.6167e-01 6.1419e-03
2.9271e-01 -2.9202e-01 6.9845e-03
-1.0162e+00 1.3618e+00 1.0667e+00
-1.0753e+00 1.2563e+00 1.0527e+00
-9.3414e-01 9.3862e-01 8.5194e-01
-6.3638e-01 4.7891e-01 5.1456e-01
-2.4943e-01 -3.6763e-02 1.1011e-01
1.3592e-01 -4.9940e-01 -2.7150e-01
4.5108e-01 -8.3252e-01 -5.6462e-01
6.7257e-01 -1.0192e+00 -7.5095e-01
8.0129e-01 -1.0728e+00 -8.3507e-01
-1.3339e+00 2.5082e+00 2.0040e+00
-1.6424e+00 2.1870e+00 2.0314e+00
-1.6163e+00 1.5214e+00 1.6969e+00
-1.2950e+00 6.4145e-01 1.0834e+00
-7.7579e-01 -3.0069e-01 3.2186e-01
-1.9697e-01 -1.1114e+00 -4.1151e-01
3.3016e-01 -1.6629e+00 -9.8891e-01
7.4938e-01 -1.9373e+00 -1.3683e+00
1.0487e+00 -1.9650e+00 -1.5549e+00
-1.2449e+00 3.5398e+00 2.5592e+00
-1.9877e+00 2.9589e+00 2.7403e+00
-2.2719e+00 1.9435e+00 2.4201e+00
-2.1085e+00 6.6964e-01 1.6859e+00
-1.6026e+00 -6.5017e-01 7.0989e-01
-9.1864e-01 -1.7522e+00 -2.7152e-01
-2.0668e-01 -2.4679e+00 -1.0779e+00
4.4041e-01 -2.7845e+00 -1.6439e+00
9.7656e-01 -2.7490e+00 -1.9591e+00
-8.3125e-01 4.1160e+00 2.5622e+00
-2.1325e+00 3.3326e+00 3.0352e+00
-2.8651e+00 2.0957e+00 2.9246e+00
-2.9924e+00 5.9462e-01 2.2849e+00
-2.6149e+00 -9.2898e-01 1.2986e+00
-1.9039e+00 -2.1709e+00 2.2871e-01
-1.0365e+00 -2.9513e+00 -7.2017e-01
-1.5685e-01 -3.2611e+00 -1.4465e+00
6.5616e-01 -3.1502e+00 -1.9152e+00
-3.3022e-01 3.9782e+00 2.0202e+00
-2.1900e+00 3.1487e+00 2.8983e+00
-3.3744e+00 1.9247e+00 3.1626e+00
-3.8148e+00 4.6488e-01 2.8166e+00
-3.5937e+00 -9.9417e-01 2.0211e+00
-2.8844e+00 -2.1677e+00 1.0214e+00
-1.8905e+00 -2.8848e+00 3.3687e-02
-7.9422e-01 -3.1472e+00 -8.1846e-01
2.8179e-01 -2.9882e+00 -1.4533e+00
-1.6478e-02 3.1174e+00 1.1427e+00
-2.2951e+00 2.4110e+00 2.4391e+00
-3.8046e+00 1.4502e+00 3.1520e+00
-4.4509e+00 3.1884e-01 3.2103e+00
-4.3172e+00 -8.0729e-01 2.7296e+00
-3.5816e+00 -1.7029e+00 1.9147e+00
-2.4740e+00 -2.2485e+00 9.6488e-01
-1.2130e+00 -2.4271e+00 4.6391e-02
6.7819e-02 -2.2477e+00 -7.3285e-01
-6.3782e-02 1.7025e+00 1.8552e-01
-2.5601e+00 1.2740e+00 1.8548e+00
-4.1740e+00 7.6853e-01 2.9749e+00
-4.8500e+00 1.6089e-01 3.4280e+00
-4.6776e+00 -4.3630e-01 3.2901e+00
-3.8533e+00 -9.1035e-01 2.7009e+00
-2.6318e+00 -1.2019e+00 1.8376e+00
-1.2617e+00 -1.3137e+00 8.7652e-01
1.2752e-01 -1.1552e+00 -5.5411e-03
-5.0324e-01 3.5249e-08 -6.4234e-01
-3.0034e+00 -5.2112e-08 1.3407e+00
-4.4652e+00 1.9800e-07 2.6972e+00
-4.9698e+00 8.6235e-08 3.4377e+00
-4.6134e+00 1.4777e-07 3.5664e+00
-3.6423e+00 2.0088e-07 3.1846e+00
-2.3299e+00 7.6793e-08 2.4439e+00
-8.9029e-01 8.3919e-08 1.4983e+00
4.3038e-01 3.0218e-08 5.4935e-01
-1.3013e+00 9.4615e-01 -1.1481e+00
-1.1752e+00 1.0315e+00 -1.1333e+00
-8.5906e-01 9.2259e-01 -9.2123e-01
-4.1876e-01 6.5292e-01 -5.6073e-01
6.7972e-02 2.8716e-01 -1.2447e-01
5.0151e-01 -8.5007e-02 2.9020e-01
8.1116e-01 -3.9484e-01 6.1091e-01
9.8258e-01 -6.1642e-01 8.1613e-01
1.0308e+00 -7.4905e-01 9.1253e-01
-2.0369e+00 1.9937e+00 -6.6711e-02
-1.9671e+00 1.9690e+00 -6.8848e-02
-1.5552e+00 1.5928e+00 -6.1797e-02
-8.9927e-01 9.5906e-01 -4.3702e-02
-1.2814e-01 1.9740e-01 -1.7524e-02
5.9128e-01 -5.2242e-01 1.0274e-02
1.1375e+00 -1.0761e+00 3.3671e-02
1.4776e+00 -1.4275e+00 5.0384e-02
1.6261e+00 -1.5893e+00 6.1380e-02
-2.4337e+00 3.2287e+00 8.5815e-01
-2.5969e+00 2.9628e+00 9.1424e-01
-2.2679e+00 2.2022e+00 8.0221e-01
-1.5561e+00 1.1056e+00 5.5540e-01
-6.2086e-01 -1.2097e-01 2.2936e-01
3.1972e-01 -1.2167e+00 -9.6938e-02
1.0954e+00 -2.0039e+00 -3.6271e-01
1.6435e+00 -2.4469e+00 -5.4792e-01
1.9634e+00 -2.5843e+00 -6.4705e-01
-2.3886e+00 4.3317e+00 1.3494e+00
-2.9828e+00 3.7734e+00 1.6082e+00
-2.9407e+00 2.6164e+00 1.5550e+00
-2.3653e+00 1.0814e+00 1.2249e+00
-1.4246e+00 -5.5863e-01 7.0670e-01
-3.6096e-01 -1.9654e+00 1.3933e-01
6.1500e-01 -2.9227e+00 -3.6457e-01
1.3985e+00 -3.4050e+00 -7.5195e-01
1.9619e+00 -3.4827e+00 -1.0002e+00
-1.9859e+00 4.8812e+00 1.2288e+00
-3.1386e+00 4.1145e+00 1.8658e+00
-3.5253e+00 2.7091e+00 2.0897e+00
-3.2324e+00 9.2949e-01 1.9152e+00
-2.4143e+00 -9.1634e-01 1.4287e+00
-1.3177e+00 -2.4573e+00 7.8635e-01
-1.8361e-01 -3.4659e+00 1.3564e-01
8.3828e-01 -3.9329e+00 -4.3982e-01
1.6788e+00 -3.9581e+00 -8.8054e-01
-1.4930e+00 4.5797e+00 5.6614e-01
-3.1795e+00 3.7990e+00 1.6881e+00
-3.9981e+00 2.4202e+00 2.3549e+00
-4.0065e+00 7.1888e-01 2.5337e+00
-3.3455e+00 -1.0158e+00 2.2783e+00
-2.2558e+00 -2.4410e+00 1.7230e+00
-1.0030e+00 -3.3557e+00 1.0229e+00
2.2063e-01 -3.7585e+00 3.0356e-01
1.3133e+00 -3.7681e+00 -3.4287e-01
-1.2169e+00 3.4365e+00 -3.6395e-01
-3.2570e+00 2.8520e+00 1.2347e+00
-4.3603e+00 1.7892e+00 2.3737e+00
-4.5581e+00 4.9348e-01 2.9784e+00
-3.9813e+00 -8.1532e-01 3.0514e+00
-2.8782e+00 -1.8870e+00 2.6804e+00
-1.5321e+00 -2.5720e+00 2.0139e+00
-1.6550e-01 -2.8812e+00 1.2004e+00
1.0821e+00 -2.9162e+00 3.7167e-01
-1.2965e+00 1.7510e+00 -1.2053e+00
-3.4677e+00 1.4942e+00 7.1136e-01
-4.6295e+00 9.3157e-01 2.2227e+00
-4.8292e+00 2.5453e-01 3.1850e+00
-4.2103e+00 -4.2301e-01 3.5637e+00
-3.0378e+00 -9.7908e-01 3.3941e+00
-1.6150e+00 -1.3453e+00 2.8070e+00
-1.7626e-01 -1.5216e+00 1.9726e+00
1.1542e+00 -1.6097e+00 1.0654e+00
-1.8132e+00 -1.8184e-08 -1.8628e+00
-3.7607e+00 1.2588e-07 2.8645e-01
-4.7863e+00 -1.8545e-08 1.9791e+00
-4.8068e+00 1.8676e-07 3.1442e+00
-4.0253e+00 3.4735e-08 3.7224e+00
-2.7475e+00 4.7951e-08 3.7157e+00
-1.2776e+00 4.9123e-09 3.2235e+00
1.5037e-01 -7.6598e-08 2.4211e+00
1.3181e+00 8.0334e-08 1.3542e+00
-2.3720e+00 1.1877e+00 -2.1586e+00
-2.0362e+00 1.5304e+00 -2.1827e+00
-1.3945e+00 1.5567e+00 -1.8234e+00
-5.6383e-01 1.2910e+00 -1.1644e+00
3.2071e-01 8.2189e-01 -3.4206e-01
1.0812e+00 2.8018e-01 4.5479e-01
1.5965e+00 -2.2453e-01 1.0841e+00
1.8496e+00 -6.3533e-01 1.4985e+00
1.8703e+00 -9.3576e-01 1.7050e+00
-3.2127e+00 2.2643e+00 -1.0342e+00
-2.8940e+00 2.5065e+00 -1.1047e+00
-2.1071e+00 2.2591e+00 -9.7868e-01
-1.0089e+00 1.6204e+00 -6.8621e-01
2.0462e-01 7.4105e-01 -2.9005e-01
1.2810e+00 -1.6656e-01 1.1296e-01
2.0465e+00 -9.3197e-01 4.4496e-01
2.4667e+00 -1.4874e+00 6.7821e-01
2.5793e+00 -1.8263e+00 8.0765e-01
-3.7273e+00 3.5844e+00 -8.2512e-02
-3.5887e+00 3.5542e+00 -1.0526e-01
-2.8312e+00 2.8883e+00 -1.0983e-01
-1.6222e+00 1.7485e+00 -9.3539e-02
-1.9589e-01 3.6658e-01 -5.9802e-02
1.1361e+00 -9.4725e-01 -1.8859e-02
2.1456e+00 -1.9627e+00 1.9496e-02
2.7729e+00 -2.6148e+00 5.0497e-02
3.0379e+00 -2.9184e+00 7.2828e-02
-3.7817e+00 4.7951e+00 3.9103e-01
-4.0246e+00 4.4030e+00 5.9310e-01
-3.5018e+00 3.2858e+00 6.6368e-01
-2.3789e+00 1.6558e+00 6.0843e-01
-9.0428e-01 -1.8304e-01 4.5642e-01
5.7637e-01 -1.8342e+00 2.5558e-01
1.7953e+00 -3.0276e+00 4.9364e-02
2.6520e+00 -3.7096e+00 -1.3038e-01
3.1356e+00 -3.9266e+00 -2.6376e-01
-3.4338e+00 5.3953e+00 2.0726e-01
-4.1967e+00 4.7223e+00 8.3894e-01
-4.0605e+00 3.3076e+00 1.2285e+00
-3.1824e+00 1.3973e+00 1.3629e+00
-1.8051e+00 -6.6648e-01 1.2645e+00
-2.8119e-01 -2.4548e+00 9.9684e-01
1.0911e+00 -3.6865e+00 6.3634e-01
2.1741e+00 -4.3324e+00 2.5712e-01
2.9116e+00 -4.4630e+00 -8.2723e-02
-2.9588e+00 5.0305e+00 -5.1758e-01
-4.2136e+00 4.2959e+00 6.5692e-01
-4.4745e+00 2.8931e+00 1.5311e+00
-3.8780e+00 1.0661e+00 2.0494e+00
-2.6531e+00 -8.6181e-01 2.2027e+00
-1.1464e+00 -2.4974e+00 2.0273e+00
3.2709e-01 -3.5996e+00 1.6094e+00
1.5883e+00 -4.1515e+00 1.0662e+00
2.5492e+00 -4.2313e+00 5.0158e-01
-2.6573e+00 3.7255e+00 -1.4137e+00
-4.2251e+00 3.1746e+00 2.4210e-01
-4.7425e+00 2.1007e+00 1.5888e+00
-4.3311e+00 7.1907e-01 2.5311e+00
-3.2087e+00 -7.1882e-01 3.0043e+00
-1.7188e+00 -1.9305e+00 3.0031e+00
-1.8613e-01 -2.7395e+00 2.6062e+00
1.1934e+00 -3.1551e+00 1.9620e+00
2.2939e+00 -3.2340e+00 1.2146e+00
-2.6937e+00 1.8996e+00 -2.1168e+00
-4.3175e+00 1.6374e+00 -1.9406e-01
-4.8776e+00 1.0729e+00 1.4798e+00
-4.4885e+00 3.5907e-01 2.7313e+00
-3.3648e+00 -3.7369e-01 3.4618e+00
-1.8565e+00 -9.8934e-01 3.6242e+00
-3.0123e-01 -1.4053e+00 3.2856e+00
1.1013e+00 -1.6175e+00 2.6063e+00
2.2568e+00 -1.6848e+00 1.7602e+00
-3.1019e+00 3.3206e-07 -2.5178e+00
-4.4803e+00 8.7661e-08 -4.7492e-01
-4.9083e+00 1.7906e-07 1.2992e+00
-4.3778e+00 -1.2822e-07 2.6516e+00
-3.1388e+00 -6.4461e-08 3.4927e+00
-1.5781e+00 -8.0439e-08 3.7555e+00
-2.4342e-02 -5.7529e-08 3.4885e+00
1.3051e+00 -1.5581e-08 2.8238e+00
2.2985e+00 -1.7217e-07 1.8657e+00
-3.3107e+00 1.0165e+00 -2.7978e+00
-2.7309e+00 1.8028e+00 -2.9667e+00
-1.7712e+00 2.1622e+00 -2.6015e+00
-5.8456e-01 2.0854e+00 -1.7941e+00
6.4414e-01 1.6620e+00 -7.2319e-01
1.6738e+00 1.0423e+00 3.5535e-01
2.3420e+00 3.7030e-01 1.2399e+00
2.6322e+00 -2.5886e-01 1.8547e+00
2.5900e+00 -7.9358e-01 2.1942e+00
-4.2102e+00 2.0797e+00 -1.5662e+00
-3.6108e+00 2.7907e+00 -1.8468e+00
-2.4580e+00 2.8825e+00 -1.7784e+00
-9.6196e-01 2.4381e+00 -1.3929e+00
6.2718e-01 1.6061e+00 -7.8760e-01
1.9882e+00 6.1287e-01 -1.2299e-01
2.9073e+00 -3.3394e-01 4.6530e-01
3.3562e+00 -1.1213e+00 9.1398e-01
3.4024e+00 -1.7116e+00 1.1988e+00
-4.8317e+00 3.4577e+00 -5.2399e-01
-4.3331e+00 3.8722e+00 -8.0811e-01
-3.1485e+00 3.5171e+00 -9.1674e-01
-1.4874e+00 2.5419e+00 -8.4871e-01
3.5639e-01 1.1781e+00 -6.3914e-01
1.9953e+00 -2.4263e-01 -3.5661e-01
3.1612e+00 -1.4513e+00 -6.6286e-02
3.8020e+00 -2.3360e+00 1.8693e-01
3.9695e+00 -2.8748e+00 3.7843e-01
-5.0052e+00 4.7796e+00 -3.7721e-03
-4.7988e+00 4.7559e+00 -8.1521e-02
-3.7733e+00 3.8841e+00 -1.3409e-01
-2.1364e+00 2.3628e+00 -1.5610e-01
-2.0173e-01 5.0017e-01 -1.4893e-01
1.6052e+00 -1.2814e+00 -1.2059e-01
2.9746e+00 -2.6682e+00 -8.1159e-02
3.8201e+00 -3.5631e+00 -3.8655e-02
4.1684e+00 -3.9818e+00 1.7518e-03
-4.7531e+00 5.4880e+00 -1.9326e-01
-4.9784e+00 5.0778e+00 1.7884e-01
-4.2702e+00 3.8280e+00 4.5604e-01
-2.8256e+00 1.9697e+00 6.2809e-01
-9.5755e-01 -1.5281e-01 6.8954e-01
8.9768e-01 -2.0779e+00 6.4676e-01
2.4058e+00 -3.4861e+00 5.2588e-01
3.4420e+00 -4.3073e+00 3.6038e-01
4.0006e+00 -4.5897e+00 1.8477e-01
-4.3063e+00 5.1600e+00 -9.2641e-01
-4.9618e+00 4.5962e+00 1.7938e-02
-4.6037e+00 3.2931e+00 7.9687e-01
-3.4135e+00 1.4816e+00 1.3624e+00
-1.6935e+00 -5.1070e-01 1.6775e+00
1.3028e-01 -2.2640e+00 1.7225e+00
1.7113e+00 -3.5028e+00 1.5353e+00
2.8955e+00 -4.1834e+00 1.1955e+00
3.6439e+00 -4.3692e+00 7.8243e-01
-3.9607e+00 3.8324e+00 -1.7738e+00
-4.8881e+00 3.3742e+00 -3.4327e-01
-4.7713e+00 2.3549e+00 9.0523e-01
-3.7743e+00 9.7928e-01 1.8817e+00
-2.1845e+00 -5.0392e-01 2.4999e+00
-4.1671e-01 -1.7901e+00 2.7002e+00
1.1849e+00 -2.6841e+00 2.5170e+00
2.4485e+00 -3.1682e+00 2.0614e+00
3.3100e+00 -3.3006e+00 1.4533e+00
-3.8666e+00 1.9397e+00 -2.3450e+00
-4.8534e+00 1.7252e+00 -6.7624e-01
-4.7994e+00 1.1887e+00 8.5701e-01
-3.8669e+00 4.7931e-01 2.0972e+00
-2.3317e+00 -2.7122e-01 2.9267e+00
-6.0162e-01 -9.1844e-01 3.2529e+00
9.7888e-01 -1.3690e+00 3.1023e+00
2.2401e+00 -1.6135e+00 2.5985e+00
3.1431e+00 -1.7100e+00 1.8882e+00
-4.0443e+00 8.8144e-08 -2.5202e+00
-4.8675e+00 3.0894e-07 -8.2060e-01
-4.7356e+00 2.2012e-08 7.4799e-01
-3.7363e+00 7.0051e-08 2.0239e+00
-2.1637e+00 -2.5177e-07 2.8960e+00
-4.3776e-01 -1.3079e-07 3.2753e+00
1.1023e+00 -1.4550e-07 3.1663e+00
2.3015e+00 -3.2262e-07 2.6808e+00
3.0837e+00 -1.7218e-07 1.9216e+00
-3.7821e+00 5.2025e-01 -2.8974e+00
-3.0237e+00 1.8733e+00 -3.3373e+00
-1.8817e+00 2.7041e+00 -3.1514e+00
-5.1149e-01 2.9511e+00 -2.4038e+00
8.8390e-01 2.6924e+00 -1.2860e+00
2.0308e+00 2.0762e+00 -8.4815e-02
2.7517e+00 1.2684e+00 9.6493e-01
3.0313e+00 4.1428e-01 1.7513e+00
2.9172e+00 -3.9705e-01 2.2453e+00
-4.6103e+00 1.5437e+00 -1.4957e+00
-3.8350e+00 2.8469e+00 -2.1503e+00
-2.4853e+00 3.4165e+00 -2.3480e+00
-8.0422e-01 3.3118e+00 -2.1028e+00
9.3821e-01 2.6571e+00 -1.5113e+00
2.3986e+00 1.6705e+00 -7.5372e-01
3.3500e+00 5.8523e-01 -3.8583e-03
3.7745e+00 -4.3831e-01 6.4163e-01
3.7666e+00 -1.3169e+00 1.1212e+00
-5.2430e+00 2.9400e+00 -3.1746e-01
-4.5021e+00 3.9305e+00 -1.0552e+00
-3.0817e+00 4.0327e+00 -1.5016e+00
-1.2141e+00 3.3785e+00 -1.6373e+00
7.8714e-01 2.1782e+00 -1.4905e+00
2.5162e+00 7.5613e-01 -1.1443e+00
3.6933e+00 -5.9046e-01 -6.9625e-01
4.2857e+00 -1.7057e+00 -2.3502e-01
4.3659e+00 -2.5164e+00 1.7390e-01
-5.4910e+00 4.3501e+00 2.9962e-01
-4.9417e+00 4.8265e+00 -2.8780e-01
-3.6081e+00 4.3526e+00 -7.2562e-01
-1.7195e+00 3.1057e+00 -9.9146e-01
3.9428e-01 1.3754e+00 -1.0792e+00
2.2860e+00 -4.1860e-01 -1.0055e+00
3.6421e+00 -1.9355e+00 -8.1360e-01
4.3983e+00 -3.0311e+00 -5.5509e-01
4.6105e+00 -3.6813e+00 -2.7924e-01
-5.3335e+00 5.1801e+00 1.5264e-01
-5.1081e+00 5.1602e+00 -8.1007e-04
-4.0088e+00 4.2199e+00 -1.2576e-01
-2.2563e+00 2.5707e+00 -2.1418e-01
-1.8428e-01 5.4320e-01 -2.6168e-01
1.7517e+00 -1.4024e+00 -2.6865e-01
3.2160e+00 -2.9183e+00 -2.4149e-01
4.1206e+00 -3.9003e+00 -1.9117e-01
4.4909e+00 -4.3605e+00 -1.2773e-01
-4.9505e+00 4.9770e+00 -5.6396e-01
-5.0637e+00 4.6741e+00 -1.3531e-01
-4.2495e+00 3.5836e+00 2.4278e-01
-2.7134e+00 1.9152e+00 5.4482e-01
-7.7672e-01 -1.6042e-02 7.4437e-01
1.1136e+00 -1.7877e+00 8.1794e-01
2.6200e+00 -3.1039e+00 7.7092e-01
3.6281e+00 -3.8911e+00 6.3875e-01
4.1390e+00 -4.1899e+00 4.5824e-01
-4.5771e+00 3.7359e+00 -1.3826e+00
-4.9281e+00 3.4280e+00 -4.5312e-01
-4.3348e+00 2.5363e+00 3.9652e-01
-2.9897e+00 1.2462e+00 1.1026e+00
-1.1987e+00 -2.0020e-01 1.5930e+00
6.1030e-01 -1.4985e+00 1.8081e+00
2.1055e+00 -2.4370e+00 1.7513e+00
3.1641e+00 -2.9840e+00 1.4903e+00
3.7644e+00 -3.1781e+00 1.1076e+00
-4.3600e+00 1.9054e+00 -1.8943e+00
-4.7929e+00 1.7465e+00 -7.1578e-01
-4.2943e+00 1.2699e+00 4.0704e-01
-3.0525e+00 6.0081e-01 1.3588e+00
-1.3597e+00 -1.3395e-01 2.0378e+00
3.7306e-01 -7.8623e-01 2.3570e+00
1.8238e+00 -1.2571e+00 2.3166e+00
2.8721e+00 -1.5268e+00 1.9996e+00
3.5049e+00 -1.6383e+00 1.5092e+00
-4.3303e+00 4.0433e-07 -1.9785e+00
-4.6836e+00 1.2319e-07 -7.8825e-01
-4.1758e+00 1.7542e-07 3.5981e-01
-2.9429e+00 -1.1043e-07 1.3260e+00
-1.2804e+00 -8.6057e-08 2.0244e+00
4.0190e-01 -2.4577e-07 2.3703e+00
1.8002e+00 -3.5281e-07 2.3534e+00
2.7886e+00 -2.8898e-07 2.0486e+00
3.3479e+00 -4.8469e-07 1.5297e+00
-3.5413e+00 -5.4033e-02 -2.4560e+00
-2.7660e+00 1.8613e+00 -3.2676e+00
-1.6757e+00 3.1619e+00 -3.4153e+00
-3.8800e-01 3.7525e+00 -2.9215e+00
9.0662e-01 3.6871e+00 -1.9593e+00
1.9591e+00 3.1047e+00 -8.0282e-01
2.6035e+00 2.1893e+00 3.0146e-01
2.8310e+00 1.1259e+00 1.2166e+00
2.6720e+00 4.9771e-02 1.8718e+00
-4.1427e+00 9.4780e-01 -8.9864e-01
-3.3989e+00 2.8026e+00 -2.0157e+00
-2.1357e+00 3.8379e+00 -2.6291e+00
-5.9809e-01 4.0798e+00 -2.7116e+00
9.7436e-01 3.6302e+00 -2.3318e+00
2.2762e+00 2.6882e+00 -1.6494e+00
3.1090e+00 1.5030e+00 -8.4383e-01
3.4611e+00 2.7997e-01 -5.0767e-02
3.4418e+00 -8.6030e-01 6.3259e-01
-4.6481e+00 2.3443e+00 3.9383e-01
-3.9098e+00 3.8577e+00 -8.8441e-01
-2.5836e+00 4.4037e+00 -1.8098e+00
-8.8926e-01 4.0867e+00 -2.3247e+00
8.9451e-01 3.0911e+00 -2.4294e+00
2.4121e+00 1.7219e+00 -2.1783e+00
3.4266e+00 2.8885e-01 -1.6741e+00
3.9140e+00 -1.0077e+00 -1.0466e+00
3.9518e+00 -2.0558e+00 -4.0863e-01
-4.8732e+00 3.7859e+00 1.0804e+00
-4.2526e+00 4.7316e+00 -9.9282e-02
-2.9694e+00 4.6604e+00 -1.0582e+00
-1.2411e+00 3.7248e+00 -1.7373e+00
6.3934e-01 2.1901e+00 -2.0997e+00
2.2860e+00 4.5410e-01 -2.1313e+00
3.4337e+00 -1.1296e+00 -1.8809e+00
4.0387e+00 -2.3799e+00 -1.4456e+00
4.1669e+00 -3.2350e+00 -9.2198e-01
-4.7901e+00 4.7025e+00 9.7298e-01
-4.3771e+00 5.0608e+00 1.9898e-01
-3.2486e+00 4.4547e+00 -4.6972e-01
-1.6104e+00 3.0715e+00 -9.8955e-01
2.4320e-01 1.2154e+00 -1.3227e+00
1.9183e+00 -6.7079e-01 -1.4389e+00
3.1374e+00 -2.2316e+00 -1.3513e+00
3.8364e+00 -3.3282e+00 -1.1168e+00
4.0624e+00 -3.9432e+00 -7.9686e-01
-4.4994e+00 4.6233e+00 2.7209e-01
-4.3218e+00 4.5906e+00 7.6874e-02
-3.3992e+00 3.7461e+00 -9.4139e-02
-1.9236e+00 2.2773e+00 -2.2928e-01
-1.8033e-01 4.7903e-01 -3.1969e-01
1.4472e+00 -1.2419e+00 -3.5785e-01
2.6806e+00 -2.5817e+00 -3.4586e-01
3.4431e+00 -3.4453e+00 -2.9570e-01
3.7594e+00 -3.8472e+00 -2.2058e-01
-4.1739e+00 3.5288e+00 -5.4673e-01
-4.1738e+00 3.3726e+00 -2.2357e-01
-3.4277e+00 2.6320e+00 8.6322e-02
-2.1132e+00 1.4683e+00 3.5655e-01
-5.0053e-01 1.0587e-01 5.5600e-01
1.0439e+00 -1.1572e+00 6.5537e-01
2.2517e+00 -2.1075e+00 6.5131e-01
3.0379e+00 -2.6920e+00 5.6741e-01
3.4115e+00 -2.9357e+00 4.3328e-01
-3.9253e+00 1.8196e+00 -1.0732e+00
-4.0080e+00 1.7200e+00 -4.6321e-01
-3.3614e+00 1.3133e+00 1.3667e-01
-2.1566e+00 7.0124e-01 6.6011e-01
-6.4972e-01 2.8376e-03 1.0492e+00
8.1176e-01 -6.3574e-01 1.2491e+00
1.9705e+00 -1.1106e+00 1.2536e+00
2.7421e+00 -1.3973e+00 1.1035e+00
3.1381e+00 -1.5219e+00 8.4975e-01
-3.7808e+00 -7.4437e-08 -1.1690e+00
-3.8530e+00 1.7597e-07 -5.1993e-01
-3.2365e+00 4.5673e-09 1.2772e-01
-2.0822e+00 6.2862e-08 6.8796e-01
-6.3900e-01 -1.5265e-07 1.1058e+00
7.5866e-01 -2.6516e-07 1.3297e+00
1.8626e+00 -2.9721e-07 1.3465e+00
2.5951e+00 -4.4929e-07 1.1930e+00
2.9594e+00 -3.9410e-07 9.1507e-01
-2.6032e+00 -4.2164e-01 -1.6707e+00
-1.9766e+00 1.9031e+00 -2.8556e+00
-1.1784e+00 3.5339e+00 -3.4029e+00
-2.4661e-01 4.3502e+00 -3.2695e+00
6.8880e-01 4.4031e+00 -2.5921e+00
1.4387e+00 3.8260e+00 -1.6080e+00
1.8897e+00 2.8179e+00 -5.4505e-01
2.0255e+00 1.5971e+00 4.3106e-01
1.8531e+00 3.1827e-01 1.2217e+00
-2.8630e+00 6.1341e-01 -4.5668e-02
-2.3604e+00 2.8119e+00 -1.5969e+00
-1.4640e+00 4.1388e+00 -2.6381e+00
-3.8169e-01 4.5913e+00 -3.1088e+00
7.1727e-01 4.2569e+00 -3.0353e+00
1.6241e+00 3.3320e+00 -2.5317e+00
2.1978e+00 2.0758e+00 -1.7641e+00
2.4429e+00 7.1941e-01 -8.8625e-01
2.4554e+00 -5.7685e-01 -3.1111e-02
-3.1482e+00 1.9925e+00 1.2334e+00
-2.6579e+00 3.8161e+00 -4.9361e-01
-1.7339e+00 4.6305e+00 -1.8585e+00
-5.5939e-01 4.5207e+00 -2.7710e+00
6.6428e-01 3.6535e+00 -3.1823e+00
1.7023e+00 2.3230e+00 -3.1044e+00
2.3906e+00 8.4441e-01 -2.6245e+00
2.7318e+00 -5.6423e-01 -1.8997e+00
2.7801e+00 -1.7537e+00 -1.0830e+00
-3.2875e+00 3.4110e+00 1.8976e+00
-2.8571e+00 4.6293e+00 2.5461e-01
-1.9552e+00 4.8113e+00 -1.1522e+00
-7.6358e-01 4.0868e+00 -2.2268e+00
5.1485e-01 2.6986e+00 -2.8873e+00
1.6250e+00 1.0275e+00 -3.0779e+00
2.3907e+00 -5.7474e-01 -2.8372e+00
2.7934e+00 -1.9072e+00 -2.2894e+00
2.8873e+00 -2.8800e+00 -1.5737e+00
-3.2348e+00 4.3182e+00 1.7760e+00
-2.9184e+00 4.9165e+00 5.2428e-01
-2.1073e+00 4.5410e+00 -5.9837e-01
-9.7131e-01 3.3609e+00 -1.5121e+00
2.8525e-01 1.6574e+00 -2.1349e+00
1.4060e+00 -1.4889e-01 -2.3991e+00
2.2057e+00 -1.7049e+00 -2.3097e+00
2.6580e+00 -2.8587e+00 -1.9540e+00
2.8010e+00 -3.5680e+00 -1.4374e+00
-3.0604e+00 4.2939e+00 1.0773e+00
-2.8660e+00 4.4457e+00 3.9171e-01
-2.1765e+00 3.7874e+00 -2.4090e-01
-1.1429e+00 2.4889e+00 -7.7094e-01
4.0730e-02 8.2352e-01 -1.1491e+00
1.1225e+00 -8.2104e-01 -1.3297e+00
1.9220e+00 -2.1454e+00 -1.3107e+00
2.3987e+00 -3.0411e+00 -1.1363e+00
2.5795e+00 -3.5059e+00 -8.6212e-01
-2.8476e+00 3.3109e+00 2.5505e-01
-2.7528e+00 3.2680e+00 9.0826e-02
-2.1736e+00 2.6498e+00 -5.8699e-02
-1.2452e+00 1.6001e+00 -1.8146e-01
-1.5074e-01 3.2817e-01 -2.6759e-01
8.7110e-01 -8.8178e-01 -3.0874e-01
1.6454e+00 -1.8171e+00 -3.0510e-01
2.1271e+00 -2.4165e+00 -2.6648e-01
2.3329e+00 -2.6933e+00 -2.0418e-01
-2.6638e+00 1.7259e+00 -3.0086e-01
-2.6225e+00 1.6701e+00 -1.4930e-01
-2.1156e+00 1.3214e+00 8.0187e-03
-1.2674e+00 7.6225e-01 1.5183e-01
-2.5002e-01 1.0331e-01 2.6399e-01
7.1017e-01 -5.1205e-01 3.2718e-01
1.4478e+00 -9.8062e-01 3.3714e-01
1.9164e+00 -1.2726e+00 3.0247e-01
2.1305e+00 -1.4035e+00 2.3793e-01
-2.5254e+00 -6.8731e-09 -4.4733e-01
-2.4948e+00 -7.8525e-08 -2.1897e-01
-2.0233e+00 4.9032e-08 1.8271e-02
-1.2249e+00 -8.8649e-08 2.2837e-01
-2.6301e-01 -1.4951e-07 3.9107e-01
6.4557e-01 -2.3338e-07 4.8490e-01
1.3456e+00 -3.4693e-07 5.0077e-01
1.7898e+00 -3.4867e-07 4.5214e-01
1.9914e+00 -4.7036e-07 3.5273e-01
-1.1649e+00 -4.0667e-01 -7.8690e-01
-8.3691e-01 2.0921e+00 -2.2804e+00
-5.0393e-01 3.8047e+00 -3.1757e+00
-9.7397e-02 4.6506e+00 -3.3899e+00
3.0337e-01 4.6786e+00 -3.0271e+00
6.1936e-01 4.0325e+00 -2.2637e+00
8.0391e-01 2.9374e+00 -1.3042e+00
8.5451e-01 1.6383e+00 -3.2463e-01
7.0445e-01 2.8298e-01 5.3430e-01
-1.1263e+00 6.7642e-01 7.1749e-01
-9.7818e-01 2.9694e+00 -1.0887e+00
-6.0524e-01 4.3354e+00 -2.4471e+00
-1.5819e-01 4.7846e+00 -3.2336e+00
2.9063e-01 4.4134e+00 -3.4424e+00
6.6036e-01 3.4329e+00 -3.1361e+00
8.9844e-01 2.1230e+00 -2.4567e+00