<?xml version="1.0"?>
<VTKFile type="StructuredGrid" version="0.1">
  <StructuredGrid WholeExtent="0 8 0 8 0 8">
    <Piece Extent="0 8 0 8 0 8">
      <PointData Scalars="temperature" Vectors="velocity">
        <DataArray type="Float32" Name="temperature" format="ascii">
1.000000e+00
8.750000e-01
7.500000e-01
6.250000e-01
4.722520e-01
3.750000e-01
2.500000e-01
1.250000e-01
0.000000e+00
1.000000e+00
8.750000e-01
7.500000e-01
6.250000e-01
4.727553e-01
3.750000e-01
2.500000e-01
1.250000e-01
0.000000e+00
1.000000e+00
8.750000e-01
7.500000e-01
6.250000e-01
4.752768e-01
3.750000e-01
2.500000e-01
1.250000e-01
0.000000e+00
1.000000e+00
8.750000e-01
7.500000e-01
6.250000e-01
4.796960e-01
3.750000e-01
2.500000e-01
1.250000e-01
0.000000e+00
1.000000e+00
8.750000e-01
7.500000e-01
6.250000e-01
4.853205e-01
3.750000e-01
2.500000e-01
1.250000e-01
0.000000e+00
1.000000e+00
8.750000e-01
7.500000e-01
6.250000e-01
4.910418e-01
3.750000e-01
2.500000e-01
1.250000e-01
0.000000e+00
1.000000e+00
8.750000e-01
7.500000e-01
6.250000e-01
4.957573e-01
3.750000e-01
2.500000e-01
1.250000e-01
0.000000e+00
1.000000e+00
8.750000e-01
7.500000e-01
6.250000e-01
4.987841e-01
3.750000e-01
2.500000e-01
1.250000e-01
0.000000e+00
1.000000e+00
8.750000e-01
7.500000e-01
6.250000e-01
4.999970e-01
3.750000e-01
2.500000e-01
1.250000e-01
0.000000e+00
1.000000e+00
8.750000e-01
7.500000e-01
6.250000e-01
4.735857e-01
3.750000e-01
2.500000e-01
1.250000e-01
0.000000e+00
1.000000e+00
8.750000e-01
7.500000e-01
6.250000e-01
4.733683e-01
3.750000e-01
2.500000e-01
1.250000e-01
0.000000e+00
1.000000e+00
8.750000e-01
7.500000e-01
6.250000e-01
4.753675e-01
3.750000e-01
2.500000e-01
1.250000e-01
0.000000e+00
1.000000e+00
8.750000e-01
7.500000e-01
6.250000e-01
4.795901e-01
3.750000e-01
2.500000e-01
1.250000e-01
0.000000e+00
1.000000e+00
8.750000e-01
7.500000e-01
6.250000e-01
4.853340e-01
3.750000e-01
2.500000e-01
1.250000e-01
0.000000e+00
1.000000e+00
8.750000e-01
7.500000e-01
6.250000e-01
4.913289e-01
3.750000e-01
2.500000e-01
1.250000e-01
0.000000e+00
1.000000e+00
8.750000e-01
7.500000e-01
6.250000e-01
4.962677e-01
3.750000e-01
2.500000e-01
1.250000e-01
0.000000e+00
1.000000e+00
8.750000e-01
7.500000e-01
6.250000e-01
4.993520e-01
3.750000e-01
2.500000e-01
1.250000e-01
0.000000e+00
1.000000e+00
8.750000e-01
7.500000e-01
6.250000e-01
5.004647e-01
3.750000e-01
2.500000e-01
1.250000e-01
0.000000e+00
1.000000e+00
8.750000e-01
7.500000e-01
6.250000e-01
4.768444e-01
3.750000e-01
2.500000e-01
1.250000e-01
0.000000e+00
1.000000e+00
8.750000e-01
7.500000e-01
6.250000e-01
4.762010e-01
3.750000e-01
2.500000e-01
1.250000e-01
0.000000e+00
1.000000e+00
8.750000e-01
7.500000e-01
6.250000e-01
4.778916e-01
3.750000e-01
2.500000e-01
1.250000e-01
0.000000e+00
1.000000e+00
8.750000e-01
7.500000e-01
6.250000e-01
4.820259e-01
3.750000e-01
2.500000e-01
1.250000e-01
0.000000e+00
1.000000e+00
8.750000e-01
7.500000e-01
6.250000e-01
4.878862e-01
3.750000e-01
2.500000e-01
1.250000e-01
0.000000e+00
1.000000e+00
8.750000e-01
7.500000e-01
6.250000e-01
4.940513e-01
3.750000e-01
2.500000e-01
1.250000e-01
0.000000e+00
1.000000e+00
8.750000e-01
7.500000e-01
6.250000e-01
4.990375e-01
3.750000e-01
2.500000e-01
1.250000e-01
0.000000e+00
1.000000e+00
8.750000e-01
7.500000e-01
6.250000e-01
5.019709e-01
3.750000e-01
2.500000e-01
1.250000e-01
0.000000e+00
1.000000e+00
8.750000e-01
7.500000e-01
6.250000e-01
5.027793e-01
3.750000e-01
2.500000e-01
1.250000e-01
0.000000e+00
1.000000e+00
8.750000e-01
7.500000e-01
6.250000e-01
4.817667e-01
3.750000e-01
2.500000e-01
1.250000e-01
0.000000e+00
1.000000e+00
8.750000e-01
7.500000e-01
6.250000e-01
4.811197e-01
3.750000e-01
2.500000e-01
1.250000e-01
0.000000e+00
1.000000e+00
8.750000e-01
7.500000e-01
6.250000e-01
4.828434e-01
3.750000e-01
2.500000e-01
1.250000e-01
0.000000e+00
1.000000e+00
8.750000e-01
7.500000e-01
6.250000e-01
4.870824e-01
3.750000e-01
2.500000e-01
1.250000e-01
0.000000e+00
1.000000e+00
8.750000e-01
7.500000e-01
6.250000e-01
4.930750e-01
3.750000e-01
2.500000e-01
1.250000e-01
0.000000e+00
1.000000e+00
8.750000e-01
7.500000e-01
6.250000e-01
4.992779e-01
3.750000e-01
2.500000e-01
1.250000e-01
0.000000e+00
1.000000e+00
8.750000e-01
7.500000e-01
6.250000e-01
5.040986e-01
3.750000e-01
2.500000e-01
1.250000e-01
0.000000e+00
1.000000e+00
8.750000e-01
7.500000e-01
6.250000e-01
5.066553e-01
3.750000e-01
2.500000e-01
1.250000e-01
0.000000e+00
1.000000e+00
8.750000e-01
7.500000e-01
6.250000e-01
5.069580e-01
3.750000e-01
2.500000e-01
1.250000e-01
0.000000e+00
1.000000e+00
8.750000e-01
7.500000e-01
6.250000e-01
4.875461e-01
3.750000e-01
2.500000e-01
1.250000e-01
0.000000e+00
1.000000e+00
8.750000e-01
7.500000e-01
6.250000e-01
4.872824e-01
3.750000e-01
2.500000e-01
1.250000e-01
0.000000e+00
1.000000e+00
8.750000e-01
7.500000e-01
6.250000e-01
4.893586e-01
3.750000e-01
2.500000e-01
1.250000e-01
0.000000e+00
1.000000e+00
8.750000e-01
7.500000e-01
6.250000e-01
4.938744e-01
3.750000e-01
2.500000e-01
1.250000e-01
0.000000e+00
1.000000e+00
8.750000e-01
7.500000e-01
6.250000e-01
5.000000e-01
3.750000e-01
2.500000e-01
1.250000e-01
0.000000e+00
1.000000e+00
8.750000e-01
7.500000e-01
6.250000e-01
5.061256e-01
3.750000e-01
2.500000e-01
1.250000e-01
0.000000e+00
1.000000e+00
8.750000e-01
7.500000e-01
6.250000e-01
5.106414e-01
3.750000e-01
2.500000e-01
1.250000e-01
0.000000e+00
1.000000e+00
8.750000e-01
7.500000e-01
6.250000e-01
5.127176e-01
3.750000e-01
2.500000e-01
1.250000e-01
0.000000e+00
1.000000e+00
8.750000e-01
7.500000e-01
6.250000e-01
5.124539e-01
3.750000e-01
2.500000e-01
1.250000e-01
0.000000e+00
1.000000e+00
8.750000e-01
7.500000e-01
6.250000e-01
4.930420e-01
3.750000e-01
2.500000e-01
1.250000e-01
0.000000e+00
1.000000e+00
8.750000e-01
7.500000e-01
6.250000e-01
4.933447e-01
3.750000e-01
2.500000e-01
1.250000e-01
0.000000e+00
1.000000e+00
8.750000e-01
7.500000e-01
6.250000e-01
4.959014e-01
3.750000e-01
2.500000e-01
1.250000e-01
0.000000e+00
1.000000e+00
8.750000e-01
7.500000e-01
6.250000e-01
5.007221e-01
3.750000e-01
2.500000e-01
1.250000e-01
0.000000e+00
1.000000e+00
8.750000e-01
7.500000e-01
6.250000e-01
5.069250e-01
3.750000e-01
2.500000e-01
1.250000e-01
0.000000e+00
1.000000e+00
8.750000e-01
7.500000e-01
6.250000e-01
5.129176e-01
3.750000e-01
2.500000e-01
1.250000e-01
0.000000e+00
1.000000e+00
8.750000e-01
7.500000e-01
6.250000e-01
5.171566e-01
3.750000e-01
2.500000e-01
1.250000e-01
0.000000e+00
1.000000e+00
8.750000e-01
7.500000e-01
6.250000e-01
5.188803e-01
3.750000e-01
2.500000e-01
1.250000e-01
0.000000e+00
1.000000e+00
8.750000e-01
7.500000e-01
6.250000e-01
5.182333e-01
3.750000e-01
2.500000e-01
1.250000e-01
0.000000e+00
1.000000e+00
8.750000e-01
7.500000e-01
6.250000e-01
4.972207e-01
3.750000e-01
2.500000e-01
1.250000e-01
0.000000e+00
1.000000e+00
8.750000e-01
7.500000e-01
6.250000e-01
4.980291e-01
3.750000e-01
2.500000e-01
1.250000e-01
0.000000e+00
1.000000e+00
8.750000e-01
7.500000e-01
6.250000e-01
5.009625e-01
3.750000e-01
2.500000e-01
1.250000e-01
0.000000e+00
1.000000e+00
8.750000e-01
7.500000e-01
6.250000e-01
5.059487e-01
3.750000e-01
2.500000e-01
1.250000e-01
0.000000e+00
1.000000e+00
8.750000e-01
7.500000e-01
6.250000e-01
5.121138e-01
3.750000e-01
2.500000e-01
1.250000e-01
0.000000e+00
1.000000e+00
8.750000e-01
7.500000e-01
6.250000e-01
5.179741e-01
3.750000e-01
2.500000e-01
1.250000e-01
0.000000e+00
1.000000e+00
8.750000e-01
7.500000e-01
6.250000e-01
5.221084e-01
3.750000e-01
2.500000e-01
1.250000e-01
0.000000e+00
1.000000e+00
8.750000e-01
7.500000e-01
6.250000e-01
5.237990e-01
3.750000e-01
2.500000e-01
1.250000e-01
0.000000e+00
1.000000e+00
8.750000e-01
7.500000e-01
6.250000e-01
5.231556e-01
3.750000e-01
2.500000e-01
1.250000e-01
0.000000e+00
1.000000e+00
8.750000e-01
7.500000e-01
6.250000e-01
4.995353e-01
3.750000e-01
2.500000e-01
1.250000e-01
0.000000e+00
1.000000e+00
8.750000e-01
7.500000e-01
6.250000e-01
5.006480e-01
3.750000e-01
2.500000e-01
1.250000e-01
0.000000e+00
1.000000e+00
8.750000e-01
7.500000e-01
6.250000e-01
5.037323e-01
3.750000e-01
2.500000e-01
1.250000e-01
0.000000e+00
1.000000e+00
8.750000e-01
7.500000e-01
6.250000e-01
5.086711e-01
3.750000e-01
2.500000e-01
1.250000e-01
0.000000e+00
1.000000e+00
8.750000e-01
7.500000e-01
6.250000e-01
5.146660e-01
3.750000e-01
2.500000e-01
1.250000e-01
0.000000e+00
1.000000e+00
8.750000e-01
7.500000e-01
6.250000e-01
5.204099e-01
3.750000e-01
2.500000e-01
1.250000e-01
0.000000e+00
1.000000e+00
8.750000e-01
7.500000e-01
6.250000e-01
5.246325e-01
3.750000e-01
2.500000e-01
1.250000e-01
0.000000e+00
1.000000e+00
8.750000e-01
7.500000e-01
6.250000e-01
5.266317e-01
3.750000e-01
2.500000e-01
1.250000e-01
0.000000e+00
1.000000e+00
8.750000e-01
7.500000e-01
6.250000e-01
5.264143e-01
3.750000e-01
2.500000e-01
1.250000e-01
0.000000e+00
1.000000e+00
8.750000e-01
7.500000e-01
6.250000e-01
5.000030e-01
3.750000e-01
2.500000e-01
1.250000e-01
0.000000e+00
1.000000e+00
8.750000e-01
7.500000e-01
6.250000e-01
5.012159e-01
3.750000e-01
2.500000e-01
1.250000e-01
0.000000e+00
1.000000e+00
8.750000e-01
7.500000e-01
6.250000e-01
5.042427e-01
3.750000e-01
2.500000e-01
1.250000e-01
0.000000e+00
1.000000e+00
8.750000e-01
7.500000e-01
6.250000e-01
5.089582e-01
3.750000e-01
2.500000e-01
1.250000e-01
0.000000e+00
1.000000e+00
8.750000e-01
7.500000e-01
6.250000e-01
5.146795e-01
3.750000e-01
2.500000e-01
1.250000e-01
0.000000e+00
1.000000e+00
8.750000e-01
7.500000e-01
6.250000e-01
5.203040e-01
3.750000e-01
2.500000e-01
1.250000e-01
0.000000e+00
1.000000e+00
8.750000e-01
7.500000e-01
6.250000e-01
5.247232e-01
3.750000e-01
2.500000e-01
1.250000e-01
0.000000e+00
1.000000e+00
8.750000e-01
7.500000e-01
6.250000e-01
5.272447e-01
3.750000e-01
2.500000e-01
1.250000e-01
0.000000e+00
1.000000e+00
8.750000e-01
7.500000e-01
6.250000e-01
5.277480e-01
3.750000e-01
2.500000e-01
1.250000e-01
0.000000e+00
        </DataArray>
        <DataArray type="Float32" Name="velocity" NumberOfComponents="3" format="ascii">
2.189283e-01 3.277773e-03 -6.114131e-03
1.787425e-01 1.180250e+00 -8.373589e-01
1.177075e-01 1.957083e+00 -1.385546e+00
3.474212e-02 2.329983e+00 -1.647945e+00
-6.421014e-02 2.274079e+00 -1.607108e+00
-1.450192e-01 1.877798e+00 -1.325993e+00
-1.866071e-01 1.280765e+00 -9.035459e-01
-1.994322e-01 6.125746e-01 -4.312096e-01
-1.953068e-01 -3.777504e-03 4.246090e-03
-5.453454e-01 -1.896441e-01 -3.672147e-01
-4.092950e-01 9.865018e-01 -1.085662e+00
-2.698604e-01 1.824000e+00 -1.546696e+00
-7.600723e-02 2.276354e+00 -1.685221e+00
1.499135e-01 2.325612e+00 -1.507137e+00
3.179570e-01 2.003948e+00 -1.116469e+00
4.049786e-01 1.443696e+00 -6.354494e-01
4.258498e-01 7.968759e-01 -1.552805e-01
3.568383e-01 1.383941e-01 2.628458e-01
-1.205244e+00 -1.952681e-01 -7.736204e-01
-9.488382e-01 8.865559e-01 -1.350952e+00
-6.206714e-01 1.671847e+00 -1.657585e+00
-1.847247e-01 2.097567e+00 -1.627133e+00
3.371933e-01 2.152486e+00 -1.269345e+00
7.420575e-01 1.872468e+00 -7.609580e-01
9.418343e-01 1.362273e+00 -2.454599e-01
9.836129e-01 7.626360e-01 2.139504e-01
8.973787e-01 1.519204e-01 5.876914e-01
-1.631919e+00 -2.524462e-02 -1.132486e+00
-1.316846e+00 8.641396e-01 -1.540744e+00
-8.730953e-01 1.492191e+00 -1.670702e+00
-2.743445e-01 1.802771e+00 -1.467165e+00
4.394635e-01 1.789583e+00 -9.540706e-01
1.007084e+00 1.504907e+00 -3.515736e-01
1.291139e+00 1.049855e+00 1.714440e-01
1.362643e+00 5.336482e-01 5.878318e-01
1.278001e+00 2.236412e-02 8.922688e-01
-1.737088e+00 2.385018e-01 -1.331873e+00
-1.433263e+00 8.701927e-01 -1.570915e+00
-9.723919e-01 1.281781e+00 -1.549254e+00
-3.406242e-01 1.424099e+00 -1.224750e+00
4.242620e-01 1.300232e+00 -6.252316e-01
1.042758e+00 9.937283e-01 4.155156e-03
1.361359e+00 5.997990e-01 4.937475e-01
1.454321e+00 1.927236e-01 8.412807e-01
1.388390e+00 -1.900277e-01 1.066006e+00
-1.517921e+00 4.656276e-01 -1.284208e+00
-1.290961e+00 8.383309e-01 -1.394751e+00
-9.091669e-01 1.033387e+00 -1.284964e+00
-3.658298e-01 1.016636e+00 -9.278340e-01
3.042805e-01 7.990315e-01 -3.530187e-01
8.599702e-01 4.836970e-01 2.157258e-01
1.158619e+00 1.636267e-01 6.243099e-01
1.261598e+00 -1.281258e-01 8.891135e-01
1.230335e+00 -3.776964e-01 1.039998e+00
-1.086137e+00 5.434896e-01 -9.898468e-01
-9.618178e-01 7.117822e-01 -1.025630e+00
-7.118258e-01 7.496386e-01 -9.033323e-01
-3.346981e-01 6.382794e-01 -6.099296e-01
1.455614e-01 3.914103e-01 -1.682778e-01
5.564479e-01 1.117429e-01 2.536868e-01
7.901870e-01 -1.236898e-01 5.429986e-01
8.865135e-01 -3.073553e-01 7.181381e-01
8.878154e-01 -4.446203e-01 8.075161e-01
-5.952669e-01 4.325991e-01 -5.265690e-01
-5.560588e-01 4.783410e-01 -5.324531e-01
-4.378347e-01 4.454678e-01 -4.571795e-01
-2.401051e-01 3.259921e-01 -2.957085e-01
2.312548e-02 1.324725e-01 -6.180389e-02
2.577849e-01 -6.127068e-02 1.583651e-01
4.014473e-01 -2.026457e-01 3.056197e-01
4.711342e-01 -2.975341e-01 3.914292e-01
4.894648e-01 -3.558317e-01 4.321162e-01
-1.692047e-01 1.688050e-01 -3.991634e-03
-1.694328e-01 1.692540e-01 -3.990027e-03
-1.435998e-01 1.436413e-01 -3.355333e-03
-9.091621e-02 9.116158e-02 -2.071331e-03
-1.568984e-02 1.611281e-02 -2.407863e-04
5.450792e-02 -5.398981e-02 1.470640e-03
1.008404e-01 -1.003263e-01 2.606195e-03
1.272454e-01 -1.267987e-01 3.259989e-03
1.394710e-01 -1.391278e-01 3.569369e-03
9.052885e-01 -1.435323e-01 -4.349833e-01
7.062170e-01 9.969529e-01 -1.115302e+00
4.638790e-01 1.802820e+00 -1.543154e+00
1.317883e-01 2.227409e+00 -1.648818e+00
-2.592143e-01 2.255845e+00 -1.441078e+00
-5.624538e-01 1.927916e+00 -1.035788e+00
-7.187441e-01 1.374168e+00 -5.556665e-01
-7.612782e-01 7.406736e-01 -8.567153e-02
-6.865486e-01 9.855474e-02 3.133556e-01
1.651526e-01 -4.285666e-01 -7.934996e-01
1.311247e-01 7.399152e-01 -1.474635e+00
8.420331e-02 1.631976e+00 -1.792613e+00
2.126785e-02 2.188023e+00 -1.757824e+00
-5.449403e-02 2.360733e+00 -1.390677e+00
-1.139606e-01 2.137575e+00 -8.177924e-01
-1.432284e-01 1.636645e+00 -2.367590e-01
-1.510421e-01 1.019369e+00 2.807016e-01
-1.427105e-01 4.040452e-01 7.474595e-01
-5.259755e-01 -5.465545e-01 -1.274046e+00
-4.258865e-01 5.719451e-01 -1.826864e+00
-2.743881e-01 1.443594e+00 -1.993104e+00
-7.809247e-02 2.017847e+00 -1.773175e+00
1.594589e-01 2.244782e+00 -1.189808e+00
3.465958e-01 2.092379e+00 -4.586919e-01
4.328235e-01 1.650240e+00 1.889662e-01
4.523867e-01 1.079039e+00 7.158655e-01
4.345294e-01 4.915944e-01 1.138471e+00
-1.043377e+00 -4.380213e-01 -1.709173e+00
-8.352997e-01 5.022841e-01 -2.094715e+00
-5.405778e-01 1.231613e+00 -2.084416e+00
-1.488618e-01 1.708421e+00 -1.671518e+00
3.182574e-01 1.891807e+00 -8.985137e-01
6.824511e-01 1.752945e+00 -4.419156e-02
8.562006e-01 1.375361e+00 6.359086e-01
8.931748e-01 8.919397e-01 1.131264e+00
8.437515e-01 3.948973e-01 1.487915e+00
-1.231250e+00 -1.784995e-01 -1.958490e+00
-9.948214e-01 4.933125e-01 -2.174455e+00
-6.528161e-01 9.938795e-01 -2.015245e+00
-1.933684e-01 1.294177e+00 -1.471881e+00
3.572497e-01 1.364246e+00 -5.906739e-01
7.896168e-01 1.209533e+00 3.063912e-01
9.993100e-01 9.030262e-01 9.638932e-01
1.049861e+00 5.361062e-01 1.399960e+00
9.950200e-01 1.709900e-01 1.671579e+00
-1.066383e+00 7.874843e-02 -1.918351e+00
-8.779838e-01 4.641713e-01 -2.006648e+00
-5.932111e-01 7.259229e-01 -1.772295e+00
-2.007278e-01 8.423633e-01 -1.201353e+00
2.750323e-01 8.019016e-01 -3.428409e-01
6.544347e-01 6.377682e-01 4.902539e-01
8.458412e-01 4.124579e-01 1.068092e+00
8.996683e-01 1.737434e-01 1.422682e+00
8.612917e-01 -4.961501e-02 1.614496e+00
-6.552120e-01 1.857901e-01 -1.590890e+00
-5.569677e-01 3.443284e-01 -1.612617e+00
-3.922943e-01 4.285125e-01 -1.384007e+00
-1.566626e-01 4.291683e-01 -8.951006e-01
1.349690e-01 3.436770e-01 -1.859289e-01
3.740585e-01 2.129742e-01 4.845001e-01
5.008318e-01 7.886586e-02 9.350881e-01
5.445356e-01 -4.315799e-02 1.198756e+00
5.315464e-01 -1.462146e-01 1.326273e+00
-1.716344e-01 8.601978e-02 -1.077149e+00
-1.524367e-01 1.121583e-01 -1.078562e+00
-1.132958e-01 1.178290e-01 -9.149237e-01
-5.353829e-02 1.006402e-01 -5.795252e-01
2.241612e-02 6.210098e-02 -1.016616e-01
8.706909e-02 1.775411e-02 3.459444e-01
1.238428e-01 -1.948562e-02 6.433359e-01
1.391926e-01 -4.837164e-02 8.137944e-01
1.397764e-01 -6.952129e-02 8.921549e-01
2.446318e-01 -1.814963e-01 -5.086779e-01
2.290444e-01 -1.985772e-01 -5.096207e-01
1.808538e-01 -1.835080e-01 -4.331387e-01
1.001103e-01 -1.321868e-01 -2.753174e-01
-7.817860e-03 -5.090638e-02 -4.961880e-02
-1.048597e-01 2.942416e-02 1.615507e-01
-1.649904e-01 8.734185e-02 3.015990e-01
-1.940886e-01 1.262302e-01 3.818060e-01
-2.018197e-01 1.498004e-01 4.184958e-01
1.434170e+00 -1.165468e-01 -8.863981e-01
1.142020e+00 8.967181e-01 -1.400586e+00
7.488848e-01 1.621937e+00 -1.648753e+00
2.242285e-01 1.998611e+00 -1.562923e+00
-4.036463e-01 2.019219e+00 -1.155768e+00
-8.976670e-01 1.729525e+00 -6.213950e-01
-1.144916e+00 1.233664e+00 -1.074218e-01
-1.203589e+00 6.614875e-01 3.331407e-01
-1.117398e+00 8.367494e-02 6.773394e-01
7.624986e-01 -5.026265e-01 -1.331281e+00
6.125058e-01 5.779505e-01 -1.852865e+00
3.929460e-01 1.416092e+00 -1.989913e+00
1.053635e-01 1.962875e+00 -1.741857e+00
-2.406104e-01 2.170595e+00 -1.132935e+00
-5.126064e-01 2.012146e+00 -3.883240e-01
-6.406378e-01 1.577889e+00 2.587258e-01
-6.704079e-01 1.022100e+00 7.762871e-01
-6.400698e-01 4.524373e-01 1.184568e+00
9.506278e-02 -6.956846e-01 -1.875783e+00
7.317508e-02 3.552721e-01 -2.302016e+00
4.482566e-02 1.192770e+00 -2.291188e+00
7.762096e-03 1.782041e+00 -1.838005e+00
-3.521879e-02 2.074056e+00 -9.695480e-01
-6.824706e-02 2.015396e+00 -1.516975e-02
-8.388282e-02 1.655451e+00 7.393150e-01
-8.634367e-02 1.154582e+00 1.298207e+00
-8.040111e-02 6.255240e-01 1.686359e+00
-4.395263e-01 -6.367626e-01 -2.373622e+00
-3.443277e-01 2.416434e-01 -2.649757e+00
-2.202487e-01 9.460194e-01 -2.469346e+00
-5.266355e-02 1.451644e+00 -1.811196e+00
1.416553e-01 1.721222e+00 -7.218785e-01
2.924502e-01 1.693173e+00 3.914978e-01
3.653185e-01 1.409634e+00 1.209622e+00
3.787485e-01 1.002373e+00 1.757845e+00
3.525688e-01 5.652014e-01 2.093643e+00
-6.649441e-01 -3.820880e-01 -2.641857e+00
-5.229259e-01 2.104422e-01 -2.775419e+00
-3.335327e-01 6.786015e-01 -2.460780e+00
-8.251659e-02 1.005810e+00 -1.675362e+00
2.122777e-01 1.165168e+00 -4.712138e-01
4.405458e-01 1.127065e+00 7.016774e-01
5.489177e-01 9.223317e-01 1.515473e+00
5.690355e-01 6.396167e-01 2.021602e+00
5.308516e-01 3.417427e-01 2.292062e+00
-5.240770e-01 -1.085678e-01 -2.572606e+00
-4.184145e-01 1.748917e-01 -2.609973e+00
-2.731702e-01 3.896613e-01 -2.245714e+00
-7.671683e-02 5.234193e-01 -1.453533e+00
1.552283e-01 5.669749e-01 -2.899119e-01
3.370936e-01 5.173893e-01 8.128374e-01
4.258466e-01 3.988030e-01 1.553773e+00
4.451695e-01 2.512065e-01 1.989444e+00
4.189878e-01 1.026718e-01 2.197584e+00
-1.219858e-01 6.971349e-03 -2.182441e+00
-1.004713e-01 5.111658e-02 -2.186293e+00
-6.803816e-02 8.100455e-02 -1.856844e+00
-2.344041e-02 9.464961e-02 -1.177395e+00
3.016565e-02 9.094159e-02 -1.967068e-01
7.320722e-02 7.345558e-02 7.229770e-01
9.513627e-02 4.846465e-02 1.331986e+00
1.014067e-01 2.172593e-02 1.682636e+00
9.724372e-02 -3.180436e-03 1.842286e+00
3.561763e-01 -1.047227e-01 -1.604304e+00
3.029845e-01 -1.877920e-01 -1.611020e+00
2.136619e-01 -2.305378e-01 -1.370648e+00
8.561072e-02 -2.286181e-01 -8.726894e-01
-7.393981e-02 -1.799149e-01 -1.572996e-01
-2.047305e-01 -1.080262e-01 5.140973e-01
-2.738426e-01 -3.588371e-02 9.607885e-01
-2.979125e-01 2.902894e-02 1.218094e+00
-2.908750e-01 8.366155e-02 1.337550e+00
7.613701e-01 -3.973283e-01 -9.891926e-01
6.775658e-01 -5.072235e-01 -1.004653e+00
5.042141e-01 -5.252949e-01 -8.674062e-01
2.411042e-01 -4.383550e-01 -5.666348e-01
-9.558958e-02 -2.574821e-01 -1.255633e-01
-3.855957e-01 -5.768977e-02 2.900230e-01
-5.520892e-01 1.071786e-01 5.690985e-01
-6.221265e-01 2.335751e-01 7.325637e-01
-6.253255e-01 3.266441e-01 8.105003e-01
1.693350e+00 5.534491e-02 -1.253730e+00
1.375711e+00 8.539080e-01 -1.590670e+00
9.159090e-01 1.405573e+00 -1.653580e+00
2.929280e-01 1.658831e+00 -1.388101e+00
-4.519832e-01 1.610925e+00 -8.214798e-01
-1.048951e+00 1.322979e+00 -1.912441e-01
-1.351167e+00 8.932126e-01 3.282743e-01
-1.432325e+00 4.172095e-01 7.222868e-01
-1.354573e+00 -4.837209e-02 9.937537e-01
1.138723e+00 -3.696075e-01 -1.797048e+00
9.106070e-01 4.997390e-01 -2.132703e+00
5.888445e-01 1.168866e+00 -2.077082e+00
1.602833e-01 1.598592e+00 -1.620902e+00
-3.518352e-01 1.751919e+00 -8.083908e-01
-7.514219e-01 1.608213e+00 6.589398e-02
-9.431234e-01 1.249123e+00 7.441643e-01
-9.854477e-01 7.964950e-01 1.224177e+00
-9.307247e-01 3.340761e-01 1.557093e+00
5.336185e-01 -5.969931e-01 -2.414513e+00
4.152078e-01 2.411577e-01 -2.667780e+00
2.620247e-01 9.118123e-01 -2.466922e+00
5.724474e-02 1.391035e+00 -1.788742e+00
-1.800281e-01 1.643362e+00 -6.816836e-01
-3.631351e-01 1.612020e+00 4.407781e-01
-4.507258e-01 1.338431e+00 1.258363e+00
-4.659544e-01 9.480587e-01 1.799541e+00
-4.328263e-01 5.300729e-01 2.124732e+00
2.874028e-02 -5.540031e-01 -2.942093e+00
2.055132e-02 1.017400e-01 -3.081231e+00
1.109525e-02 6.333291e-01 -2.729616e+00
-4.278254e-04 1.030570e+00 -1.846353e+00
-1.342542e-02 1.266872e+00 -4.989182e-01
-2.269690e-02 1.277488e+00 8.135751e-01
-2.648135e-02 1.090608e+00 1.725638e+00
-2.635899e-02 8.038110e-01 2.286870e+00
-2.339931e-02 4.866070e-01 2.584088e+00
-1.883309e-01 -2.996002e-01 -3.195521e+00
-1.474587e-01 5.538487e-02 -3.238274e+00
-9.223655e-02 3.422552e-01 -2.786711e+00
-2.222644e-02 5.569981e-01 -1.796904e+00
6.203892e-02 6.838979e-01 -3.378366e-01
1.262889e-01 6.897714e-01 1.045958e+00
1.557741e-01 5.885120e-01 1.976488e+00
1.614585e-01 4.333531e-01 2.521698e+00
1.503971e-01 2.620906e-01 2.779526e+00
-4.158999e-02 -2.537498e-02 -3.065163e+00
-3.371414e-02 1.118867e-02 -3.069051e+00
-2.243858e-02 3.993297e-02 -2.612550e+00
-7.254230e-03 6.030921e-02 -1.652530e+00
1.085791e-02 7.099215e-02 -2.597094e-01
2.526669e-02 6.933211e-02 1.048841e+00
3.243200e-02 5.742630e-02 1.918125e+00
3.433014e-02 4.061269e-02 2.417245e+00
3.278205e-02 2.259095e-02 2.642461e+00
3.722600e-01 7.121711e-02 -2.601589e+00
2.958769e-01 -1.230807e-01 -2.620735e+00
1.922601e-01 -2.704805e-01 -2.240690e+00
5.170991e-02 -3.613435e-01 -1.433627e+00
-1.139895e-01 -3.895500e-01 -2.574482e-01
-2.434985e-01 -3.539710e-01 8.510655e-01
-3.064406e-01 -2.715113e-01 1.590625e+00
-3.194281e-01 -1.694132e-01 2.020086e+00
-2.997831e-01 -6.708785e-02 2.219513e+00
8.616141e-01 -8.109731e-02 -1.966760e+00
7.102095e-01 -3.759536e-01 -2.020029e+00
4.808940e-01 -5.733559e-01 -1.755863e+00
1.637935e-01 -6.559399e-01 -1.158598e+00
-2.222085e-01 -6.151149e-01 -2.780190e-01
-5.303000e-01 -4.803189e-01 5.639248e-01
-6.861207e-01 -3.020836e-01 1.137128e+00
-7.306454e-01 -1.161531e-01 1.479132e+00
-6.999364e-01 5.651499e-02 1.653206e+00
1.273468e+00 -4.241407e-01 -1.327812e+00
1.089292e+00 -7.132583e-01 -1.395959e+00
7.719407e-01 -8.546699e-01 -1.249164e+00
3.173509e-01 -8.208723e-01 -8.632213e-01
-2.458162e-01 -6.229909e-01 -2.691057e-01
-7.157266e-01 -3.523889e-01 3.049493e-01
-9.708870e-01 -8.741725e-02 7.040710e-01
-1.061736e+00 1.487479e-01 9.512339e-01
-1.040249e+00 3.473913e-01 1.081079e+00
1.628541e+00 2.783224e-01 -1.424931e+00
1.351842e+00 8.139010e-01 -1.601202e+00
9.224143e-01 1.151065e+00 -1.521608e+00
3.303605e-01 1.246736e+00 -1.146268e+00
-3.889804e-01 1.106558e+00 -5.055061e-01
-9.745495e-01 8.151974e-01 1.431423e-01
-1.279438e+00 4.605226e-01 6.262161e-01
-1.372591e+00 1.034239e-01 9.519342e-01
-1.317885e+00 -2.273790e-01 1.147074e+00
1.166801e+00 -1.222776e-01 -2.039876e+00
9.432204e-01 4.595429e-01 -2.205930e+00
6.198761e-01 8.883813e-01 -2.002439e+00
1.840903e-01 1.138352e+00 -1.417683e+00
-3.396459e-01 1.184047e+00 -4.997168e-01
-7.514693e-01 1.036014e+00 4.148218e-01
-9.520144e-01 7.614846e-01 1.068763e+00
-1.001546e+00 4.384797e-01 1.488599e+00
-9.498300e-01 1.196407e-01 1.735901e+00
6.346284e-01 -3.257034e-01 -2.691517e+00
4.970704e-01 1.941072e-01 -2.796313e+00
3.152097e-01 6.037491e-01 -2.456059e+00
7.451549e-02 8.880760e-01 -1.646143e+00
-2.078505e-01 1.023374e+00 -4.204367e-01
-4.258271e-01 9.858377e-01 7.631072e-01
-5.290095e-01 8.033844e-01 1.575521e+00
-5.473422e-01 5.536178e-01 2.072438e+00
-5.096145e-01 2.914376e-01 2.329403e+00
1.806501e-01 -2.637226e-01 -3.210501e+00
1.385010e-01 4.992752e-02 -3.244926e+00
8.371549e-02 3.034177e-01 -2.785600e+00
1.547753e-02 4.929941e-01 -1.788753e+00
-6.575002e-02 6.046631e-01 -3.230663e-01
-1.264693e-01 6.094178e-01 1.063961e+00
-1.533330e-01 5.195959e-01 1.993984e+00
-1.571448e-01 3.822427e-01 2.536680e+00
-1.444434e-01 2.307459e-01 2.790592e+00
2.031618e-04 -2.088089e-16 -3.409499e+00
-1.492997e-03 1.588899e-10 -3.415057e+00
-2.494393e-03 -1.156963e-07 -2.906202e+00
-3.084072e-03 -1.117509e-07 -1.837725e+00
-3.229481e-03 -5.023987e-08 -2.792088e-01
-2.607550e-03 -7.747420e-08 1.185478e+00
-1.793868e-03 1.725262e-08 2.157033e+00
-7.737502e-04 2.409938e-08 2.717126e+00
4.351917e-04 1.817009e-16 2.968707e+00
1.806500e-01 2.637226e-01 -3.210501e+00
1.385010e-01 -4.992744e-02 -3.244927e+00
8.371548e-02 -3.034177e-01 -2.785600e+00
1.547750e-02 -4.929942e-01 -1.788753e+00
-6.575011e-02 -6.046631e-01 -3.230663e-01
-1.264694e-01 -6.094178e-01 1.063961e+00
-1.533331e-01 -5.195958e-01 1.993984e+00
-1.571450e-01 -3.822426e-01 2.536680e+00
-1.444436e-01 -2.307459e-01 2.790592e+00
6.346283e-01 3.257035e-01 -2.691517e+00
4.970704e-01 -1.941072e-01 -2.796313e+00
3.152097e-01 -6.037491e-01 -2.456059e+00
7.451549e-02 -8.880758e-01 -1.646143e+00
-2.078506e-01 -1.023374e+00 -4.204367e-01
-4.258272e-01 -9.858376e-01 7.631072e-01
-5.290096e-01 -8.033842e-01 1.575521e+00
-5.473424e-01 -5.536177e-01 2.072439e+00
-5.096146e-01 -2.914377e-01 2.329404e+00
1.166801e+00 1.222777e-01 -2.039876e+00
9.432203e-01 -4.595428e-01 -2.205930e+00
6.198759e-01 -8.883813e-01 -2.002440e+00
1.840902e-01 -1.138352e+00 -1.417684e+00
-3.396460e-01 -1.184047e+00 -4.997167e-01
-7.514694e-01 -1.036014e+00 4.148219e-01
-9.520144e-01 -7.614845e-01 1.068763e+00
-1.001546e+00 -4.384798e-01 1.488599e+00
-9.498300e-01 -1.196409e-01 1.735902e+00
1.628541e+00 -2.783223e-01 -1.424931e+00
1.351841e+00 -8.139009e-01 -1.601202e+00
9.224143e-01 -1.151065e+00 -1.521608e+00
3.303604e-01 -1.246736e+00 -1.146268e+00
-3.889806e-01 -1.106558e+00 -5.055061e-01
-9.745496e-01 -8.151974e-01 1.431424e-01
-1.279438e+00 -4.605228e-01 6.262162e-01
-1.372591e+00 -1.034240e-01 9.519343e-01
-1.317885e+00 2.273790e-01 1.147075e+00
1.273468e+00 4.241408e-01 -1.327812e+00
1.089292e+00 7.132584e-01 -1.395959e+00
7.719408e-01 8.546699e-01 -1.249164e+00
3.173511e-01 8.208723e-01 -8.632213e-01
-2.458160e-01 6.229909e-01 -2.691056e-01
-7.157264e-01 3.523890e-01 3.049493e-01
-9.708868e-01 8.741739e-02 7.040710e-01
-1.061736e+00 -1.487477e-01 9.512340e-01
-1.040249e+00 -3.473911e-01 1.081079e+00
8.616142e-01 8.109744e-02 -1.966760e+00
7.102097e-01 3.759537e-01 -2.020029e+00
4.808942e-01 5.733559e-01 -1.755863e+00
1.637937e-01 6.559399e-01 -1.158598e+00
-2.222082e-01 6.151148e-01 -2.780190e-01
-5.302998e-01 4.803188e-01 5.639250e-01
-6.861205e-01 3.020836e-01 1.137128e+00
-7.306452e-01 1.161532e-01 1.479132e+00
-6.999361e-01 -5.651490e-02 1.653206e+00
3.722601e-01 -7.121705e-02 -2.601589e+00
2.958770e-01 1.230808e-01 -2.620734e+00
1.922602e-01 2.704807e-01 -2.240690e+00
5.171001e-02 3.613435e-01 -1.433626e+00
-1.139893e-01 3.895501e-01 -2.574481e-01
-2.434983e-01 3.539711e-01 8.510654e-01
-3.064404e-01 2.715113e-01 1.590625e+00
-3.194279e-01 1.694133e-01 2.020086e+00
-2.997829e-01 6.708792e-02 2.219513e+00
-4.158979e-02 2.537502e-02 -3.065163e+00
-3.371394e-02 -1.118868e-02 -3.069050e+00
-2.243846e-02 -3.993294e-02 -2.612550e+00
-7.254067e-03 -6.030913e-02 -1.652530e+00
1.085801e-02 -7.099196e-02 -2.597094e-01
2.526682e-02 -6.933197e-02 1.048841e+00
3.243215e-02 -5.742604e-02 1.918124e+00
3.433028e-02 -4.061255e-02 2.417245e+00
3.278218e-02 -2.259092e-02 2.642461e+00
-1.883308e-01 2.996002e-01 -3.195521e+00
-1.474585e-01 -5.538498e-02 -3.238273e+00
-9.223632e-02 -3.422553e-01 -2.786711e+00
-2.222635e-02 -5.569981e-01 -1.796904e+00
6.203901e-02 -6.838979e-01 -3.378366e-01
1.262889e-01 -6.897714e-01 1.045958e+00
1.557740e-01 -5.885119e-01 1.976488e+00
1.614584e-01 -4.333531e-01 2.521698e+00
1.503970e-01 -2.620907e-01 2.779527e+00
2.874041e-02 5.540031e-01 -2.942093e+00
2.055144e-02 -1.017402e-01 -3.081231e+00
1.109536e-02 -6.333292e-01 -2.729616e+00
-4.277516e-04 -1.030570e+00 -1.846353e+00
-1.342536e-02 -1.266872e+00 -4.989182e-01
-2.269685e-02 -1.277487e+00 8.135752e-01
-2.648126e-02 -1.090608e+00 1.725638e+00
-2.635889e-02 -8.038111e-01 2.286870e+00
-2.339919e-02 -4.866070e-01 2.584089e+00
5.336186e-01 5.969931e-01 -2.414513e+00
4.152079e-01 -2.411574e-01 -2.667781e+00
2.620247e-01 -9.118121e-01 -2.466922e+00
5.724471e-02 -1.391035e+00 -1.788742e+00
-1.800281e-01 -1.643362e+00 -6.816836e-01
-3.631352e-01 -1.612020e+00 4.407780e-01
-4.507259e-01 -1.338431e+00 1.258363e+00
-4.659546e-01 -9.480586e-01 1.799541e+00
-4.328265e-01 -5.300730e-01 2.124732e+00
1.138723e+00 3.696075e-01 -1.797048e+00
9.106070e-01 -4.997389e-01 -2.132703e+00
5.888445e-01 -1.168866e+00 -2.077082e+00
1.602833e-01 -1.598592e+00 -1.620902e+00
-3.518353e-01 -1.751919e+00 -8.083910e-01
-7.514221e-01 -1.608214e+00 6.589405e-02
-9.431236e-01 -1.249123e+00 7.441644e-01
-9.854478e-01 -7.964953e-01 1.224177e+00
-9.307248e-01 -3.340762e-01 1.557093e+00
1.693350e+00 -5.534486e-02 -1.253731e+00
1.375711e+00 -8.539080e-01 -1.590670e+00
9.159090e-01 -1.405573e+00 -1.653580e+00
2.929279e-01 -1.658831e+00 -1.388101e+00
-4.519832e-01 -1.610925e+00 -8.214798e-01
-1.048951e+00 -1.322979e+00 -1.912440e-01
-1.351167e+00 -8.932127e-01 3.282744e-01
-1.432325e+00 -4.172095e-01 7.222869e-01
-1.354573e+00 4.837192e-02 9.937540e-01
7.613702e-01 3.973284e-01 -9.891926e-01
6.775659e-01 5.072235e-01 -1.004653e+00
5.042142e-01 5.252950e-01 -8.674061e-01
2.411044e-01 4.383552e-01 -5.666348e-01
-9.558936e-02 2.574821e-01 -1.255633e-01
-3.855955e-01 5.768990e-02 2.900231e-01
-5.520890e-01 -1.071785e-01 5.690984e-01
-6.221263e-01 -2.335750e-01 7.325636e-01
-6.253252e-01 -3.266439e-01 8.105003e-01
3.561764e-01 1.047228e-01 -1.604304e+00
3.029846e-01 1.877921e-01 -1.611019e+00