<?xml version="1.0"?>
<VTKFile type="StructuredGrid" version="0.1">
  <StructuredGrid WholeExtent="0 8 0 8 0 8">
    <Piece Extent="0 8 0 8 0 8">
      <PointData Scalars="temperature" Vectors="velocity">
        <DataArray type="Float32" Name="temperature" format="ascii">
1.000000e+00
8.682630e-01
7.434889e-01
6.191058e-01
4.945475e-01
3.698981e-01
2.451313e-01
1.206639e-01
0.000000e+00
1.000000e+00
8.683383e-01
7.436288e-01
6.193666e-01
4.949093e-01
3.701197e-01
2.452284e-01
1.207046e-01
0.000000e+00
1.000000e+00
8.686623e-01
7.442614e-01
6.205764e-01
4.966862e-01
3.711622e-01
2.456774e-01
1.208895e-01
0.000000e+00
1.000000e+00
8.692417e-01
7.453900e-01
6.227337e-01
4.999187e-01
3.730560e-01
2.464937e-01
1.212273e-01
0.000000e+00
1.000000e+00
8.700001e-01
7.468580e-01
6.255289e-01
5.041876e-01
3.755703e-01
2.475725e-01
1.216715e-01
0.000000e+00
1.000000e+00
8.707896e-01
7.483753e-01
6.284082e-01
5.086798e-01
3.782305e-01
2.487037e-01
1.221308e-01
0.000000e+00
1.000000e+00
8.714478e-01
7.496353e-01
6.307941e-01
5.124873e-01
3.804828e-01
2.496452e-01
1.225033e-01
0.000000e+00
1.000000e+00
8.718713e-01
7.504040e-01
6.322795e-01
5.149482e-01
3.818945e-01
2.501968e-01
1.227314e-01
0.000000e+00
1.000000e+00
8.708132e-01
7.495576e-01
6.317132e-01
5.146646e-01
3.810830e-01
2.491579e-01
1.216275e-01
0.000000e+00
1.000000e+00
8.681983e-01
7.433616e-01
6.188665e-01
4.942195e-01
3.697004e-01
2.450481e-01
1.206328e-01
0.000000e+00
1.000000e+00
8.682503e-01
7.434618e-01
6.190572e-01
4.944835e-01
3.698625e-01
2.451175e-01
1.206601e-01
0.000000e+00
1.000000e+00
8.685786e-01
7.440985e-01
6.202751e-01
4.963023e-01
3.709089e-01
2.455688e-01
1.208474e-01
0.000000e+00
1.000000e+00
8.691918e-01
7.452819e-01
6.225321e-01
4.997392e-01
3.728838e-01
2.464217e-01
1.212038e-01
0.000000e+00
1.000000e+00
8.700025e-01
7.468333e-01
6.254743e-01
5.042957e-01
3.755246e-01
2.475586e-01
1.216773e-01
0.000000e+00
1.000000e+00
8.708361e-01
7.484156e-01
6.284582e-01
5.089873e-01
3.782811e-01
2.487380e-01
1.221646e-01
0.000000e+00
1.000000e+00
8.715085e-01
7.496777e-01
6.308299e-01
5.127504e-01
3.805262e-01
2.496885e-01
1.225510e-01
0.000000e+00
1.000000e+00
8.718199e-01
7.503196e-01
6.321149e-01
5.148441e-01
3.817562e-01
2.501710e-01
1.227341e-01
0.000000e+00
1.000000e+00
8.719247e-01
7.505017e-01
6.324606e-01
5.152561e-01
3.820684e-01
2.502692e-01
1.227600e-01
0.000000e+00
1.000000e+00
8.678563e-01
7.427042e-01
6.176333e-01
4.924533e-01
3.686762e-01
2.446015e-01
1.204435e-01
0.000000e+00
1.000000e+00
8.678699e-01
7.427295e-01
6.176785e-01
4.924711e-01
3.687179e-01
2.446213e-01
1.204519e-01
0.000000e+00
1.000000e+00
8.681748e-01
7.433256e-01
6.188233e-01
4.941676e-01
3.696887e-01
2.450398e-01
1.206249e-01
0.000000e+00
1.000000e+00
8.688016e-01
7.445364e-01
6.211333e-01
4.976527e-01
3.716773e-01
2.458970e-01
1.209826e-01
0.000000e+00
1.000000e+00
8.696530e-01
7.461636e-01
6.242139e-01
5.023812e-01
3.743956e-01
2.470652e-01
1.214691e-01
0.000000e+00
1.000000e+00
8.705257e-01
7.478174e-01
6.273254e-01
5.072308e-01
3.772258e-01
2.482763e-01
1.219702e-01
0.000000e+00
1.000000e+00
8.711999e-01
7.490910e-01
6.297240e-01
5.110036e-01
3.794735e-01
2.492351e-01
1.223620e-01
0.000000e+00
1.000000e+00
8.715516e-01
7.497591e-01
6.309832e-01
5.129973e-01
3.806754e-01
2.497525e-01
1.225777e-01
0.000000e+00
1.000000e+00
8.715494e-01
7.498233e-01
6.311439e-01
5.130543e-01
3.808170e-01
2.497862e-01
1.225601e-01
0.000000e+00
1.000000e+00
8.672390e-01
7.415112e-01
6.153847e-01
4.892213e-01
3.668355e-01
2.437943e-01
1.200963e-01
0.000000e+00
1.000000e+00
8.671944e-01
7.414210e-01
6.152023e-01
4.888476e-01
3.666964e-01
2.437417e-01
1.200780e-01
0.000000e+00
1.000000e+00
8.674434e-01
7.419188e-01
6.161687e-01
4.902624e-01
3.674994e-01
2.440906e-01
1.202229e-01
0.000000e+00
1.000000e+00
8.680524e-01
7.431047e-01
6.184391e-01
4.936372e-01
3.694004e-01
2.449128e-01
1.205678e-01
0.000000e+00
1.000000e+00
8.689234e-01
7.447762e-01
6.216050e-01
4.984256e-01
3.721098e-01
2.460793e-01
1.210569e-01
0.000000e+00
1.000000e+00
8.698331e-01
7.465053e-01
6.248580e-01
5.034194e-01
3.749806e-01
2.473116e-01
1.215710e-01
0.000000e+00
1.000000e+00
8.705393e-01
7.478439e-01
6.273770e-01
5.073167e-01
3.772774e-01
2.482993e-01
1.219800e-01
0.000000e+00
1.000000e+00
8.708991e-01
7.485359e-01
6.286867e-01
5.093555e-01
3.785002e-01
2.488331e-01
1.222047e-01
0.000000e+00
1.000000e+00
8.709211e-01
7.486218e-01
6.288697e-01
5.094106e-01
3.786629e-01
2.488881e-01
1.222060e-01
0.000000e+00
1.000000e+00
8.664217e-01
7.399258e-01
6.123906e-01
4.849470e-01
3.644443e-01
2.427402e-01
1.196371e-01
0.000000e+00
1.000000e+00
8.663194e-01
7.397155e-01
6.119646e-01
4.841537e-01
3.641241e-01
2.426167e-01
1.195954e-01
0.000000e+00
1.000000e+00
8.665010e-01
7.400937e-01
6.127117e-01
4.852261e-01
3.647317e-01
2.428859e-01
1.197082e-01
0.000000e+00
1.000000e+00
8.670741e-01
7.412226e-01
6.148859e-01
4.883899e-01
3.664908e-01
2.436528e-01
1.200327e-01
0.000000e+00
1.000000e+00
8.679458e-01
7.429081e-01
6.180865e-01
4.931333e-01
3.691268e-01
2.447940e-01
1.205159e-01
0.000000e+00
1.000000e+00
8.688857e-01
7.447052e-01
6.214741e-01
4.982316e-01
3.720018e-01
2.460339e-01
1.210382e-01
0.000000e+00
1.000000e+00
8.696394e-01
7.461394e-01
6.241731e-01
5.023286e-01
3.743680e-01
2.470551e-01
1.214656e-01
0.000000e+00
1.000000e+00
8.700536e-01
7.469329e-01
6.256676e-01
5.046093e-01
3.757085e-01
2.476397e-01
1.217122e-01
0.000000e+00
1.000000e+00
8.701373e-01
7.471179e-01
6.260187e-01
5.049466e-01
3.760173e-01
2.477645e-01
1.217507e-01
0.000000e+00
1.000000e+00
8.655552e-01
7.382414e-01
6.092042e-01
4.804419e-01
3.619764e-01
2.416465e-01
1.191564e-01
0.000000e+00
1.000000e+00
8.654279e-01
7.379652e-01
6.086320e-01
4.793979e-01
3.615592e-01
2.414897e-01
1.191079e-01
0.000000e+00
1.000000e+00
8.655681e-01
7.382682e-01
6.092365e-01
4.802449e-01
3.620374e-01
2.417066e-01
1.192005e-01
0.000000e+00
1.000000e+00
8.661128e-01
7.393515e-01
6.113291e-01
4.832238e-01
3.636705e-01
2.424247e-01
1.195075e-01
0.000000e+00
1.000000e+00
8.669743e-01
7.410303e-01
6.145237e-01
4.878607e-01
3.662035e-01
2.435286e-01
1.199797e-01
0.000000e+00
1.000000e+00
8.679273e-01
7.428659e-01
6.179925e-01
4.929782e-01
3.690366e-01
2.447569e-01
1.205022e-01
0.000000e+00
1.000000e+00
8.687212e-01
7.443851e-01
6.208545e-01
4.972439e-01
3.714489e-01
2.458007e-01
1.209429e-01
0.000000e+00
1.000000e+00
8.691997e-01
7.453005e-01
6.225750e-01
4.998224e-01
3.729322e-01
2.464449e-01
1.212148e-01
0.000000e+00
1.000000e+00
8.693591e-01
7.456142e-01
6.231585e-01
5.005641e-01
3.734334e-01
2.466566e-01
1.212949e-01
0.000000e+00
1.000000e+00
8.648101e-01
7.367947e-01
6.064643e-01
4.766010e-01
3.599217e-01
2.407362e-01
1.187513e-01
0.000000e+00
1.000000e+00
8.647163e-01
7.365578e-01
6.059433e-01
4.756356e-01
3.595522e-01
2.406095e-01
1.187290e-01
0.000000e+00
1.000000e+00
8.648695e-01
7.368839e-01
6.065795e-01
4.765111e-01
3.600292e-01
2.408221e-01
1.188199e-01
0.000000e+00
1.000000e+00
8.654176e-01
7.379722e-01
6.086718e-01
4.794398e-01
3.616091e-01
2.415182e-01
1.191189e-01
0.000000e+00
1.000000e+00
8.662637e-01
7.396314e-01
6.118337e-01
4.839566e-01
3.640462e-01
2.425866e-01
1.195796e-01
0.000000e+00
1.000000e+00
8.672025e-01
7.414536e-01
6.152897e-01
4.889757e-01
3.667920e-01
2.437841e-01
1.200927e-01
0.000000e+00
1.000000e+00
8.680046e-01
7.429996e-01
6.182114e-01
4.932677e-01
3.691859e-01
2.448236e-01
1.205342e-01
0.000000e+00
1.000000e+00
8.685229e-01
7.439943e-01
6.200846e-01
4.960341e-01
3.707557e-01
2.455043e-01
1.208214e-01
0.000000e+00
1.000000e+00
8.687403e-01
7.444107e-01
6.208595e-01
4.971083e-01
3.714077e-01
2.457833e-01
1.209331e-01
0.000000e+00
1.000000e+00
8.642805e-01
7.357870e-01
6.046303e-01
4.740478e-01
3.586087e-01
2.401801e-01
1.185426e-01
0.000000e+00
1.000000e+00
8.642184e-01
7.356570e-01
6.043245e-01
4.734600e-01
3.583880e-01
2.400888e-01
1.185021e-01
0.000000e+00
1.000000e+00
8.645385e-01
7.362039e-01
6.052623e-01
4.746840e-01
3.590490e-01
2.403865e-01
1.186311e-01
0.000000e+00
1.000000e+00
8.651136e-01
7.373428e-01
6.074394e-01
4.777064e-01
3.606589e-01
2.410918e-01
1.189344e-01
0.000000e+00
1.000000e+00
8.659414e-01
7.389726e-01
6.105457e-01
4.821100e-01
3.630209e-01
2.421320e-01
1.193856e-01
0.000000e+00
1.000000e+00
8.668385e-01
7.407267e-01
6.138811e-01
4.869182e-01
3.656373e-01
2.432793e-01
1.198798e-01
0.000000e+00
1.000000e+00
8.676086e-01
7.422235e-01
6.167196e-01
4.910593e-01
3.679311e-01
2.442798e-01
1.203072e-01
0.000000e+00
1.000000e+00
8.681251e-01
7.432218e-01
6.186064e-01
4.938255e-01
3.694895e-01
2.449569e-01
1.205933e-01
0.000000e+00
1.000000e+00
8.683677e-01
7.436830e-01
6.194672e-01
4.950534e-01
3.702044e-01
2.452638e-01
1.207177e-01
0.000000e+00
1.000000e+00
8.627855e-01
7.342153e-01
6.027001e-01
4.719302e-01
3.570952e-01
2.388845e-01
1.173875e-01
0.000000e+00
1.000000e+00
8.641010e-01
7.354335e-01
6.039505e-01
4.730528e-01
3.581202e-01
2.399668e-01
1.184515e-01
0.000000e+00
1.000000e+00
8.644597e-01
7.361036e-01
6.051408e-01
4.747268e-01
3.589485e-01
2.403091e-01
1.185669e-01
0.000000e+00
1.000000e+00
8.650884e-01
7.373212e-01
6.074461e-01
4.779504e-01
3.606485e-01
2.410631e-01
1.189045e-01
0.000000e+00
1.000000e+00
8.659158e-01
7.389328e-01
6.104984e-01
4.822432e-01
3.629702e-01
2.420945e-01
1.193597e-01
0.000000e+00
1.000000e+00
8.667788e-01
7.406132e-01
6.136780e-01
4.867577e-01
3.654651e-01
2.431967e-01
1.198416e-01
0.000000e+00
1.000000e+00
8.675110e-01
7.420345e-01
6.163642e-01
4.906076e-01
3.676331e-01
2.441488e-01
1.202525e-01
0.000000e+00
1.000000e+00
8.680051e-01
7.429911e-01
6.181694e-01
4.932093e-01
3.691211e-01
2.447988e-01
1.205301e-01
0.000000e+00
1.000000e+00
8.682332e-01
7.434373e-01
6.190134e-01
4.944137e-01
3.698239e-01
2.451020e-01
1.206546e-01
0.000000e+00
        </DataArray>
        <DataArray type="Float32" Name="velocity" NumberOfComponents="3" format="ascii">
-3.709509e-01 -3.699871e-01 -1.053686e-02
-3.722397e-01 -3.520361e-01 -9.564052e-03
-3.063712e-01 -2.731083e-01 -6.690621e-03
-1.891366e-01 -1.537908e-01 -2.934346e-03
-4.589317e-02 -1.595109e-02 8.325843e-04
9.058021e-02 1.110341e-01 3.840021e-03
1.958573e-01 2.066997e-01 5.846102e-03
2.630461e-01 2.654863e-01 6.975317e-03
2.931889e-01 2.924664e-01 7.526691e-03
5.328689e-01 3.951083e-01 -1.112098e+00
4.764032e-01 4.321266e-01 -1.086216e+00
3.444584e-01 3.883427e-01 -8.719529e-01
1.640052e-01 2.754576e-01 -5.187600e-01
-3.400020e-02 1.209811e-01 -9.711083e-02
-2.104549e-01 -3.625332e-02 2.999284e-01
-3.366538e-01 -1.671653e-01 6.042169e-01
-4.063517e-01 -2.608334e-01 7.962294e-01
-4.264856e-01 -3.165814e-01 8.839685e-01
1.660638e+00 8.662617e-01 -2.159774e+00
1.429748e+00 1.091095e+00 -2.139201e+00
9.824529e-01 1.092960e+00 -1.747496e+00
4.020198e-01 8.897198e-01 -1.073164e+00
-2.177301e-01 5.467714e-01 -2.518997e-01
-7.526394e-01 1.584966e-01 5.309980e-01
-1.117401e+00 -1.978846e-01 1.138476e+00
-1.299190e+00 -4.833629e-01 1.528253e+00
-1.318830e+00 -6.886384e-01 1.711009e+00
2.775462e+00 9.240769e-01 -2.895123e+00
2.301391e+00 1.532877e+00 -2.969670e+00
1.501151e+00 1.786278e+00 -2.521705e+00
5.067648e-01 1.681949e+00 -1.653731e+00
-5.262695e-01 1.299179e+00 -5.484582e-01
-1.395552e+00 7.679050e-01 5.366663e-01
-1.963795e+00 2.082587e-01 1.403291e+00
-2.216181e+00 -3.043044e-01 1.983891e+00
-2.191434e+00 -7.311348e-01 2.280119e+00
3.544508e+00 6.057165e-01 -3.101494e+00
2.850971e+00 1.750312e+00 -3.400805e+00
1.784435e+00 2.423463e+00 -3.084019e+00
4.981216e-01 2.578220e+00 -2.229759e+00
-8.159969e-01 2.293223e+00 -1.038453e+00
-1.900433e+00 1.709624e+00 1.947648e-01
-2.587692e+00 9.782311e-01 1.235417e+00
-2.862546e+00 2.250437e-01 1.981729e+00
-2.771751e+00 -4.772498e-01 2.415232e+00
3.675094e+00 1.205721e-01 -2.719964e+00
2.891940e+00 1.837200e+00 -3.371414e+00
1.760247e+00 2.971890e+00 -3.367342e+00
4.170077e-01 3.446003e+00 -2.744082e+00
-9.377059e-01 3.319742e+00 -1.687003e+00
-2.043842e+00 2.734143e+00 -4.822557e-01
-2.727662e+00 1.864722e+00 6.208840e-01
-2.979709e+00 8.800604e-01 1.496327e+00
-2.838294e+00 -1.005917e-01 2.083960e+00
3.102360e+00 -2.506823e-01 -1.914774e+00
2.388351e+00 1.923273e+00 -2.957617e+00
1.430020e+00 3.422303e+00 -3.372884e+00
3.043797e-01 4.138414e+00 -3.124754e+00
-8.290204e-01 4.130240e+00 -2.360525e+00
-1.744697e+00 3.536583e+00 -1.330468e+00
-2.303853e+00 2.552302e+00 -2.649971e-01
-2.489402e+00 1.383965e+00 6.776933e-01
-2.323325e+00 1.735179e-01 1.407484e+00
1.949172e+00 -3.064269e-01 -9.323688e-01
1.469924e+00 2.113597e+00 -2.340226e+00
8.858566e-01 3.756073e+00 -3.161029e+00
1.798550e-01 4.545924e+00 -3.308075e+00
-5.255586e-01 4.537498e+00 -2.894179e+00
-1.093582e+00 3.879222e+00 -2.103780e+00
-1.438840e+00 2.793688e+00 -1.142992e+00
-1.558273e+00 1.519950e+00 -1.821851e-01
-1.406153e+00 1.986449e-01 6.366470e-01
4.764808e-01 8.253488e-03 -1.172156e-02
3.810352e-01 2.466101e+00 -1.747344e+00
2.328578e-01 4.010114e+00 -2.836579e+00
5.377130e-02 4.680036e+00 -3.307723e+00
-1.281672e-01 4.517254e+00 -3.190462e+00
-2.786153e-01 3.719451e+00 -2.624828e+00
-3.745959e-01 2.537898e+00 -1.788653e+00
-4.153296e-01 1.211003e+00 -8.505061e-01
-4.135841e-01 -7.138950e-03 1.020976e-02
3.518595e-01 4.815241e-01 1.181392e+00
3.674898e-01 4.490263e-01 1.154387e+00
3.154863e-01 3.390795e-01 9.229853e-01
2.117581e-01 1.763928e-01 5.446942e-01
7.935525e-02 -7.544455e-03 9.569960e-02
-5.132790e-02 -1.736748e-01 -3.252004e-01
-1.575913e-01 -2.938864e-01 -6.461195e-01
-2.326405e-01 -3.608892e-01 -8.468829e-01
-2.760166e-01 -3.782075e-01 -9.347533e-01
1.300386e+00 1.327170e+00 7.964785e-02
1.264862e+00 1.298357e+00 7.773019e-02
1.008537e+00 1.039372e+00 5.910693e-02
5.929822e-01 6.131269e-01 3.132216e-02
1.009473e-01 1.059071e-01 6.465956e-04
-3.609368e-01 -3.701253e-01 -2.628667e-02
-7.147890e-01 -7.334152e-01 -4.548308e-02
-9.380693e-01 -9.603777e-01 -5.623209e-02
-1.039424e+00 -1.059820e+00 -5.789318e-02
2.503839e+00 1.868551e+00 -9.578319e-01
2.277814e+00 2.018701e+00 -9.825145e-01
1.678543e+00 1.779910e+00 -8.365742e-01
8.286079e-01 1.236073e+00 -5.519899e-01
-1.182099e-01 5.112542e-01 -1.865442e-01
-9.644069e-01 -2.225430e-01 1.736476e-01
-1.572952e+00 -8.299393e-01 4.611714e-01
-1.914681e+00 -1.259937e+00 6.546469e-01
-2.017015e+00 -1.510378e+00 7.537616e-01
3.685534e+00 1.962905e+00 -1.638124e+00
3.190966e+00 2.500722e+00 -1.805467e+00
2.199231e+00 2.497969e+00 -1.644285e+00
8.956163e-01 2.036667e+00 -1.198339e+00
-4.985810e-01 1.255490e+00 -5.680348e-01
-1.700646e+00 3.595277e-01 8.809473e-02
-2.521441e+00 -4.689504e-01 6.420967e-01
-2.933726e+00 -1.136793e+00 1.041010e+00
-2.993658e+00 -1.617572e+00 1.272068e+00
4.433312e+00 1.646183e+00 -1.726028e+00
3.716521e+00 2.728912e+00 -2.206216e+00
2.434865e+00 3.134166e+00 -2.242174e+00
8.222227e-01 2.930254e+00 -1.868163e+00
-8.581795e-01 2.244020e+00 -1.192292e+00
-2.274108e+00 1.288432e+00 -4.028758e-01
-3.205860e+00 2.811434e-01 3.290862e-01
-3.633585e+00 -6.374943e-01 9.200840e-01
-3.644860e+00 -1.399734e+00 1.326356e+00
4.409732e+00 1.158521e+00 -1.216873e+00
3.636571e+00 2.797357e+00 -2.137128e+00
2.304168e+00 3.651700e+00 -2.558463e+00
6.691768e-01 3.761809e+00 -2.478377e+00
-1.009863e+00 3.238748e+00 -1.980933e+00
-2.405747e+00 2.285657e+00 -1.240534e+00
-3.306109e+00 1.144470e+00 -4.379851e-01
-3.696738e+00 3.100841e-03 3.041661e-01
-3.687626e+00 -1.033731e+00 9.094132e-01
3.556338e+00 8.163102e-01 -3.366661e-01
2.930868e+00 2.851532e+00 -1.723104e+00
1.827413e+00 4.032680e+00 -2.597625e+00
4.861373e-01 4.371442e+00 -2.923992e+00
-8.809112e-01 3.964576e+00 -2.742091e+00
-2.012515e+00 3.014786e+00 -2.180289e+00
-2.733840e+00 1.778635e+00 -1.408579e+00
-3.046012e+00 4.753740e-01 -5.691878e-01
-3.055550e+00 -7.473948e-01 2.232071e-01
2.127827e+00 7.912310e-01 5.507082e-01
1.794455e+00 3.001191e+00 -1.166687e+00
1.114099e+00 4.289589e+00 -2.430146e+00
2.909003e-01 4.676758e+00 -3.134166e+00
-5.432673e-01 4.264341e+00 -3.280265e+00
-1.232998e+00 3.266602e+00 -2.939012e+00
-1.677433e+00 1.963129e+00 -2.254986e+00
-1.871105e+00 5.894873e-01 -1.391072e+00
-1.931177e+00 -7.255479e-01 -5.092253e-01
5.843420e-01 1.213417e+00 1.348616e+00
4.732032e-01 3.265208e+00 -6.723738e-01
2.965491e-01 4.479321e+00 -2.179710e+00
8.024957e-02 4.735601e+00 -3.148969e+00
-1.415346e-01 4.187351e+00 -3.545449e+00
-3.260664e-01 3.089511e+00 -3.396334e+00
-4.450907e-01 1.732412e+00 -2.813034e+00
-4.967481e-01 3.607832e-01 -1.964546e+00
-4.878388e-01 -8.253689e-01 -9.128920e-01
7.742740e-01 1.557088e+00 2.333447e+00
9.766085e-01 1.352736e+00 2.303573e+00
9.789222e-01 9.359604e-01 1.866640e+00
8.004722e-01 3.880806e-01 1.128641e+00
4.990907e-01 -1.970887e-01 2.404010e-01
1.572133e-01 -6.996413e-01 -5.982701e-01
-1.593845e-01 -1.039805e+00 -1.244029e+00
-4.155100e-01 -1.206615e+00 -1.653666e+00
-6.029662e-01 -1.217308e+00 -1.840349e+00
1.745093e+00 2.505017e+00 1.200350e+00
1.911212e+00 2.269758e+00 1.219626e+00
1.709440e+00 1.660286e+00 1.020170e+00
1.214500e+00 8.013682e-01 6.526998e-01
5.424402e-01 -1.486500e-01 1.951010e-01
-1.467581e-01 -9.898046e-01 -2.464239e-01
-7.265864e-01 -1.587166e+00 -5.926441e-01
-1.147166e+00 -1.914680e+00 -8.207180e-01
-1.404669e+00 -2.004334e+00 -9.300786e-01
3.023415e+00 3.157221e+00 1.363901e-01
2.977577e+00 3.057111e+00 1.420800e-01
2.406590e+00 2.420679e+00 1.190966e-01
1.445230e+00 1.394004e+00 7.638676e-02
2.855617e-01 1.801039e-01 2.492419e-02
-8.156692e-01 -9.533313e-01 -2.339897e-02
-1.666904e+00 -1.811317e+00 -6.120347e-02
-2.213652e+00 -2.343651e+00 -8.560843e-02
-2.467206e+00 -2.569599e+00 -9.642008e-02
4.306405e+00 3.342495e+00 -5.322444e-01
3.932607e+00 3.589775e+00 -6.915038e-01
2.920931e+00 3.145322e+00 -7.133358e-01
1.458934e+00 2.156717e+00 -6.025204e-01
-1.888934e-01 8.453787e-01 -3.928610e-01
-1.672118e+00 -4.782834e-01 -1.446105e-01
-2.746066e+00 -1.570467e+00 8.919297e-02
-3.357855e+00 -2.338564e+00 2.768449e-01
-3.548484e+00 -2.773834e+00 4.045412e-01
5.107101e+00 3.070985e+00 -5.624568e-01
4.445187e+00 3.834187e+00 -1.087826e+00
3.098364e+00 3.764631e+00 -1.348282e+00
1.293343e+00 3.002389e+00 -1.340909e+00
-6.609846e-01 1.761824e+00 -1.105549e+00
-2.365005e+00 3.641065e-01 -7.319957e-01
-3.541358e+00 -9.082966e-01 -3.135956e-01
-4.153213e+00 -1.919646e+00 7.850858e-02
-4.266828e+00 -2.615812e+00 3.974787e-01
5.025133e+00 2.592575e+00 1.478335e-02
4.263587e+00 3.878881e+00 -1.017980e+00
2.854025e+00 4.231816e+00 -1.712093e+00
1.032207e+00 3.769241e+00 -2.032150e+00
-8.991760e-01 2.686775e+00 -1.997463e+00
-2.551863e+00 1.296888e+00 -1.679058e+00
-3.666703e+00 -9.721559e-02 -1.181179e+00
-4.214706e+00 -1.312790e+00 -6.165117e-01
-4.276323e+00 -2.257003e+00 -7.580302e-02
4.009801e+00 2.223778e+00 8.779387e-01
3.388994e+00 3.876292e+00 -6.443056e-01
2.225175e+00 4.535522e+00 -1.806969e+00
7.391483e-01 4.300721e+00 -2.543242e+00
-8.158658e-01 3.349780e+00 -2.822729e+00
-2.137632e+00 1.986115e+00 -2.674052e+00
-3.016890e+00 5.231382e-01 -2.188903e+00
-3.451252e+00 -8.334101e-01 -1.509724e+00
-3.508600e+00 -1.948690e+00 -7.713557e-01
2.422500e+00 2.176264e+00 1.662856e+00
2.061623e+00 3.944031e+00 -1.741551e-01
1.337554e+00 4.701951e+00 -1.708856e+00
4.289324e-01 4.536151e+00 -2.794879e+00
-5.108719e-01 3.614928e+00 -3.367572e+00
-1.304951e+00 2.244963e+00 -3.406110e+00
-1.834028e+00 7.535772e-01 -2.981932e+00
-2.089229e+00 -6.465468e-01 -2.252598e+00
-2.143037e+00 -1.845498e+00 -1.392402e+00
6.739796e-01 2.541583e+00 2.248383e+00
5.594912e-01 4.113013e+00 1.898253e-01
3.632976e-01 4.790173e+00 -1.532729e+00
1.183362e-01 4.517456e+00 -2.798166e+00
-1.369610e-01 3.495882e+00 -3.543165e+00
-3.524328e-01 2.070680e+00 -3.717641e+00
-4.943510e-01 5.657560e-01 -3.371440e+00
-5.586224e-01 -7.900447e-01 -2.642521e+00
-5.552756e-01 -1.863611e+00 -1.645622e+00
7.714862e-01 2.618779e+00 3.189780e+00
1.364217e+00 2.173361e+00 3.239397e+00
1.633921e+00 1.412759e+00 2.709703e+00
1.575578e+00 4.665022e-01 1.731276e+00
1.258397e+00 -5.093777e-01 5.138294e-01
7.949773e-01 -1.321078e+00 -6.616089e-01
2.912600e-01 -1.843741e+00 -1.587611e+00
-1.839437e-01 -2.068794e+00 -2.199270e+00
-5.909199e-01 -2.029775e+00 -2.502097e+00
1.724950e+00 3.638629e+00 1.958231e+00
2.312527e+00 3.125703e+00 2.117501e+00
2.389833e+00 2.125340e+00 1.886866e+00
2.023184e+00 8.244118e-01 1.331910e+00
1.338255e+00 -5.502186e-01 5.807624e-01
5.212991e-01 -1.717823e+00 -1.807912e-01
-2.600888e-01 -2.501135e+00 -8.112546e-01
-9.139903e-01 -2.882071e+00 -1.256449e+00
-1.410444e+00 -2.921608e+00 -1.504205e+00
3.054690e+00 4.398966e+00 8.023287e-01
3.414947e+00 3.949384e+00 9.975820e-01
3.100558e+00 2.864322e+00 9.918755e-01
2.241586e+00 1.342450e+00 8.056114e-01
1.043215e+00 -3.391599e-01 4.947583e-01
-2.041779e-01 -1.823687e+00 1.444156e-01
-1.268285e+00 -2.873429e+00 -1.757364e-01
-2.051752e+00 -3.448073e+00 -4.269389e-01
-2.533437e+00 -3.597045e+00 -5.914855e-01
4.445898e+00 4.698092e+00 7.918640e-02
4.410745e+00 4.515168e+00 1.283876e-01
3.595227e+00 3.553096e+00 1.464872e-01
2.182429e+00 2.010896e+00 1.373362e-01
4.561345e-01 1.888871e-01 1.079800e-01
-1.195383e+00 -1.508782e+00 6.731712e-02
-2.483343e+00 -2.791354e+00 2.359538e-02
-3.316888e+00 -3.580771e+00 -1.673778e-02
-3.708422e+00 -3.904464e+00 -4.878808e-02
5.357325e+00 4.514400e+00 4.961162e-02
4.934282e+00 4.767496e+00 -2.897048e-01
3.705990e+00 4.118384e+00 -5.201045e-01
1.894368e+00 2.754527e+00 -6.341196e-01
-1.737869e-01 9.718841e-01 -6.348197e-01
-2.054107e+00 -8.099474e-01 -5.438991e-01
-3.431062e+00 -2.263269e+00 -3.966061e-01
-4.231291e+00 -3.264552e+00 -2.248361e-01
-4.500509e+00 -3.807316e+00 -5.721283e-02
5.315788e+00 4.060132e+00 6.401799e-01
4.705003e+00 4.781517e+00 -2.444051e-01
3.351339e+00 4.514035e+00 -9.313908e-01
1.487229e+00 3.425239e+00 -1.385221e+00
-5.651618e-01 1.793697e+00 -1.588797e+00
-2.379249e+00 2.707869e-02 -1.546842e+00
-3.660586e+00 -1.526063e+00 -1.308628e+00
-4.355491e+00 -2.702958e+00 -9.510890e-01
-4.529114e+00 -3.459911e+00 -5.460218e-01
4.269391e+00 3.656946e+00 1.474880e+00
3.726365e+00 4.707347e+00 7.909771e-02
2.578467e+00 4.733140e+00 -1.087528e+00
1.046444e+00 3.879412e+00 -1.954922e+00
-6.074980e-01 2.401260e+00 -2.461110e+00
-2.048718e+00 6.905227e-01 -2.570441e+00
-3.046947e+00 -9.018636e-01 -2.325460e+00
-3.573929e+00 -2.187545e+00 -1.834425e+00
-3.694893e+00 -3.090398e+00 -1.214806e+00
2.578619e+00 3.505241e+00 2.153288e+00
2.261527e+00 4.669399e+00 4.549618e-01
1.540061e+00 4.807780e+00 -1.057716e+00
5.983006e-01 4.058357e+00 -2.241699e+00
-4.000938e-01 2.657710e+00 -3.001909e+00
-1.262957e+00 9.872484e-01 -3.262016e+00
-1.857469e+00 -5.990995e-01 -3.051610e+00
-2.165476e+00 -1.908499e+00 -2.495888e+00
-2.256784e+00 -2.882255e+00 -1.744682e+00
7.341992e-01 3.674336e+00 2.515194e+00
6.297315e-01 4.701307e+00 6.899492e-01
4.284659e-01 4.795320e+00 -9.480502e-01
1.672206e-01 3.998657e+00 -2.247949e+00
-1.108375e-01 2.565680e+00 -3.112487e+00
-3.501908e-01 8.930972e-01 -3.461202e+00
-5.125951e-01 -6.682380e-01 -3.300967e+00
-5.924365e-01 -1.932874e+00 -2.749662e+00
-6.001216e-01 -2.808822e+00 -1.920814e+00
3.774744e-01 3.332050e+00 3.528650e+00
1.525075e+00 2.672523e+00 3.781581e+00
2.241153e+00 1.657106e+00 3.339704e+00
2.470156e+00 4.367242e-01 2.321436e+00
2.277063e+00 -7.955098e-01 9.667604e-01
1.782772e+00 -1.794397e+00 -3.937653e-01
1.120374e+00 -2.415250e+00 -1.516151e+00
4.110339e-01 -2.651767e+00 -2.302404e+00
-2.722555e-01 -2.542748e+00 -2.741582e+00
1.286877e+00 4.309059e+00 2.119214e+00
2.463618e+00 3.578940e+00 2.585686e+00
2.998624e+00 2.304741e+00 2.535597e+00
2.937334e+00 7.201424e-01 2.025673e+00
2.389517e+00 -9.054321e-01 1.199784e+00
1.544318e+00 -2.248476e+00 2.812912e-01
6.010758e-01 -3.113536e+00 -5.427866e-01
-3.011712e-01 -3.496283e+00 -1.189673e+00
-1.087618e+00 -3.487468e+00 -1.616140e+00
2.634399e+00 5.090298e+00 8.113102e-01
3.574243e+00 4.361057e+00 1.397228e+00
3.699598e+00 2.963881e+00 1.651521e+00
3.127471e+00 1.134355e+00 1.582368e+00
2.053110e+00 -8.064954e-01 1.251494e+00
7.713547e-01 -2.461572e+00 7.746412e-01
-4.531380e-01 -3.576019e+00 2.628889e-01
-1.480884e+00 -4.131996e+00 -2.026686e-01
-2.240527e+00 -4.203403e+00 -5.700239e-01
4.116580e+00 5.461762e+00 -2.384784e-02
4.589396e+00 4.904246e+00 4.756588e-01
4.154592e+00 3.561961e+00 8.077473e-01
2.981160e+00 1.668636e+00 9.641045e-01
1.348585e+00 -4.348691e-01 9.535540e-01
-3.457610e-01 -2.299844e+00 8.079363e-01
-1.785364e+00 -3.625600e+00 5.777304e-01
-2.835227e+00 -4.358812e+00 3.121578e-01
-3.469006e+00 -4.559140e+00 5.602804e-02
5.155200e+00 5.366176e+00 -1.030794e-01
5.131143e+00 5.142732e+00 2.377727e-02
4.194087e+00 4.035481e+00 1.262763e-01
2.555171e+00 2.267102e+00 1.983462e-01
5.435937e-01 1.775114e-01 2.355050e-01
-1.386432e+00 -1.770301e+00 2.350793e-01
-2.892674e+00 -3.238991e+00 2.020121e-01
-3.871977e+00 -4.142968e+00 1.481066e-01
-4.333151e+00 -4.511124e+00 8.617349e-02
5.240285e+00 4.975114e+00 4.761763e-01
4.898805e+00 5.130984e+00 4.263726e-02
3.739625e+00 4.342298e+00 -3.172383e-01
1.982896e+00 2.811494e+00 -5.838553e-01
-4.619215e-02 8.574012e-01 -7.417189e-01
-1.908178e+00 -1.065939e+00 -7.805385e-01
-3.289955e+00 -2.606977e+00 -7.124506e-01
-4.111595e+00 -3.643352e+00 -5.714622e-01
-4.414399e+00 -4.174700e+00 -3.903387e-01
4.267484e+00 4.552950e+00 1.294126e+00
3.885435e+00 5.001192e+00 3.270481e-01
2.851808e+00 4.482650e+00 -5.221566e-01
1.375611e+00 3.181014e+00 -1.201004e+00
-2.749502e-01 1.390610e+00 -1.650774e+00
-1.756554e+00 -4.569849e-01 -1.825450e+00
-2.822803e+00 -2.009008e+00 -1.734311e+00
-3.432194e+00 -3.124737e+00 -1.445830e+00
-3.629977e+00 -3.774682e+00 -1.041562e+00
2.610141e+00 4.290880e+00 1.916613e+00
2.363406e+00 4.867872e+00 6.339803e-01
1.697824e+00 4.486676e+00 -5.537548e-01
7.790642e-01 3.322233e+00 -1.534772e+00
-2.266002e-01 1.648086e+00 -2.216183e+00
-1.117524e+00 -1.238267e-01 -2.518001e+00
-1.752917e+00 -1.646099e+00 -2.442964e+00
-2.104885e+00 -2.773458e+00 -2.078683e+00
-2.226162e+00 -3.480544e+00 -1.534893e+00
7.624487e-01 4.260696e+00 2.170720e+00
6.785977e-01 4.773570e+00 7.886825e-01
4.853925e-01 4.408037e+00 -5.106856e-01
2.216358e-01 3.266384e+00 -1.581159e+00
-6.710063e-02 1.626656e+00 -2.339377e+00
-3.214455e-01 -9.862567e-02 -2.700719e+00
-5.001571e-01 -1.577441e+00 -2.655296e+00
-5.954452e-01 -2.659310e+00 -2.287224e+00
-6.170404e-01 -3.311495e+00 -1.685924e+00
-1.929787e-01 3.406774e+00 3.276651e+00
1.560827e+00 2.666427e+00 3.858140e+00
2.776831e+00 1.602190e+00 3.687253e+00
3.358521e+00 3.461421e-01 2.847121e+00
3.349600e+00 -9.013018e-01 1.574073e+00
2.869590e+00 -1.898388e+00 2.012011e-01
2.078538e+00 -2.499016e+00 -1.006148e+00
1.138736e+00 -2.707096e+00 -1.930532e+00
1.727703e-01 -2.548884e+00 -2.521296e+00
6.928263e-01 4.184959e+00 1.672106e+00
2.476030e+00 3.418231e+00 2.572738e+00
3.510034e+00 2.125010e+00 2.893712e+00
3.805568e+00 5.571752e-01 2.653456e+00
3.452370e+00 -1.023884e+00 1.976697e+00
2.629310e+00 -2.308544e+00 1.081584e+00
1.561351e+00 -3.118761e+00 1.703022e-01
4.365779e-01 -3.457227e+00 -6.335200e-01
-6.326333e-01 -3.435139e+00 -1.257163e+00
2.049154e+00 4.844371e+00 2.113498e-01
3.568331e+00 4.052475e+00 1.321788e+00
4.167950e+00 2.645521e+00 2.026308e+00
3.938341e+00 8.618216e-01 2.295180e+00
3.055333e+00 -9.891702e-01 2.166928e+00
1.804050e+00 -2.535154e+00 1.740737e+00
4.680636e-01 -3.553842e+00 1.143507e+00
-7.644738e-01 -4.037734e+00 4.997082e-01
-1.783482e+00 -4.068880e+00 -9.409802e-02
3.575385e+00 5.184485e+00 -7.185333e-01
4.568277e+00 4.496153e+00 3.649749e-01
4.559383e+00 3.105334e+00 1.199092e+00
3.696459e+00 1.248354e+00 1.738426e+00
2.244652e+00 -7.467464e-01 1.963528e+00
5.886595e-01 -2.466745e+00 1.885183e+00
-9.393917e-01 -3.649801e+00 1.569604e+00
-2.167145e+00 -4.265806e+00 1.114986e+00
-3.028894e+00 -4.388086e+00 6.108570e-01
4.709489e+00 5.154628e+00 -8.431361e-01
5.107189e+00 4.688100e+00 -1.028235e-01
4.520812e+00 3.455982e+00 5.261978e-01
3.142809e+00 1.680403e+00 1.002681e+00
1.288043e+00 -3.133029e-01 1.291273e+00
-5.979818e-01 -2.097816e+00 1.366410e+00
-2.166696e+00 -3.385092e+00 1.247795e+00
-3.281257e+00 -4.116286e+00 9.967325e-01
-3.920174e+00 -4.346279e+00 6.745213e-01
4.921027e+00 4.855789e+00 -2.737845e-01
4.886900e+00 4.664005e+00 -9.331087e-02
3.986122e+00 3.670090e+00 7.546753e-02
2.422884e+00 2.076806e+00 2.172177e-01
5.139376e-01 1.926205e-01 3.165693e-01
-1.309744e+00 -1.565197e+00 3.592503e-01
-2.729594e+00 -2.895580e+00 3.454548e-01
-3.646352e+00 -3.716787e+00 2.900601e-01
-4.073767e+00 -4.057226e+00 2.097865e-01
4.090207e+00 4.486800e+00 5.499721e-01
3.891567e+00 4.521831e+00 1.769321e-01
3.020702e+00 3.748712e+00 -1.569813e-01
1.667382e+00 2.350427e+00 -4.315599e-01
9.094809e-02 6.119496e-01 -6.224483e-01
-1.366036e+00 -1.069231e+00 -7.081593e-01
-2.457330e+00 -2.394126e+00 -6.897853e-01
-3.121851e+00 -3.263253e+00 -5.910888e-01
-3.388659e+00 -3.684644e+00 -4.420780e-01
2.542268e+00 4.196148e+00 1.185574e+00
2.382199e+00 4.354620e+00 4.580581e-01
1.800023e+00 3.718322e+00 -2.324585e-01
9.400955e-01 2.460106e+00 -8.171130e-01
-3.438587e-02 8.441793e-01 -1.238799e+00
-9.204289e-01 -7.535527e-01 -1.444246e+00
-1.572611e+00 -2.040753e+00 -1.430355e+00
-1.957241e+00 -2.913516e+00 -1.244042e+00
-2.107513e+00 -3.377000e+00 -9.434114e-01
7.645936e-01 4.042821e+00 1.435223e+00
7.063109e-01 4.205213e+00 5.877126e-01
5.295124e-01 3.620280e+00 -2.336509e-01
2.728510e-01 2.427002e+00 -9.258635e-01
-1.661843e-02 8.817763e-01 -1.429735e+00
-2.778105e-01 -6.515540e-01 -1.688873e+00
-4.676149e-01 -1.890067e+00 -1.690871e+00
-5.762072e-01 -2.733263e+00 -1.483855e+00
-6.121714e-01 -3.178967e+00 -1.128012e+00
-6.455812e-01 2.778277e+00 2.574375e+00
1.615545e+00 2.119146e+00 3.533887e+00
3.244141e+00 1.249013e+00 3.754131e+00
4.104708e+00 2.367305e-01 3.250965e+00
4.234633e+00 -7.639564e-01 2.227005e+00
3.752632e+00 -1.553584e+00 9.877833e-01
2.844769e+00 -2.027473e+00 -2.124651e-01
1.717919e+00 -2.170388e+00 -1.214994e+00
5.117209e-01 -1.988407e+00 -1.944600e+00
2.830694e-01 3.221277e+00 8.294953e-01
2.517664e+00 2.630293e+00 2.198329e+00
3.923936e+00 1.607371e+00 2.969285e+00