<?xml version="1.0"?>
<VTKFile type="StructuredGrid" version="0.1">
  <StructuredGrid WholeExtent="0 8 0 8 0 8">
    <Piece Extent="0 8 0 8 0 8">
      <PointData Scalars="temperature" Vectors="velocity">
        <DataArray type="Float32" Name="temperature" format="ascii">
1.000000e+00
8.627655e-01
7.341756e-01
6.026240e-01
4.718261e-01
3.570409e-01
2.388606e-01
1.173773e-01
0.000000e+00
1.000000e+00
8.642590e-01
7.357441e-01
6.045478e-01
4.739332e-01
3.585484e-01
2.401536e-01
1.185311e-01
0.000000e+00
1.000000e+00
8.647876e-01
7.367500e-01
6.063785e-01
4.764810e-01
3.598576e-01
2.407079e-01
1.187390e-01
0.000000e+00
1.000000e+00
8.655333e-01
7.381980e-01
6.091209e-01
4.803239e-01
3.619123e-01
2.416183e-01
1.191442e-01
0.000000e+00
1.000000e+00
8.664020e-01
7.398872e-01
6.123166e-01
4.848406e-01
3.643855e-01
2.427144e-01
1.196261e-01
0.000000e+00
1.000000e+00
8.672234e-01
7.414806e-01
6.153262e-01
4.891362e-01
3.667875e-01
2.437733e-01
1.200874e-01
0.000000e+00
1.000000e+00
8.678460e-01
7.426840e-01
6.175946e-01
4.923964e-01
3.686437e-01
2.445873e-01
1.204375e-01
0.000000e+00
1.000000e+00
8.681937e-01
7.433525e-01
6.188490e-01
4.941940e-01
3.696855e-01
2.450416e-01
1.206301e-01
0.000000e+00
1.000000e+00
8.682640e-01
7.434908e-01
6.191092e-01
4.945524e-01
3.699008e-01
2.451325e-01
1.206644e-01
0.000000e+00
1.000000e+00
8.641419e-01
7.355131e-01
6.041036e-01
4.732829e-01
3.582290e-01
2.400140e-01
1.184713e-01
0.000000e+00
1.000000e+00
8.642716e-01
7.357608e-01
6.045213e-01
4.737222e-01
3.585304e-01
2.401502e-01
1.185273e-01
0.000000e+00
1.000000e+00
8.647786e-01
7.366791e-01
6.061726e-01
4.759475e-01
3.597207e-01
2.406821e-01
1.187587e-01
0.000000e+00
1.000000e+00
8.655008e-01
7.381066e-01
6.088998e-01
4.797675e-01
3.617621e-01
2.415770e-01
1.191437e-01
0.000000e+00
1.000000e+00
8.664034e-01
7.398776e-01
6.122713e-01
4.845850e-01
3.643650e-01
2.427202e-01
1.196378e-01
0.000000e+00
1.000000e+00
8.672885e-01
7.416016e-01
6.155439e-01
4.893374e-01
3.669744e-01
2.438611e-01
1.201269e-01
0.000000e+00
1.000000e+00
8.679714e-01
7.429241e-01
6.180470e-01
4.930083e-01
3.690267e-01
2.447542e-01
1.205063e-01
0.000000e+00
1.000000e+00
8.683559e-01
7.436646e-01
6.194422e-01
4.950517e-01
3.701911e-01
2.452593e-01
1.207186e-01
0.000000e+00
1.000000e+00
8.684462e-01
7.438367e-01
6.197615e-01
4.954898e-01
3.704581e-01
2.453748e-01
1.207652e-01
0.000000e+00
1.000000e+00
8.645599e-01
7.363006e-01
6.055178e-01
4.752616e-01
3.592239e-01
2.404297e-01
1.186188e-01
0.000000e+00
1.000000e+00
8.646576e-01
7.364387e-01
6.057101e-01
4.752992e-01
3.593779e-01
2.405306e-01
1.186924e-01
0.000000e+00
1.000000e+00
8.650068e-01
7.371541e-01
6.070950e-01
4.772286e-01
3.604134e-01
2.409899e-01
1.188910e-01
0.000000e+00
1.000000e+00
8.657256e-01
7.385764e-01
6.098246e-01
4.810765e-01
3.624885e-01
2.419027e-01
1.192833e-01
0.000000e+00
1.000000e+00
8.666783e-01
7.404380e-01
6.133676e-01
4.861721e-01
3.652537e-01
2.431117e-01
1.198029e-01
0.000000e+00
1.000000e+00
8.676371e-01
7.422924e-01
6.168787e-01
4.913066e-01
3.680860e-01
2.443437e-01
1.203285e-01
0.000000e+00
1.000000e+00
8.683789e-01
7.437177e-01
6.195683e-01
4.952798e-01
3.703232e-01
2.453135e-01
1.207387e-01
0.000000e+00
1.000000e+00
8.687858e-01
7.444971e-01
6.210336e-01
4.974456e-01
3.715669e-01
2.458534e-01
1.209659e-01
0.000000e+00
1.000000e+00
8.688692e-01
7.446600e-01
6.213350e-01
4.978235e-01
3.718231e-01
2.459638e-01
1.210090e-01
0.000000e+00
1.000000e+00
8.652316e-01
7.376031e-01
6.079846e-01
4.787126e-01
3.610525e-01
2.412406e-01
1.189810e-01
0.000000e+00
1.000000e+00
8.652787e-01
7.376682e-01
6.080602e-01
4.785736e-01
3.611254e-01
2.412965e-01
1.190219e-01
0.000000e+00
1.000000e+00
8.656063e-01
7.383425e-01
6.093782e-01
4.804373e-01
3.621468e-01
2.417529e-01
1.192187e-01
0.000000e+00
1.000000e+00
8.663276e-01
7.397703e-01
6.121273e-01
4.843694e-01
3.642954e-01
2.426958e-01
1.196222e-01
0.000000e+00
1.000000e+00
8.673150e-01
7.416881e-01
6.157710e-01
4.896870e-01
3.672106e-01
2.439635e-01
1.201630e-01
0.000000e+00
1.000000e+00
8.683155e-01
7.436090e-01
6.193951e-01
4.950670e-01
3.702087e-01
2.452603e-01
1.207126e-01
0.000000e+00
1.000000e+00
8.690791e-01
7.450661e-01
6.221363e-01
4.991758e-01
3.725524e-01
2.462732e-01
1.211386e-01
0.000000e+00
1.000000e+00
8.694742e-01
7.458215e-01
6.235551e-01
5.013061e-01
3.737926e-01
2.468134e-01
1.213665e-01
0.000000e+00
1.000000e+00
8.695237e-01
7.459298e-01
6.237575e-01
5.014790e-01
3.739682e-01
2.468878e-01
1.213914e-01
0.000000e+00
1.000000e+00
8.660777e-01
7.392506e-01
6.111039e-01
4.831066e-01
3.634389e-01
2.422999e-01
1.194479e-01
0.000000e+00
1.000000e+00
8.661205e-01
7.393239e-01
6.112148e-01
4.830608e-01
3.635388e-01
2.423585e-01
1.194823e-01
0.000000e+00
1.000000e+00
8.664635e-01
7.400208e-01
6.125745e-01
4.850188e-01
3.646267e-01
2.428389e-01
1.196865e-01
0.000000e+00
1.000000e+00
8.671984e-01
7.414638e-01
6.153465e-01
4.890601e-01
3.668666e-01
2.438149e-01
1.201001e-01
0.000000e+00
1.000000e+00
8.681965e-01
7.433887e-01
6.189961e-01
4.944881e-01
3.698886e-01
2.451210e-01
1.206522e-01
0.000000e+00
1.000000e+00
8.691998e-01
7.453018e-01
6.225962e-01
4.999333e-01
3.729733e-01
2.464486e-01
1.212097e-01
0.000000e+00
1.000000e+00
8.699498e-01
7.467252e-01
6.252711e-01
5.040146e-01
3.753459e-01
2.474715e-01
1.216364e-01
0.000000e+00
1.000000e+00
8.703109e-01
7.474173e-01
6.265748e-01
5.060090e-01
3.765309e-01
2.479901e-01
1.218552e-01
0.000000e+00
1.000000e+00
8.703134e-01
7.474522e-01
6.266492e-01
5.059287e-01
3.765961e-01
2.480132e-01
1.218537e-01
0.000000e+00
1.000000e+00
8.669321e-01
7.409122e-01
6.142464e-01
4.875768e-01
3.659190e-01
2.433947e-01
1.199260e-01
0.000000e+00
1.000000e+00
8.669959e-01
7.410333e-01
6.144638e-01
4.877595e-01
3.661025e-01
2.434817e-01
1.199657e-01
0.000000e+00
1.000000e+00
8.673678e-01
7.417737e-01
6.158961e-01
4.898565e-01
3.672816e-01
2.439956e-01
1.201815e-01
0.000000e+00
1.000000e+00
8.681060e-01
7.432089e-01
6.186404e-01
4.939334e-01
3.695741e-01
2.449875e-01
1.205982e-01
0.000000e+00
1.000000e+00
8.690847e-01
7.450838e-01
6.221865e-01
4.993049e-01
3.726162e-01
2.462959e-01
1.211462e-01
0.000000e+00
1.000000e+00
8.700580e-01
7.469295e-01
6.256536e-01
5.046448e-01
3.756943e-01
2.476149e-01
1.216950e-01
0.000000e+00
1.000000e+00
8.707776e-01
7.482902e-01
6.282099e-01
5.086163e-01
3.780442e-01
2.486242e-01
1.221118e-01
0.000000e+00
1.000000e+00
8.711111e-01
7.489317e-01
6.294242e-01
5.105114e-01
3.791896e-01
2.491253e-01
1.223226e-01
0.000000e+00
1.000000e+00
8.710805e-01
7.489212e-01
6.294309e-01
5.103033e-01
3.791921e-01
2.491139e-01
1.222987e-01
0.000000e+00
1.000000e+00
8.676327e-01
7.422702e-01
6.168107e-01
4.912566e-01
3.679987e-01
2.443073e-01
1.203193e-01
0.000000e+00
1.000000e+00
8.677157e-01
7.424307e-01
6.171119e-01
4.916314e-01
3.682515e-01
2.444184e-01
1.203653e-01
0.000000e+00
1.000000e+00
8.681003e-01
7.431836e-01
6.185578e-01
4.937719e-01
3.694707e-01
2.449456e-01
1.205848e-01
0.000000e+00
1.000000e+00
8.688131e-01
7.445599e-01
6.211817e-01
4.977236e-01
3.717240e-01
2.459173e-01
1.209904e-01
0.000000e+00
1.000000e+00
8.697397e-01
7.463287e-01
6.245262e-01
5.028567e-01
3.746763e-01
2.471851e-01
1.215178e-01
0.000000e+00
1.000000e+00
8.706619e-01
7.480732e-01
6.278038e-01
5.079727e-01
3.776663e-01
2.484631e-01
1.220456e-01
0.000000e+00
1.000000e+00
8.713545e-01
7.493788e-01
6.302588e-01
5.118443e-01
3.799774e-01
2.494478e-01
1.224472e-01
0.000000e+00
1.000000e+00
8.716984e-01
7.500309e-01
6.314871e-01
5.137931e-01
3.811568e-01
2.499554e-01
1.226585e-01
0.000000e+00
1.000000e+00
8.716673e-01
7.500426e-01
6.315527e-01
5.137193e-01
3.812099e-01
2.499524e-01
1.226276e-01
0.000000e+00
1.000000e+00
8.680826e-01
7.431385e-01
6.184460e-01
4.936112e-01
3.693503e-01
2.448970e-01
1.205701e-01
0.000000e+00
1.000000e+00
8.681674e-01
7.433026e-01
6.187573e-01
4.940427e-01
3.696130e-01
2.450096e-01
1.206150e-01
0.000000e+00
1.000000e+00
8.685335e-01
7.440135e-01
6.201172e-01
4.960689e-01
3.707777e-01
2.455126e-01
1.208240e-01
0.000000e+00
1.000000e+00
8.691881e-01
7.452764e-01
6.225242e-01
4.997255e-01
3.728800e-01
2.464204e-01
1.212031e-01
0.000000e+00
1.000000e+00
8.700365e-01
7.468981e-01
6.255966e-01
5.044778e-01
3.756363e-01
2.476063e-01
1.216963e-01
0.000000e+00
1.000000e+00
8.708967e-01
7.485290e-01
6.286691e-01
5.093083e-01
3.784769e-01
2.488208e-01
1.221973e-01
0.000000e+00
1.000000e+00
8.715819e-01
7.498133e-01
6.310801e-01
5.131381e-01
3.807633e-01
2.497880e-01
1.225899e-01
0.000000e+00
1.000000e+00
8.718936e-01
7.504549e-01
6.323643e-01
5.152321e-01
3.819960e-01
2.502713e-01
1.227731e-01
0.000000e+00
1.000000e+00
8.719844e-01
7.506121e-01
6.326661e-01
5.156061e-01
3.822669e-01
2.503523e-01
1.227934e-01
0.000000e+00
1.000000e+00
8.682630e-01
7.434889e-01
6.191058e-01
4.945475e-01
3.698981e-01
2.451313e-01
1.206639e-01
0.000000e+00
1.000000e+00
8.683383e-01
7.436288e-01
6.193666e-01
4.949093e-01
3.701197e-01
2.452284e-01
1.207046e-01
0.000000e+00
1.000000e+00
8.686623e-01
7.442614e-01
6.205764e-01
4.966862e-01
3.711622e-01
2.456774e-01
1.208895e-01
0.000000e+00
1.000000e+00
8.692417e-01
7.453900e-01
6.227337e-01
4.999187e-01
3.730560e-01
2.464937e-01
1.212273e-01
0.000000e+00
1.000000e+00
8.700001e-01
7.468580e-01
6.255289e-01
5.041876e-01
3.755703e-01
2.475725e-01
1.216715e-01
0.000000e+00
1.000000e+00
8.707896e-01
7.483753e-01
6.284082e-01
5.086798e-01
3.782305e-01
2.487037e-01
1.221308e-01
0.000000e+00
1.000000e+00
8.714478e-01
7.496353e-01
6.307941e-01
5.124873e-01
3.804828e-01
2.496452e-01
1.225033e-01
0.000000e+00
1.000000e+00
8.718713e-01
7.504040e-01
6.322795e-01
5.149482e-01
3.818945e-01
2.501968e-01
1.227314e-01
0.000000e+00
1.000000e+00
8.708132e-01
7.495576e-01
6.317132e-01
5.146646e-01
3.810830e-01
2.491579e-01
1.216275e-01
0.000000e+00
        </DataArray>
        <DataArray type="Float32" Name="velocity" NumberOfComponents="3" format="ascii">
4.8075e-01 -8.5223e-03 -1.1551e-02
3.7875e-01 -2.6261e+00 -1.8600e+00
2.2436e-01 -4.2546e+00 -3.0088e+00
4.0236e-02 -4.9522e+00 -3.4995e+00
-1.4290e-01 -4.7838e+00 -3.3782e+00
-2.8988e-01 -3.9603e+00 -2.7945e+00
-3.8065e-01 -2.7357e+00 -1.9280e+00
-4.1610e-01 -1.3264e+00 -9.3169e-01
-4.0955e-01 6.8997e-03 1.0350e-02
2.0244e+00 3.2292e-01 -9.7584e-01
1.5237e+00 -2.1980e+00 -2.4416e+00
9.0615e-01 -3.9039e+00 -3.2851e+00
1.7005e-01 -4.7141e+00 -3.4264e+00
-5.5298e-01 -4.6937e+00 -2.9910e+00
-1.1262e+00 -4.0070e+00 -2.1739e+00
-1.4765e+00 -2.8857e+00 -1.1801e+00
-1.6094e+00 -1.5743e+00 -1.7945e-01
-1.4453e+00 -2.0933e-01 6.6265e-01
3.1951e+00 2.6087e-01 -1.9770e+00
2.4663e+00 -1.9523e+00 -3.0377e+00
1.4693e+00 -3.4740e+00 -3.4414e+00
3.0017e-01 -4.1938e+00 -3.1644e+00
-8.6082e-01 -4.1742e+00 -2.3711e+00
-1.7830e+00 -3.5640e+00 -1.3224e+00
-2.3431e+00 -2.5684e+00 -2.4567e-01
-2.5260e+00 -1.3954e+00 6.9978e-01
-2.3468e+00 -1.7727e-01 1.4254e+00
3.7577e+00 -1.2224e-01 -2.7834e+00
2.9665e+00 -1.8476e+00 -3.4356e+00
1.8010e+00 -2.9836e+00 -3.4075e+00
4.1554e-01 -3.4534e+00 -2.7500e+00
-9.6700e-01 -3.3217e+00 -1.6679e+00
-2.0781e+00 -2.7333e+00 -4.5637e-01
-2.7553e+00 -1.8648e+00 6.4231e-01
-3.0010e+00 -8.8140e-01 1.5129e+00
-2.8493e+00 1.0032e-01 2.0935e+00
3.6062e+00 -6.1631e-01 -3.1554e+00
2.9141e+00 -1.7522e+00 -3.4498e+00
1.8243e+00 -2.4143e+00 -3.1080e+00
5.0522e-01 -2.5618e+00 -2.2242e+00
-8.3254e-01 -2.2755e+00 -1.0142e+00
-1.9226e+00 -1.6962e+00 2.2057e-01
-2.6065e+00 -9.7055e-01 1.2551e+00
-2.8762e+00 -2.2272e-01 1.9940e+00
-2.7760e+00 4.7792e-01 2.4190e+00
2.8156e+00 -9.3808e-01 -2.9345e+00
2.3514e+00 -1.5290e+00 -3.0041e+00
1.5408e+00 -1.7658e+00 -2.5370e+00
5.2536e-01 -1.6529e+00 -1.6476e+00
-5.2617e-01 -1.2708e+00 -5.2907e-01
-1.4045e+00 -7.4640e-01 5.5806e-01
-1.9746e+00 -1.9549e-01 1.4200e+00
-2.2258e+00 3.1006e-01 1.9949e+00
-2.1954e+00 7.3263e-01 2.2836e+00
1.6822e+00 -8.7829e-01 -2.1829e+00
1.4680e+00 -1.0822e+00 -2.1606e+00
1.0212e+00 -1.0662e+00 -1.7574e+00
4.3022e-01 -8.5484e-01 -1.0703e+00
-2.0292e-01 -5.1308e-01 -2.4026e-01
-7.4841e-01 -1.3239e-01 5.4520e-01
-1.1196e+00 2.1489e-01 1.1513e+00
-1.3042e+00 4.9148e-01 1.5370e+00
-1.3215e+00 6.9021e-01 1.7131e+00
5.4120e-01 -4.0179e-01 -1.1207e+00
5.0454e-01 -4.1828e-01 -1.0958e+00
3.8072e-01 -3.5776e-01 -8.7720e-01
1.9775e-01 -2.3847e-01 -5.1894e-01
-9.0427e-03 -8.6721e-02 -9.3338e-02
-1.9585e-01 6.2601e-02 3.0590e-01
-3.3115e-01 1.8366e-01 6.1044e-01
-4.0687e-01 2.6862e-01 8.0112e-01
-4.2755e-01 3.1748e-01 8.8430e-01
-3.7107e-01 3.7027e-01 -7.3399e-03
-3.5254e-01 3.7223e-01 -7.9066e-03
-2.7316e-01 3.0691e-01 -7.2428e-03
-1.5349e-01 1.9010e-01 -5.2201e-03
-1.5359e-02 4.7196e-02 -2.1265e-03
1.1171e-01 -8.9153e-02 1.2950e-03
2.0732e-01 -1.9444e-01 4.1986e-03
2.6601e-01 -2.6167e-01 6.1419e-03
2.9271e-01 -2.9202e-01 6.9845e-03
-1.2361e+00 4.2381e-01 -8.2280e-01
-8.9407e-01 -2.1776e+00 -2.3770e+00
-5.3588e-01 -3.9546e+00 -3.2982e+00
-1.0618e-01 -4.8206e+00 -3.5087e+00
3.1149e-01 -4.8350e+00 -3.1251e+00
6.3949e-01 -4.1588e+00 -2.3351e+00
8.3872e-01 -3.0270e+00 -1.3437e+00
9.1088e-01 -1.6908e+00 -3.2660e-01
7.5278e-01 -2.9283e-01 5.5587e-01
3.6200e-01 9.5165e-01 -1.7618e+00
2.7706e-01 -1.6405e+00 -3.2196e+00
1.5890e-01 -3.5643e+00 -3.7860e+00
1.9659e-02 -4.6482e+00 -3.6064e+00
-1.1802e-01 -4.8931e+00 -2.8383e+00
-2.2662e-01 -4.4096e+00 -1.7289e+00
-2.9133e-01 -3.4181e+00 -5.2731e-01
-3.1410e-01 -2.1604e+00 5.9748e-01
-2.9748e-01 -8.7563e-01 1.6193e+00
1.6979e+00 1.1125e+00 -2.9498e+00
1.3235e+00 -1.2748e+00 -4.0168e+00
7.6761e-01 -3.0804e+00 -4.1371e+00
1.2183e-01 -4.1561e+00 -3.4839e+00
-5.1434e-01 -4.4765e+00 -2.2832e+00
-1.0152e+00 -4.1215e+00 -8.6004e-01
-1.3086e+00 -3.2741e+00 4.9642e-01
-1.4092e+00 -2.1540e+00 1.6379e+00
-1.3583e+00 -9.6824e-01 2.5316e+00
2.5327e+00 8.1252e-01 -3.9706e+00
1.9667e+00 -1.0950e+00 -4.6006e+00
1.1508e+00 -2.5267e+00 -4.2630e+00
1.9676e-01 -3.3665e+00 -3.1707e+00
-7.4621e-01 -3.5992e+00 -1.6046e+00
-1.4877e+00 -3.2904e+00 5.0568e-02
-1.9254e+00 -2.5901e+00 1.4858e+00
-2.0672e+00 -1.6765e+00 2.5691e+00
-1.9653e+00 -7.1303e-01 3.3089e+00
2.5924e+00 2.6274e-01 -4.4987e+00
2.0376e+00 -9.9930e-01 -4.7431e+00
1.2187e+00 -1.8985e+00 -4.0749e+00
2.4838e-01 -2.3726e+00 -2.7183e+00
-7.1765e-01 -2.4256e+00 -9.7505e-01
-1.4854e+00 -2.1238e+00 7.4997e-01
-1.9438e+00 -1.5831e+00 2.1500e+00
-2.1025e+00 -9.2306e-01 3.1205e+00
-2.0066e+00 -2.5622e-01 3.6803e+00
1.9154e+00 -1.8743e-01 -4.3298e+00
1.5407e+00 -8.1120e-01 -4.3349e+00
9.5681e-01 -1.2033e+00 -3.5538e+00
2.4902e-01 -1.3421e+00 -2.1913e+00
-4.6730e-01 -1.2503e+00 -5.3004e-01
-1.0458e+00 -9.8746e-01 1.0565e+00
-1.4022e+00 -6.2943e-01 2.2943e+00
-1.5370e+00 -2.4325e-01 3.1001e+00
-1.4809e+00 1.1901e-01 3.5011e+00
7.9780e-01 -2.3922e-01 -3.5251e+00
6.6948e-01 -4.0104e-01 -3.4517e+00
4.3989e-01 -4.6910e-01 -2.7684e+00
1.4922e-01 -4.4717e-01 -1.6407e+00
-1.5216e-01 -3.5263e-01 -2.9524e-01
-4.0203e-01 -2.1657e-01 9.7030e-01
-5.6182e-01 -7.0795e-02 1.9398e+00
-6.3015e-01 6.6102e-02 2.5520e+00
-6.1873e-01 1.7895e-01 2.8305e+00
-3.6722e-01 1.8205e-01 -2.3605e+00
-3.0732e-01 2.4482e-01 -2.3069e+00
-2.0584e-01 2.5662e-01 -1.8468e+00
-7.7998e-02 2.1905e-01 -1.0921e+00
5.6251e-02 1.4529e-01 -1.9402e-01
1.7093e-01 5.7181e-02 6.5022e-01
2.4833e-01 -2.5867e-02 1.2964e+00
2.8658e-01 -9.3936e-02 1.7029e+00
2.9132e-01 -1.4397e-01 1.8855e+00
-1.3013e+00 9.4615e-01 -1.1481e+00
-1.1752e+00 1.0315e+00 -1.1333e+00
-8.5906e-01 9.2259e-01 -9.2123e-01
-4.1876e-01 6.5292e-01 -5.6073e-01
6.7972e-02 2.8716e-01 -1.2447e-01
5.0151e-01 -8.5007e-02 2.9020e-01
8.1116e-01 -3.9484e-01 6.1091e-01
9.8258e-01 -6.1642e-01 8.1613e-01
1.0308e+00 -7.4905e-01 9.1253e-01
-2.6958e+00 4.3318e-01 -1.7240e+00
-2.0568e+00 -1.9340e+00 -2.9294e+00
-1.2229e+00 -3.5893e+00 -3.4689e+00
-2.4999e-01 -4.4090e+00 -3.3093e+00
7.1328e-01 -4.4478e+00 -2.6038e+00
1.4734e+00 -3.8513e+00 -1.6014e+00
1.9301e+00 -2.8304e+00 -5.2816e-01
2.0664e+00 -1.6056e+00 4.4965e-01
1.8819e+00 -3.2074e-01 1.2363e+00
-1.1809e+00 1.2087e+00 -2.8209e+00
-9.2994e-01 -1.2638e+00 -3.9601e+00
-5.4485e-01 -3.1439e+00 -4.1483e+00
-9.9371e-02 -4.2759e+00 -3.5549e+00
3.3926e-01 -4.6295e+00 -2.3993e+00
6.8461e-01 -4.2828e+00 -1.0006e+00
8.8552e-01 -3.4214e+00 3.5344e-01
9.5510e-01 -2.2722e+00 1.5105e+00
9.2867e-01 -1.0506e+00 2.4331e+00
2.0765e-01 1.5369e+00 -4.1439e+00
1.5370e-01 -7.9414e-01 -4.9730e+00
8.3009e-02 -2.6101e+00 -4.7183e+00
2.4286e-03 -3.7920e+00 -3.6001e+00
-7.5900e-02 -4.2796e+00 -1.9288e+00
-1.3639e-01 -4.1080e+00 -1.2192e-01
-1.7092e-01 -3.4174e+00 1.4789e+00
-1.7967e-01 -2.4260e+00 2.7380e+00
-1.6783e-01 -1.3343e+00 3.5969e+00
1.1886e+00 1.3147e+00 -5.3234e+00
8.9641e-01 -5.4021e-01 -5.7408e+00
5.0737e-01 -1.9958e+00 -5.0264e+00
5.7184e-02 -2.9588e+00 -3.4327e+00
-3.8221e-01 -3.3827e+00 -1.3292e+00
-7.2344e-01 -3.2811e+00 7.8590e-01
-9.2190e-01 -2.7607e+00 2.5355e+00
-9.7843e-01 -1.9898e+00 3.7817e+00
-9.1345e-01 -1.1266e+00 4.5129e+00
1.4173e+00 7.1178e-01 -5.9232e+00
1.0779e+00 -4.2933e-01 -5.9990e+00
6.1767e-01 -1.3086e+00 -4.9703e+00
8.4108e-02 -1.8747e+00 -3.1060e+00
-4.3947e-01 -2.1017e+00 -7.9831e-01
-8.4826e-01 -2.0066e+00 1.4277e+00
-1.0848e+00 -1.6577e+00 3.1813e+00
-1.1515e+00 -1.1613e+00 4.3486e+00
-1.0769e+00 -6.1866e-01 4.9382e+00
8.3994e-01 1.4848e-01 -5.7141e+00
6.5417e-01 -2.6720e-01 -5.6113e+00
3.8765e-01 -5.7138e-01 -4.5176e+00
7.1669e-02 -7.4692e-01 -2.6837e+00
-2.4157e-01 -7.9132e-01 -4.7717e-01
-4.8814e-01 -7.1805e-01 1.6079e+00
-6.3337e-01 -5.5770e-01 3.2135e+00
-6.7817e-01 -3.5257e-01 4.2363e+00
-6.3838e-01 -1.4082e-01 4.7003e+00
-2.4888e-01 6.5709e-03 -4.7828e+00
-1.8965e-01 1.1352e-01 -4.6736e+00
-1.1354e-01 1.8321e-01 -3.7427e+00
-2.5822e-02 2.1180e-01 -2.2063e+00
6.3029e-02 2.0198e-01 -3.6910e-01
1.3656e-01 1.6409e-01 1.3625e+00
1.8327e-01 1.1083e-01 2.6881e+00
2.0246e-01 5.2828e-02 3.5259e+00
1.9758e-01 -2.8560e-03 3.8986e+00
-1.4228e+00 4.0060e-01 -3.4772e+00
-1.1663e+00 7.4369e-01 -3.4419e+00
-7.5207e-01 9.0756e-01 -2.7926e+00
-2.4091e-01 8.9038e-01 -1.6927e+00
2.8696e-01 7.2295e-01 -3.6273e-01
7.2642e-01 4.6672e-01 9.0167e-01
1.0097e+00 1.8540e-01 1.8807e+00
1.1320e+00 -8.0375e-02 2.5079e+00
1.1150e+00 -3.0413e-01 2.8026e+00
-2.3720e+00 1.1877e+00 -2.1586e+00
-2.0362e+00 1.5304e+00 -2.1827e+00
-1.3945e+00 1.5567e+00 -1.8234e+00
-5.6383e-01 1.2910e+00 -1.1644e+00
3.2071e-01 8.2189e-01 -3.4206e-01
1.0812e+00 2.8018e-01 4.5479e-01
1.5965e+00 -2.2453e-01 1.0841e+00
1.8496e+00 -6.3533e-01 1.4985e+00
1.8703e+00 -9.3576e-01 1.7050e+00
-3.6270e+00 5.3997e-02 -2.5126e+00
-2.8432e+00 -1.8738e+00 -3.3268e+00
-1.7180e+00 -3.1778e+00 -3.4530e+00
-3.8685e-01 -3.7637e+00 -2.9266e+00
9.3609e-01 -3.6902e+00 -1.9403e+00
1.9934e+00 -3.1022e+00 -7.7778e-01
2.6312e+00 -2.1863e+00 3.2114e-01
2.8529e+00 -1.1247e+00 1.2304e+00
2.6839e+00 -4.9194e-02 1.8785e+00
-2.3260e+00 9.6236e-01 -3.7736e+00
-1.8095e+00 -1.1039e+00 -4.5181e+00
-1.0612e+00 -2.6688e+00 -4.2856e+00
-1.8827e-01 -3.6042e+00 -3.2849e+00
6.7305e-01 -3.8878e+00 -1.7881e+00
1.3488e+00 -3.5835e+00 -1.6955e-01
1.7462e+00 -2.8491e+00 1.2635e+00
1.8728e+00 -1.8758e+00 2.3733e+00
1.7819e+00 -8.4155e-01 3.1620e+00
-9.8443e-01 1.4019e+00 -5.2317e+00
-7.4915e-01 -5.4331e-01 -5.7018e+00
-4.3221e-01 -2.0734e+00 -5.0351e+00
-6.2833e-02 -3.0903e+00 -3.4827e+00
2.9865e-01 -3.5437e+00 -1.4109e+00
5.8035e-01 -3.4455e+00 6.8715e-01
7.4596e-01 -2.9066e+00 2.4353e+00
7.9533e-01 -2.1032e+00 3.6937e+00
7.4465e-01 -1.2009e+00 4.4468e+00
6.2115e-02 1.2191e+00 -6.4741e+00
4.2096e-02 -2.3480e-01 -6.6115e+00
1.8828e-02 -1.3984e+00 -5.5219e+00
-6.2190e-03 -2.2032e+00 -3.4885e+00
-2.9632e-02 -2.6060e+00 -9.4575e-01
-4.6783e-02 -2.5971e+00 1.5228e+00
-5.5390e-02 -2.2482e+00 3.4856e+00
-5.5978e-02 -1.6862e+00 4.8010e+00
-4.9681e-02 -1.0320e+00 5.4805e+00
4.0852e-01 5.7789e-01 -7.0522e+00
3.0431e-01 -1.1206e-01 -6.9450e+00
1.6629e-01 -6.6405e-01 -5.6091e+00
1.0670e-02 -1.0479e+00 -3.3400e+00
-1.4020e-01 -1.2418e+00 -5.9157e-01
-2.5608e-01 -1.2394e+00 2.0165e+00
-3.1915e-01 -1.0729e+00 4.0326e+00
-3.3448e-01 -8.0251e-01 5.3217e+00
-3.0833e-01 -4.8850e-01 5.9112e+00
-7.3140e-02 -5.9802e-02 -6.7174e+00
-5.2510e-02 3.0428e-02 -6.5573e+00
-3.0528e-02 9.7849e-02 -5.2526e+00
-6.5562e-03 1.3844e-01 -3.0832e+00
1.8287e-02 1.5236e-01 -4.7628e-01
3.9898e-02 1.4391e-01 1.9860e+00
5.4544e-02 1.1994e-01 3.8765e+00
6.1290e-02 8.6945e-02 5.0698e+00
6.0866e-02 4.9824e-02 5.5951e+00
-1.1294e+00 -2.4292e-01 -5.6234e+00
-8.6601e-01 3.8842e-01 -5.5689e+00
-5.1021e-01 8.4950e-01 -4.5238e+00
-9.4814e-02 1.1135e+00 -2.7342e+00
3.1992e-01 1.1783e+00 -5.5690e-01
6.5218e-01 1.0688e+00 1.5201e+00
8.5273e-01 8.3393e-01 3.1326e+00
9.1926e-01 5.3431e-01 4.1694e+00
8.7232e-01 2.2227e-01 4.6508e+00
-2.3180e+00 1.6861e-01 -4.1819e+00
-1.8453e+00 1.0070e+00 -4.2764e+00
-1.1376e+00 1.5484e+00 -3.5810e+00
-2.8922e-01 1.7583e+00 -2.2941e+00
5.7144e-01 1.6618e+00 -6.8212e-01
1.2725e+00 1.3348e+00 8.9038e-01
1.7076e+00 8.7675e-01 2.1414e+00
1.8730e+00 3.7610e-01 2.9753e+00
1.8072e+00 -9.8937e-02 3.4116e+00
-3.3107e+00 1.0165e+00 -2.7978e+00
-2.7309e+00 1.8028e+00 -2.9667e+00
-1.7712e+00 2.1622e+00 -2.6015e+00
-5.8456e-01 2.0854e+00 -1.7941e+00
6.4414e-01 1.6620e+00 -7.2319e-01
1.6738e+00 1.0423e+00 3.5535e-01
2.3420e+00 3.7030e-01 1.2399e+00
2.6322e+00 -2.5886e-01 1.8547e+00
2.5900e+00 -7.9358e-01 2.1942e+00
-3.8488e+00 -5.2953e-01 -2.9482e+00
-3.0898e+00 -1.8769e+00 -3.3834e+00
-1.9213e+00 -2.6983e+00 -3.1730e+00
-5.1497e-01 -2.9377e+00 -2.3959e+00
9.0484e-01 -2.6760e+00 -1.2599e+00
2.0551e+00 -2.0624e+00 -5.8712e-02
2.7703e+00 -1.2596e+00 9.8311e-01
3.0434e+00 -4.1118e-01 1.7609e+00
2.9194e+00 3.9751e-01 2.2467e+00
-2.7371e+00 3.8572e-01 -4.3170e+00
-2.1501e+00 -1.0759e+00 -4.6751e+00
-1.2848e+00 -2.1310e+00 -4.1084e+00
-2.6250e-01 -2.7051e+00 -2.8386e+00
7.5281e-01 -2.7975e+00 -1.1595e+00
1.5577e+00 -2.4781e+00 5.3307e-01
2.0365e+00 -1.8759e+00 1.9341e+00
2.2001e+00 -1.1285e+00 2.9331e+00
2.0990e+00 -3.6584e-01 3.5433e+00
-1.4863e+00 8.3544e-01 -5.8124e+00
-1.1357e+00 -4.6784e-01 -5.9542e+00
-6.5660e-01 -1.4751e+00 -4.9843e+00
-1.0021e-01 -2.1275e+00 -3.1702e+00
4.4620e-01 -2.3947e+00 -9.0060e-01
8.7352e-01 -2.2941e+00 1.3048e+00
1.1216e+00 -1.9029e+00 3.0574e+00
1.1937e+00 -1.3418e+00 4.2408e+00
1.1191e+00 -7.2573e-01 4.8584e+00
-4.2724e-01 6.5656e-01 -7.0189e+00
-3.2597e-01 -1.2567e-01 -6.9308e+00
-1.8676e-01 -7.5106e-01 -5.6121e+00
-2.7155e-02 -1.1857e+00 -3.3576e+00
1.2939e-01 -1.4052e+00 -6.2060e-01
2.5146e-01 -1.4026e+00 1.9807e+00
3.2026e-01 -1.2149e+00 3.9961e+00
3.4028e-01 -9.0977e-01 5.2893e+00
3.1819e-01 -5.5513e-01 5.8869e+00
-1.1396e-04 4.5759e-16 -7.4729e+00
-4.2687e-03 7.3480e-03 -7.2929e+00
-6.6853e-03 9.5843e-03 -5.8388e+00
-7.9390e-03 6.7675e-03 -3.4185e+00
-8.1805e-03 9.0016e-04 -5.0538e-01
-7.3347e-03 -3.4752e-03 2.2496e+00
-5.7652e-03 -4.0983e-03 4.3627e+00
-3.5248e-03 -1.9378e-03 5.6992e+00
-8.0179e-04 -3.8487e-16 6.2861e+00
-4.0266e-01 -6.5587e-01 -6.9848e+00
-3.0129e-01 1.3939e-01 -6.9037e+00
-1.7014e-01 7.6901e-01 -5.6010e+00
-2.1904e-02 1.1991e+00 -3.3660e+00
1.2485e-01 1.4097e+00 -6.3892e-01
2.4145e-01 1.4009e+00 1.9668e+00
3.0857e-01 1.2122e+00 3.9907e+00
3.2900e-01 9.0923e-01 5.2883e+00
3.0897e-01 5.5592e-01 5.8845e+00
-1.4386e+00 -8.3468e-01 -5.7557e+00
-1.0885e+00 4.7830e-01 -5.9093e+00
-6.2618e-01 1.4896e+00 -4.9651e+00
-9.2703e-02 2.1413e+00 -3.1821e+00
4.3593e-01 2.4055e+00 -9.2957e-01
8.5586e-01 2.3032e+00 1.2807e+00
1.1033e+00 1.9112e+00 3.0454e+00
1.1774e+00 1.3482e+00 4.2349e+00
1.1059e+00 7.2714e-01 4.8507e+00
-2.6721e+00 -3.8866e-01 -4.2546e+00
-2.0882e+00 1.0790e+00 -4.6253e+00
-1.2467e+00 2.1399e+00 -4.0856e+00
-2.5649e-01 2.7180e+00 -2.8490e+00
7.3617e-01 2.8124e+00 -1.1892e+00
1.5353e+00 2.4932e+00 5.0560e-01
2.0171e+00 1.8885e+00 1.9175e+00
2.1840e+00 1.1366e+00 2.9231e+00
2.0847e+00 3.6682e-01 3.5306e+00
-3.7821e+00 5.2025e-01 -2.8974e+00
-3.0237e+00 1.8733e+00 -3.3373e+00
-1.8817e+00 2.7041e+00 -3.1514e+00
-5.1149e-01 2.9511e+00 -2.4038e+00
8.8390e-01 2.6924e+00 -1.2860e+00
2.0308e+00 2.0762e+00 -8.4815e-02
2.7517e+00 1.2684e+00 9.6493e-01
3.0313e+00 4.1428e-01 1.7513e+00
2.9172e+00 -3.9705e-01 2.2453e+00
-3.3558e+00 -1.0298e+00 -2.8379e+00
-2.7838e+00 -1.8001e+00 -3.0004e+00
-1.8100e+00 -2.1438e+00 -2.6144e+00
-5.9884e-01 -2.0583e+00 -1.7843e+00
6.4947e-01 -1.6349e+00 -7.0030e-01
1.6862e+00 -1.0217e+00 3.7828e-01
2.3533e+00 -3.5837e-01 1.2559e+00
2.6406e+00 2.6373e-01 1.8637e+00
2.5917e+00 7.9405e-01 2.1957e+00
-2.3677e+00 -1.8279e-01 -4.2224e+00
-1.9005e+00 -1.0041e+00 -4.3060e+00
-1.1773e+00 -1.5305e+00 -3.5918e+00
-3.0406e-01 -1.7324e+00 -2.2836e+00
5.7714e-01 -1.6357e+00 -6.6032e-01
1.2872e+00 -1.3133e+00 9.0928e-01
1.7232e+00 -8.6124e-01 2.1519e+00
1.8865e+00 -3.6649e-01 2.9802e+00
1.8170e+00 1.0205e-01 3.4182e+00
-1.1754e+00 2.3002e-01 -5.6503e+00
-9.1710e-01 -3.8218e-01 -5.5884e+00
-5.4693e-01 -8.3031e-01 -4.5300e+00
-1.0893e-01 -1.0899e+00 -2.7255e+00
3.2559e-01 -1.1576e+00 -5.4113e-01
6.6871e-01 -1.0533e+00 1.5319e+00
8.7205e-01 -8.2222e-01 3.1370e+00
9.3706e-01 -5.2555e-01 4.1703e+00
8.8558e-01 -2.1787e-01 4.6525e+00
-1.1063e-01 5.1082e-02 -6.7180e+00
-9.2753e-02 -2.0690e-02 -6.5572e+00
-5.9009e-02 -7.8049e-02 -5.2516e+00
-1.7084e-02 -1.1884e-01 -3.0810e+00
2.4026e-02 -1.4012e-01 -4.7413e-01
5.5421e-02 -1.3895e-01 1.9867e+00
7.3040e-02 -1.1778e-01 3.8756e+00
7.8176e-02 -8.4311e-02 5.0679e+00
7.3277e-02 -4.6911e-02 5.5931e+00
3.8521e-01 -5.7768e-01 -7.0183e+00
2.8063e-01 1.2593e-01 -6.9176e+00
1.5047e-01 6.8263e-01 -5.5967e+00
6.0067e-03 1.0621e+00 -3.3460e+00
-1.3539e-01 1.2468e+00 -6.0763e-01
-2.4620e-01 1.2375e+00 2.0032e+00
-3.0810e-01 1.0698e+00 4.0259e+00
-3.2431e-01 8.0146e-01 5.3182e+00
-3.0063e-01 4.8898e-01 5.9062e+00
6.3171e-02 -1.2065e+00 -6.4071e+00
4.3122e-02 2.5137e-01 -6.5556e+00
1.9949e-02 1.4122e+00 -5.4945e+00
-5.0721e-03 2.2096e+00 -3.4975e+00
-2.8856e-02 2.6059e+00 -9.7582e-01
-4.6814e-02 2.5953e+00 1.4960e+00
-5.6325e-02 2.2476e+00 3.4703e+00
-5.7614e-02 1.6861e+00 4.7908e+00
-5.1736e-02 1.0295e+00 5.4672e+00
-9.4773e-01 -1.3813e+00 -5.1469e+00
-7.1566e-01 5.5694e-01 -5.6278e+00
-4.1154e-01 2.0779e+00 -4.9943e+00
-5.8454e-02 3.0877e+00 -3.4866e+00
2.9093e-01 3.5405e+00 -1.4440e+00
5.6761e-01 3.4475e+00 6.5271e-01
7.3183e-01 2.9119e+00 2.4105e+00
7.8033e-01 2.1058e+00 3.6738e+00
7.3010e-01 1.1959e+00 4.4243e+00
-2.2547e+00 -9.4631e-01 -3.6928e+00
-1.7470e+00 1.1057e+00 -4.4447e+00
-1.0250e+00 2.6609e+00 -4.2411e+00
-1.8512e-01 3.5937e+00 -3.2817e+00
6.5349e-01 3.8830e+00 -1.8148e+00
1.3233e+00 3.5873e+00 -2.0218e-01
1.7223e+00 2.8561e+00 1.2371e+00
1.8512e+00 1.8790e+00 2.3516e+00
1.7602e+00 8.3614e-01 3.1360e+00
-3.5413e+00 -5.4033e-02 -2.4560e+00
-2.7660e+00 1.8613e+00 -3.2676e+00
-1.6757e+00 3.1619e+00 -3.4153e+00
-3.8800e-01 3.7525e+00 -2.9215e+00
9.0662e-01 3.6871e+00 -1.9593e+00
1.9591e+00 3.1047e+00 -8.0282e-01
2.6035e+00 2.1893e+00 3.0146e-01
2.8310e+00 1.1259e+00 1.2166e+00
2.6720e+00 4.9771e-02 1.8718e+00
-2.3971e+00 -1.1993e+00 -2.1852e+00
-2.0767e+00 -1.5221e+00 -2.2051e+00
-1.4328e+00 -1.5310e+00 -1.8313e+00
-5.8902e-01 -1.2572e+00 -1.1573e+00
3.1006e-01 -7.8939e-01 -3.2577e-01
1.0802e+00 -2.5552e-01 4.7198e-01
1.6002e+00 2.4000e-01 1.0977e+00
1.8545e+00 6.4211e-01 1.5067e+00
1.8716e+00 9.3634e-01 1.7066e+00
-1.4560e+00 -4.1775e-01 -3.4966e+00
-1.2128e+00 -7.3922e-01 -3.4553e+00
-7.9248e-01 -8.8450e-01 -2.7966e+00
-2.6503e-01 -8.5767e-01 -1.6863e+00
2.7990e-01 -6.9026e-01 -3.5110e-01
7.3093e-01 -4.4006e-01 9.1203e-01
1.0195e+00 -1.6651e-01 1.8869e+00
1.1425e+00 9.2251e-02 2.5106e+00
1.1225e+00 3.0812e-01 2.8060e+00
-2.8778e-01 -2.4894e-02 -4.7844e+00
-2.3973e-01 -1.0912e-01 -4.6739e+00
-1.5395e-01 -1.6152e-01 -3.7414e+00
-4.6928e-02 -1.8200e-01 -2.2035e+00
6.1077e-02 -1.7325e-01 -3.6620e-01
1.4734e-01 -1.4098e-01 1.3639e+00
1.9948e-01 -9.3559e-02 2.6877e+00
2.1783e-01 -4.0886e-02 3.5244e+00
2.0832e-01 7.9648e-03 3.8969e+00
7.9585e-01 -1.6218e-01 -5.6888e+00
6.0413e-01 2.7376e-01 -5.5917e+00
3.5091e-01 5.9168e-01 -4.5089e+00
5.6560e-02 7.7172e-01 -2.6873e+00
-2.3714e-01 8.1274e-01 -4.8782e-01
-4.7227e-01 7.3360e-01 1.5981e+00
-6.1407e-01 5.6893e-01 3.2073e+00
-6.6025e-01 3.6085e-01 4.2314e+00
-6.2526e-01 1.4502e-01 4.6944e+00
1.3726e+00 -7.1240e-01 -5.8660e+00
1.0327e+00 4.4034e-01 -5.9531e+00
5.8820e-01 1.3251e+00 -4.9491e+00
7.6650e-02 1.8907e+00 -3.1145e+00
-4.2967e-01 2.1138e+00 -8.2395e-01
-8.3118e-01 2.0154e+00 1.4046e+00
-1.0672e+00 1.6647e+00 3.1676e+00
-1.1365e+00 1.1663e+00 4.3392e+00
-1.0656e+00 6.1931e-01 4.9265e+00
1.1548e+00 -1.2951e+00 -5.2367e+00
8.6580e-01 5.5433e-01 -5.6654e+00
4.8998e-01 2.0019e+00 -4.9844e+00
5.6239e-02 2.9580e+00 -3.4352e+00
-3.7211e-01 3.3805e+00 -1.3612e+00
-7.1071e-01 3.2825e+00 7.5172e-01
-9.1044e-01 2.7645e+00 2.5097e+00
-9.6808e-01 1.9910e+00 3.7597e+00
-9.0461e-01 1.1208e+00 4.4878e+00
2.0891e-01 -1.4988e+00 -4.0416e+00
1.5568e-01 8.0249e-01 -4.8740e+00
8.6038e-02 2.5933e+00 -4.6509e+00
6.2545e-03 3.7623e+00 -3.5810e+00
-7.2808e-02 4.2530e+00 -1.9481e+00
-1.3574e-01 4.0938e+00 -1.5474e-01
-1.7303e-01 3.4113e+00 1.4438e+00
-1.8378e-01 2.4176e+00 2.6974e+00
-1.7278e-01 1.3165e+00 3.5494e+00
-1.1241e+00 -1.1718e+00 -2.7308e+00
-8.8286e-01 1.2523e+00 -3.8603e+00
-5.1675e-01 3.0976e+00 -4.0676e+00
-9.3570e-02 4.2161e+00 -3.5131e+00
3.2870e-01 4.5788e+00 -2.3947e+00
6.6604e-01 4.2517e+00 -1.0176e+00
8.6164e-01 3.4036e+00 3.2415e-01
9.2552e-01 2.2567e+00 1.4713e+00
8.9512e-01 1.0308e+00 2.3842e+00
-2.6032e+00 -4.2164e-01 -1.6707e+00
-1.9766e+00 1.9031e+00 -2.8556e+00
-1.1784e+00 3.5339e+00 -3.4029e+00
-2.4661e-01 4.3502e+00 -3.2695e+00
6.8880e-01 4.4031e+00 -2.5921e+00
1.4387e+00 3.8260e+00 -1.6080e+00
1.8897e+00 2.8179e+00 -5.4505e-01
2.0255e+00 1.5971e+00 4.3106e-01
1.8531e+00 3.1827e-01 1.2217e+00
-1.3113e+00 -9.5263e-01 -1.1620e+00
-1.2044e+00 -1.0178e+00 -1.1452e+00
-8.9526e-01 -8.9245e-01 -9.2497e-01
-4.5124e-01 -6.1657e-01 -5.5642e-01
4.4975e-02 -2.5374e-01 -1.1531e-01
4.8876e-01 1.1036e-01 3.0044e-01
8.0690e-01 4.1038e-01 6.1948e-01
9.8361e-01 6.2350e-01 8.2193e-01
1.0316e+00 7.4955e-01 9.1350e-01
-3.8636e-01 -1.9584e-01 -2.3629e+00
-3.4450e-01 -2.3715e-01 -2.3078e+00
-2.4478e-01 -2.2986e-01 -1.8459e+00
-1.0857e-01 -1.8303e-01 -1.0896e+00