<?xml version="1.0"?>
<VTKFile type="StructuredGrid" version="0.1">
  <StructuredGrid WholeExtent="0 8 0 8 0 8">
    <Piece Extent="0 8 0 8 0 8">
      <PointData Scalars="temperature" Vectors="velocity">
        <DataArray type="Float32" Name="temperature" format="ascii">
1.000000e+00
8.707944e-01
7.495230e-01
6.316491e-01
5.145625e-01
3.810217e-01
2.491322e-01
1.216173e-01
0.000000e+00
1.000000e+00
8.719637e-01
7.505739e-01
6.325954e-01
5.154925e-01
3.821984e-01
2.503235e-01
1.227819e-01
0.000000e+00
1.000000e+00
8.716452e-01
7.500016e-01
6.314768e-01
5.135985e-01
3.811372e-01
2.499216e-01
1.226151e-01
0.000000e+00
1.000000e+00
8.710583e-01
7.488798e-01
6.293539e-01
5.101826e-01
3.791199e-01
2.490832e-01
1.222861e-01
0.000000e+00
1.000000e+00
8.702929e-01
7.474136e-01
6.265770e-01
5.058174e-01
3.765304e-01
2.479851e-01
1.218421e-01
0.000000e+00
1.000000e+00
8.695066e-01
7.458974e-01
6.236965e-01
5.013869e-01
3.739145e-01
2.468647e-01
1.213818e-01
0.000000e+00
1.000000e+00
8.688569e-01
7.446366e-01
6.212911e-01
4.977581e-01
3.717853e-01
2.459475e-01
1.210023e-01
0.000000e+00
1.000000e+00
8.684395e-01
7.438238e-01
6.197375e-01
4.954548e-01
3.704379e-01
2.453662e-01
1.207616e-01
0.000000e+00
1.000000e+00
8.682630e-01
7.434889e-01
6.191058e-01
4.945475e-01
3.698981e-01
2.451313e-01
1.206639e-01
0.000000e+00
1.000000e+00
8.719637e-01
7.505739e-01
6.325954e-01
5.154925e-01
3.821984e-01
2.503235e-01
1.227819e-01
0.000000e+00
1.000000e+00
8.720136e-01
7.506742e-01
6.327678e-01
5.158595e-01
3.823846e-01
2.504332e-01
1.228355e-01
0.000000e+00
1.000000e+00
8.718305e-01
7.502731e-01
6.319323e-01
5.144854e-01
3.815803e-01
2.501322e-01
1.227268e-01
0.000000e+00
1.000000e+00
8.712451e-01
7.491794e-01
6.298819e-01
5.112127e-01
3.796160e-01
2.493040e-01
1.223923e-01
0.000000e+00
1.000000e+00
8.704336e-01
7.476467e-01
6.270011e-01
5.066507e-01
3.769168e-01
2.481528e-01
1.219194e-01
0.000000e+00
1.000000e+00
8.695733e-01
7.460088e-01
6.239058e-01
5.018246e-01
3.741006e-01
2.469440e-01
1.214187e-01
0.000000e+00
1.000000e+00
8.688536e-01
7.446265e-01
6.212773e-01
4.978005e-01
3.717757e-01
2.459424e-01
1.210017e-01
0.000000e+00
1.000000e+00
8.683910e-01
7.437320e-01
6.195694e-01
4.952336e-01
3.702982e-01
2.453051e-01
1.207370e-01
0.000000e+00
1.000000e+00
8.681983e-01
7.433616e-01
6.188665e-01
4.942195e-01
3.697004e-01
2.450481e-01
1.206328e-01
0.000000e+00
1.000000e+00
8.716452e-01
7.500016e-01
6.314768e-01
5.135985e-01
3.811372e-01
2.499216e-01
1.226151e-01
0.000000e+00
1.000000e+00
8.718305e-01
7.502731e-01
6.319323e-01
5.144854e-01
3.815803e-01
2.501322e-01
1.227268e-01
0.000000e+00
1.000000e+00
8.716357e-01
7.499008e-01
6.312271e-01
5.133727e-01
3.808964e-01
2.498351e-01
1.226016e-01
0.000000e+00
1.000000e+00
8.710695e-01
7.488355e-01
6.292259e-01
5.102010e-01
3.789875e-01
2.490227e-01
1.222719e-01
0.000000e+00
1.000000e+00
8.702220e-01
7.472384e-01
6.262326e-01
5.054887e-01
3.762117e-01
2.478390e-01
1.217854e-01
0.000000e+00
1.000000e+00
8.693018e-01
7.454901e-01
6.229357e-01
5.003780e-01
3.732494e-01
2.465706e-01
1.212603e-01
0.000000e+00
1.000000e+00
8.685326e-01
7.440128e-01
6.201272e-01
4.961052e-01
3.707978e-01
2.455169e-01
1.208223e-01
0.000000e+00
1.000000e+00
8.680514e-01
7.430783e-01
6.183389e-01
4.934298e-01
3.692701e-01
2.448586e-01
1.205490e-01
0.000000e+00
1.000000e+00
8.678563e-01
7.427042e-01
6.176333e-01
4.924533e-01
3.686762e-01
2.446015e-01
1.204435e-01
0.000000e+00
1.000000e+00
8.710583e-01
7.488798e-01
6.293539e-01
5.101826e-01
3.791199e-01
2.490832e-01
1.222861e-01
0.000000e+00
1.000000e+00
8.712451e-01
7.491794e-01
6.298819e-01
5.112127e-01
3.796160e-01
2.493040e-01
1.223923e-01
0.000000e+00
1.000000e+00
8.710695e-01
7.488355e-01
6.292259e-01
5.102010e-01
3.789875e-01
2.490227e-01
1.222719e-01
0.000000e+00
1.000000e+00
8.704918e-01
7.477453e-01
6.271801e-01
5.070102e-01
3.770796e-01
2.482026e-01
1.219344e-01
0.000000e+00
1.000000e+00
8.696118e-01
7.460828e-01
6.240651e-01
5.021707e-01
3.742642e-01
2.469986e-01
1.214357e-01
0.000000e+00
1.000000e+00
8.686565e-01
7.442618e-01
6.206296e-01
4.969103e-01
3.712583e-01
2.457100e-01
1.208988e-01
0.000000e+00
1.000000e+00
8.678741e-01
7.427497e-01
6.177468e-01
4.925781e-01
3.688046e-01
2.446529e-01
1.204570e-01
0.000000e+00
1.000000e+00
8.674123e-01
7.418411e-01
6.159977e-01
4.899864e-01
3.673435e-01
2.440201e-01
1.201924e-01
0.000000e+00
1.000000e+00
8.672390e-01
7.415112e-01
6.153847e-01
4.892213e-01
3.668355e-01
2.437943e-01
1.200963e-01
0.000000e+00
1.000000e+00
8.702929e-01
7.474136e-01
6.265770e-01
5.058174e-01
3.765304e-01
2.479851e-01
1.218421e-01
0.000000e+00
1.000000e+00
8.704336e-01
7.476467e-01
6.270011e-01
5.066507e-01
3.769168e-01
2.481528e-01
1.219194e-01
0.000000e+00
1.000000e+00
8.702220e-01
7.472384e-01
6.262326e-01
5.054887e-01
3.762117e-01
2.478390e-01
1.217854e-01
0.000000e+00
1.000000e+00
8.696118e-01
7.460828e-01
6.240651e-01
5.021707e-01
3.742642e-01
2.469986e-01
1.214357e-01
0.000000e+00
1.000000e+00
8.687068e-01
7.443636e-01
6.208373e-01
4.972495e-01
3.714513e-01
2.457903e-01
1.209302e-01
0.000000e+00
1.000000e+00
8.677436e-01
7.425146e-01
6.173390e-01
4.919929e-01
3.684979e-01
2.445178e-01
1.203950e-01
0.000000e+00
1.000000e+00
8.669795e-01
7.410229e-01
6.144803e-01
4.877777e-01
3.661438e-01
2.434967e-01
1.199644e-01
0.000000e+00
1.000000e+00
8.665620e-01
7.401860e-01
6.128562e-01
4.854093e-01
3.648255e-01
2.429193e-01
1.197204e-01
0.000000e+00
1.000000e+00
8.664217e-01
7.399258e-01
6.123906e-01
4.849470e-01
3.644443e-01
2.427402e-01
1.196371e-01
0.000000e+00
1.000000e+00
8.695066e-01
7.458974e-01
6.236965e-01
5.013869e-01
3.739145e-01
2.468647e-01
1.213818e-01
0.000000e+00
1.000000e+00
8.695733e-01
7.460088e-01
6.239058e-01
5.018246e-01
3.741006e-01
2.469440e-01
1.214187e-01
0.000000e+00
1.000000e+00
8.693018e-01
7.454901e-01
6.229357e-01
5.003780e-01
3.732494e-01
2.465706e-01
1.212603e-01
0.000000e+00
1.000000e+00
8.686565e-01
7.442618e-01
6.206296e-01
4.969103e-01
3.712583e-01
2.457100e-01
1.208988e-01
0.000000e+00
1.000000e+00
8.677436e-01
7.425146e-01
6.173390e-01
4.919929e-01
3.684979e-01
2.445178e-01
1.203950e-01
0.000000e+00
1.000000e+00
8.667942e-01
7.406771e-01
6.138535e-01
4.868630e-01
3.656631e-01
2.432882e-01
1.198723e-01
0.000000e+00
1.000000e+00
8.660588e-01
7.392281e-01
6.110674e-01
4.828401e-01
3.634487e-01
2.423201e-01
1.194597e-01
0.000000e+00
1.000000e+00
8.656788e-01
7.384546e-01
6.095608e-01
4.806849e-01
3.622653e-01
2.417953e-01
1.192348e-01
0.000000e+00
1.000000e+00
8.655552e-01
7.382414e-01
6.092042e-01
4.804419e-01
3.619764e-01
2.416465e-01
1.191564e-01
0.000000e+00
1.000000e+00
8.688569e-01
7.446366e-01
6.212911e-01
4.977581e-01
3.717853e-01
2.459475e-01
1.210023e-01
0.000000e+00
1.000000e+00
8.688536e-01
7.446265e-01
6.212773e-01
4.978005e-01
3.717757e-01
2.459424e-01
1.210017e-01
0.000000e+00
1.000000e+00
8.685326e-01
7.440128e-01
6.201272e-01
4.961052e-01
3.707978e-01
2.455169e-01
1.208223e-01
0.000000e+00
1.000000e+00
8.678741e-01
7.427497e-01
6.177468e-01
4.925781e-01
3.688046e-01
2.446529e-01
1.204570e-01
0.000000e+00
1.000000e+00
8.669795e-01
7.410229e-01
6.144803e-01
4.877777e-01
3.661438e-01
2.434967e-01
1.199644e-01
0.000000e+00
1.000000e+00
8.660588e-01
7.392281e-01
6.110674e-01
4.828401e-01
3.634487e-01
2.423201e-01
1.194597e-01
0.000000e+00
1.000000e+00
8.653374e-01
7.378045e-01
6.083365e-01
4.789660e-01
3.613466e-01
2.413975e-01
1.190642e-01
0.000000e+00
1.000000e+00
8.649590e-01
7.370332e-01
6.068453e-01
4.768703e-01
3.602188e-01
2.408989e-01
1.188494e-01
0.000000e+00
1.000000e+00
8.648101e-01
7.367947e-01
6.064643e-01
4.766010e-01
3.599217e-01
2.407362e-01
1.187513e-01
0.000000e+00
1.000000e+00
8.684395e-01
7.438238e-01
6.197375e-01
4.954548e-01
3.704379e-01
2.453662e-01
1.207616e-01
0.000000e+00
1.000000e+00
8.683910e-01
7.437320e-01
6.195694e-01
4.952336e-01
3.702982e-01
2.453051e-01
1.207370e-01
0.000000e+00
1.000000e+00
8.680514e-01
7.430783e-01
6.183389e-01
4.934298e-01
3.692701e-01
2.448586e-01
1.205490e-01
0.000000e+00
1.000000e+00
8.674123e-01
7.418411e-01
6.159977e-01
4.899864e-01
3.673435e-01
2.440201e-01
1.201924e-01
0.000000e+00
1.000000e+00
8.665620e-01
7.401860e-01
6.128562e-01
4.854093e-01
3.648255e-01
2.429193e-01
1.197204e-01
0.000000e+00
1.000000e+00
8.656788e-01
7.384546e-01
6.095608e-01
4.806849e-01
3.622653e-01
2.417953e-01
1.192348e-01
0.000000e+00
1.000000e+00
8.649590e-01
7.370332e-01
6.068453e-01
4.768703e-01
3.602188e-01
2.408989e-01
1.188494e-01
0.000000e+00
1.000000e+00
8.644405e-01
7.360932e-01
6.051546e-01
4.745791e-01
3.589919e-01
2.403513e-01
1.186118e-01
0.000000e+00
1.000000e+00
8.642805e-01
7.357870e-01
6.046303e-01
4.740478e-01
3.586087e-01
2.401801e-01
1.185426e-01
0.000000e+00
1.000000e+00
8.682630e-01
7.434889e-01
6.191058e-01
4.945475e-01
3.698981e-01
2.451313e-01
1.206639e-01
0.000000e+00
1.000000e+00
8.681983e-01
7.433616e-01
6.188665e-01
4.942195e-01
3.697004e-01
2.450481e-01
1.206328e-01
0.000000e+00
1.000000e+00
8.678563e-01
7.427042e-01
6.176333e-01
4.924533e-01
3.686762e-01
2.446015e-01
1.204435e-01
0.000000e+00
1.000000e+00
8.672390e-01
7.415112e-01
6.153847e-01
4.892213e-01
3.668355e-01
2.437943e-01
1.200963e-01
0.000000e+00
1.000000e+00
8.664217e-01
7.399258e-01
6.123906e-01
4.849470e-01
3.644443e-01
2.427402e-01
1.196371e-01
0.000000e+00
1.000000e+00
8.655552e-01
7.382414e-01
6.092042e-01
4.804419e-01
3.619764e-01
2.416465e-01
1.191564e-01
0.000000e+00
1.000000e+00
8.648101e-01
7.367947e-01
6.064643e-01
4.766010e-01
3.599217e-01
2.407362e-01
1.187513e-01
0.000000e+00
1.000000e+00
8.642805e-01
7.357870e-01
6.046303e-01
4.740478e-01
3.586087e-01
2.401801e-01
1.185426e-01
0.000000e+00
1.000000e+00
8.627855e-01
7.342153e-01
6.027001e-01
4.719302e-01
3.570952e-01
2.388845e-01
1.173875e-01
0.000000e+00
        </DataArray>
        <DataArray type="Float32" Name="velocity" NumberOfComponents="3" format="ascii">
-4.979642e-01 1.329707e-07 -6.356140e-01
-2.845363e+00 9.633545e-08 1.225645e+00
-4.229147e+00 1.521604e-07 2.513868e+00
-4.711199e+00 7.452351e-08 3.227742e+00
-4.361492e+00 1.292528e-07 3.358607e+00
-3.412318e+00 8.811929e-08 2.999479e+00
-2.137467e+00 3.917125e-08 2.296359e+00
-7.749828e-01 5.142949e-08 1.416418e+00
4.354041e-01 -1.307910e-08 5.557607e-01
-7.809738e-02 -1.629140e+00 1.531539e-01
-2.476146e+00 -1.218536e+00 1.756391e+00
-4.030314e+00 -7.426726e-01 2.844432e+00
-4.690088e+00 -1.619162e-01 3.295717e+00
-4.531302e+00 4.181020e-01 3.178174e+00
-3.732846e+00 8.840267e-01 2.620950e+00
-2.542327e+00 1.166252e+00 1.797015e+00
-1.205029e+00 1.260782e+00 8.797414e-01
1.434075e-01 1.112280e+00 2.412909e-02
-2.678131e-02 -3.024031e+00 1.090892e+00
-2.265189e+00 -2.331752e+00 2.364364e+00
-3.752753e+00 -1.408983e+00 3.081715e+00
-4.397897e+00 -3.207632e-01 3.163019e+00
-4.277601e+00 7.777897e-01 2.710569e+00
-3.557813e+00 1.666371e+00 1.918563e+00
-2.458798e+00 2.209984e+00 9.845740e-01
-1.199578e+00 2.390340e+00 7.110501e-02
7.553165e-02 2.223693e+00 -7.112935e-01
-3.301036e-01 -3.892665e+00 1.963485e+00
-2.178409e+00 -3.072377e+00 2.838109e+00
-3.360749e+00 -1.884242e+00 3.122303e+00
-3.806657e+00 -4.686365e-01 2.807218e+00
-3.592984e+00 9.624877e-01 2.036290e+00
-2.887010e+00 2.133166e+00 1.045656e+00
-1.891027e+00 2.859089e+00 5.602201e-02
-7.915283e-01 3.128684e+00 -7.999503e-01
2.851225e-01 2.979967e+00 -1.441540e+00
-8.226376e-01 -4.050086e+00 2.510375e+00
-2.129875e+00 -3.267325e+00 2.987877e+00
-2.872011e+00 -2.056991e+00 2.901466e+00
-3.007154e+00 -5.919943e-01 2.290807e+00
-2.631955e+00 9.075966e-01 1.323092e+00
-1.917027e+00 2.147108e+00 2.549800e-01
-1.043223e+00 2.934453e+00 -6.998675e-01
-1.572340e-01 3.251339e+00 -1.433718e+00
6.582169e-01 3.150476e+00 -1.910802e+00
-1.232625e+00 -3.495582e+00 2.517810e+00
-1.991314e+00 -2.906672e+00 2.705334e+00
-2.290771e+00 -1.904817e+00 2.406164e+00
-2.135753e+00 -6.552001e-01 1.695022e+00
-1.629255e+00 6.454135e-01 7.325304e-01
-9.381114e-01 1.740871e+00 -2.478972e-01
-2.169616e-01 2.458063e+00 -1.060340e+00
4.373932e-01 2.777924e+00 -1.633063e+00
9.776718e-01 2.749013e+00 -1.955885e+00
-1.322970e+00 -2.483785e+00 1.976152e+00
-1.651266e+00 -2.146989e+00 2.007913e+00
-1.642062e+00 -1.482972e+00 1.688340e+00
-1.328350e+00 -6.156454e-01 1.090428e+00
-8.073967e-01 3.123290e-01 3.384915e-01
-2.204226e-01 1.113651e+00 -3.935366e-01
3.160462e-01 1.660571e+00 -9.741906e-01
7.439217e-01 1.933764e+00 -1.359046e+00
1.049221e+00 1.964895e+00 -1.552696e+00
-1.009868e+00 -1.351976e+00 1.052148e+00
-1.089019e+00 -1.227049e+00 1.040123e+00
-9.639878e-01 -9.020514e-01 8.478992e-01
-6.720809e-01 -4.457199e-01 5.189233e-01
-2.819466e-01 6.071334e-02 1.195997e-01
1.116287e-01 5.132462e-01 -2.607547e-01
4.366441e-01 8.379174e-01 -5.555033e-01
6.665573e-01 1.019256e+00 -7.446923e-01
8.016767e-01 1.073030e+00 -8.339370e-01
-3.709509e-01 -3.699871e-01 -1.053686e-02
-3.722397e-01 -3.520361e-01 -9.564052e-03
-3.063712e-01 -2.731083e-01 -6.690621e-03
-1.891366e-01 -1.537908e-01 -2.934346e-03
-4.589317e-02 -1.595109e-02 8.325843e-04
9.058021e-02 1.110341e-01 3.840021e-03
1.958573e-01 2.066997e-01 5.846102e-03
2.630461e-01 2.654863e-01 6.975317e-03
2.931889e-01 2.924664e-01 7.526691e-03
-7.809735e-02 1.629140e+00 1.531540e-01
-2.476146e+00 1.218536e+00 1.756391e+00
-4.030314e+00 7.426728e-01 2.844432e+00
-4.690088e+00 1.619165e-01 3.295717e+00
-4.531302e+00 -4.181019e-01 3.178174e+00
-3.732846e+00 -8.840265e-01 2.620950e+00
-2.542327e+00 -1.166252e+00 1.797015e+00
-1.205029e+00 -1.260782e+00 8.797415e-01
1.434075e-01 -1.112280e+00 2.412917e-02
5.501855e-01 1.938973e-07 8.991665e-01
-1.937267e+00 1.775910e-07 2.503488e+00
-3.728918e+00 4.913019e-08 3.334366e+00
-4.672423e+00 8.509038e-09 3.483361e+00
-4.787564e+00 1.630489e-07 3.047907e+00
-4.199531e+00 1.574021e-07 2.208228e+00
-3.133258e+00 1.693387e-07 1.182740e+00
-1.830440e+00 1.607567e-07 1.442743e-01
-5.316359e-01 1.568105e-07 -8.688508e-01
8.725830e-01 -1.499078e+00 2.003208e+00
-1.567599e+00 -1.177691e+00 3.298175e+00
-3.371992e+00 -6.943090e-01 3.750197e+00
-4.400766e+00 -1.307529e-01 3.478982e+00
-4.645501e+00 4.336821e-01 2.639843e+00
-4.199720e+00 8.876350e-01 1.486248e+00
-3.254314e+00 1.156342e+00 2.797803e-01
-2.039661e+00 1.248408e+00 -8.190053e-01
-7.764969e-01 1.206012e+00 -1.754253e+00
7.174784e-01 -2.620409e+00 3.084945e+00
-1.372776e+00 -2.038660e+00 3.964559e+00
-2.914415e+00 -1.204601e+00 3.959517e+00
-3.786436e+00 -2.293169e-01 3.234718e+00
-3.984461e+00 7.474134e-01 2.001369e+00
-3.590327e+00 1.531233e+00 5.779728e-01
-2.772586e+00 2.002135e+00 -7.440581e-01
-1.729279e+00 2.160026e+00 -1.812581e+00
-6.436768e-01 2.059071e+00 -2.609491e+00
2.241489e-01 -3.006920e+00 3.806828e+00
-1.294212e+00 -2.359423e+00 4.260302e+00
-2.361168e+00 -1.417648e+00 3.860418e+00
-2.902533e+00 -3.046115e-01 2.793740e+00
-2.930630e+00 8.140406e-01 1.306268e+00
-2.533753e+00 1.717809e+00 -2.466171e-01
-1.856102e+00 2.266564e+00 -1.567584e+00
-1.043934e+00 2.461463e+00 -2.533424e+00
-2.302619e-01 2.355264e+00 -3.143600e+00
-2.874765e-01 -2.602008e+00 3.900775e+00
-1.174925e+00 -2.079058e+00 4.037759e+00
-1.728962e+00 -1.287833e+00 3.424650e+00
-1.916138e+00 -3.361343e-01 2.242182e+00
-1.771401e+00 6.312493e-01 7.384033e-01
-1.384908e+00 1.421535e+00 -7.427712e-01
-8.686113e-01 1.914185e+00 -1.932900e+00
-3.178596e-01 2.104784e+00 -2.737011e+00
1.959477e-01 2.035159e+00 -3.169694e+00
-4.921622e-01 -1.640479e+00 3.340959e+00
-8.707095e-01 -1.348547e+00 3.321083e+00
-1.042784e+00 -8.718364e-01 2.708544e+00
-1.007596e+00 -2.820168e-01 1.657924e+00
-8.033263e-01 3.277293e-01 3.804281e-01
-5.022241e-01 8.360987e-01 -8.386034e-01
-1.774746e-01 1.164499e+00 -1.786166e+00
1.253735e-01 1.307373e+00 -2.396438e+00
3.778452e-01 1.289338e+00 -2.686779e+00
-2.542550e-01 -5.081039e-01 2.336668e+00
-3.341205e-01 -4.283637e-01 2.285322e+00
-3.450042e-01 -2.879884e-01 1.831465e+00
-2.899409e-01 -1.099008e-01 1.085220e+00
-1.875627e-01 7.750754e-02 1.962604e-01
-6.756046e-02 2.376615e-01 -6.401168e-01
4.436220e-02 3.456124e-01 -1.280777e+00
1.354948e-01 3.987766e-01 -1.684389e+00
2.021392e-01 4.045338e-01 -1.866260e+00
3.518595e-01 4.815241e-01 1.181392e+00
3.674898e-01 4.490263e-01 1.154387e+00
3.154863e-01 3.390795e-01 9.229853e-01
2.117581e-01 1.763928e-01 5.446942e-01
7.935525e-02 -7.544455e-03 9.569960e-02
-5.132790e-02 -1.736748e-01 -3.252004e-01
-1.575913e-01 -2.938864e-01 -6.461195e-01
-2.326405e-01 -3.608892e-01 -8.468829e-01
-2.760166e-01 -3.782075e-01 -9.347533e-01
-2.678125e-02 3.024031e+00 1.090893e+00
-2.265189e+00 2.331752e+00 2.364365e+00
-3.752753e+00 1.408984e+00 3.081715e+00
-4.397897e+00 3.207634e-01 3.163019e+00
-4.277601e+00 -7.777895e-01 2.710570e+00
-3.557813e+00 -1.666371e+00 1.918563e+00
-2.458798e+00 -2.209984e+00 9.845741e-01
-1.199578e+00 -2.390339e+00 7.110522e-02
7.553166e-02 -2.223693e+00 -7.112933e-01
8.725829e-01 1.499078e+00 2.003208e+00
-1.567599e+00 1.177692e+00 3.298174e+00
-3.371992e+00 6.943094e-01 3.750197e+00
-4.400766e+00 1.307532e-01 3.478983e+00
-4.645502e+00 -4.336819e-01 2.639843e+00
-4.199721e+00 -8.876348e-01 1.486249e+00
-3.254314e+00 -1.156342e+00 2.797804e-01
-2.039661e+00 -1.248408e+00 -8.190054e-01
-7.764970e-01 -1.206011e+00 -1.754253e+00
1.393667e+00 2.617882e-07 3.246920e+00
-1.049996e+00 1.804999e-07 4.297150e+00
-2.919168e+00 7.503418e-08 4.360507e+00
-4.099555e+00 1.321621e-07 3.608122e+00
-4.544243e+00 1.292165e-07 2.277821e+00
-4.300962e+00 1.225549e-07 7.163740e-01
-3.517441e+00 2.049678e-07 -7.530385e-01
-2.423233e+00 1.521721e-07 -1.975177e+00
-1.233218e+00 1.355277e-07 -2.873111e+00
1.367124e+00 -1.218610e+00 4.499740e+00
-7.452787e-01 -9.208342e-01 5.151540e+00
-2.381112e+00 -5.280965e-01 4.747242e+00
-3.439809e+00 -7.301330e-02 3.496234e+00
-3.880628e+00 3.775266e-01 1.700055e+00
-3.727990e+00 7.347672e-01 -2.066840e-01
-3.103360e+00 9.466917e-01 -1.856840e+00
-2.196751e+00 1.009733e+00 -3.090691e+00
-1.189281e+00 9.460082e-01 -3.874686e+00
8.693321e-01 -1.755335e+00 5.318917e+00
-6.219435e-01 -1.330136e+00 5.579771e+00
-1.759095e+00 -7.650758e-01 4.785867e+00
-2.476030e+00 -1.129135e-01 3.174779e+00
-2.746870e+00 5.332224e-01 1.088840e+00
-2.602036e+00 1.046535e+00 -9.916014e-01
-2.133573e+00 1.349265e+00 -2.680699e+00
-1.477561e+00 1.440301e+00 -3.846124e+00
-7.615120e-01 1.353373e+00 -4.479813e+00
2.706884e-01 -1.457899e+00 5.404229e+00
-5.108981e-01 -1.119624e+00 5.397662e+00
-1.078065e+00 -6.581757e-01 4.425078e+00
-1.396794e+00 -1.198875e-01 2.720595e+00
-1.466646e+00 4.166918e-01 6.271039e-01
-1.320739e+00 8.459686e-01 -1.383810e+00
-1.021223e+00 1.104227e+00 -2.956393e+00
-6.431671e-01 1.189320e+00 -3.978383e+00
-2.508154e-01 1.127854e+00 -4.465574e+00
-2.492402e-02 -5.449736e-01 4.741438e+00
-2.319111e-01 -4.231379e-01 4.640934e+00
-3.663916e-01 -2.540987e-01 3.723974e+00
-4.202899e-01 -5.616182e-02 2.203930e+00
-3.996263e-01 1.429703e-01 3.823761e-01
-3.238247e-01 3.051055e-01 -1.337397e+00
-2.169201e-01 4.058621e-01 -2.656205e+00
-9.968613e-02 4.442351e-01 -3.491535e+00
1.316656e-02 4.291722e-01 -3.865455e+00
1.682454e-01 5.743843e-01 3.603703e+00
2.841954e-01 4.853150e-01 3.523187e+00
3.332765e-01 3.218186e-01 2.820110e+00
3.196047e-01 1.128143e-01 1.664643e+00
2.543970e-01 -1.047383e-01 2.886812e-01
1.588802e-01 -2.851295e-01 -1.004218e+00
5.561845e-02 -4.003467e-01 -1.993482e+00
-4.232293e-02 -4.494186e-01 -2.617104e+00
-1.228005e-01 -4.410003e-01 -2.899662e+00
7.742740e-01 1.557088e+00 2.333447e+00
9.766085e-01 1.352736e+00 2.303573e+00
9.789222e-01 9.359604e-01 1.866640e+00
8.004722e-01 3.880806e-01 1.128641e+00
4.990907e-01 -1.970887e-01 2.404010e-01
1.572133e-01 -6.996413e-01 -5.982701e-01
-1.593845e-01 -1.039805e+00 -1.244029e+00
-4.155100e-01 -1.206615e+00 -1.653666e+00
-6.029662e-01 -1.217308e+00 -1.840349e+00
-3.301034e-01 3.892665e+00 1.963485e+00
-2.178409e+00 3.072377e+00 2.838109e+00
-3.360749e+00 1.884242e+00 3.122304e+00
-3.806657e+00 4.686368e-01 2.807218e+00
-3.592984e+00 -9.624874e-01 2.036290e+00
-2.887010e+00 -2.133165e+00 1.045656e+00
-1.891027e+00 -2.859089e+00 5.602191e-02
-7.915283e-01 -3.128684e+00 -7.999502e-01
2.851224e-01 -2.979966e+00 -1.441540e+00
7.174784e-01 2.620410e+00 3.084946e+00
-1.372776e+00 2.038660e+00 3.964559e+00
-2.914414e+00 1.204601e+00 3.959517e+00
-3.786435e+00 2.293174e-01 3.234718e+00
-3.984460e+00 -7.474128e-01 2.001369e+00
-3.590327e+00 -1.531232e+00 5.779728e-01
-2.772586e+00 -2.002135e+00 -7.440577e-01
-1.729279e+00 -2.160025e+00 -1.812581e+00
-6.436769e-01 -2.059070e+00 -2.609491e+00
1.367124e+00 1.218610e+00 4.499739e+00
-7.452785e-01 9.208348e-01 5.151540e+00
-2.381112e+00 5.280971e-01 4.747241e+00
-3.439809e+00 7.301372e-02 3.496234e+00
-3.880628e+00 -3.775263e-01 1.700055e+00
-3.727990e+00 -7.347669e-01 -2.066838e-01
-3.103360e+00 -9.466914e-01 -1.856841e+00
-2.196751e+00 -1.009733e+00 -3.090691e+00
-1.189281e+00 -9.460077e-01 -3.874686e+00
1.402810e+00 4.022270e-07 5.845760e+00
-3.646320e-01 4.162224e-07 6.161323e+00
-1.764776e+00 3.528115e-07 5.308922e+00
-2.715913e+00 2.111272e-07 3.538240e+00
-3.175980e+00 7.953128e-08 1.227852e+00
-3.142571e+00 4.685616e-08 -1.087327e+00
-2.702820e+00 1.152020e-07 -2.979270e+00
-2.007221e+00 1.058352e-07 -4.285656e+00
-1.200388e+00 8.030935e-08 -5.002232e+00
8.942648e-01 -6.004136e-01 6.672110e+00
-2.101821e-01 -4.459402e-01 6.680081e+00
-1.085483e+00 -2.472376e-01 5.491798e+00
-1.681634e+00 -2.364394e-02 3.382760e+00
-1.971351e+00 1.957765e-01 7.733616e-01
-1.954878e+00 3.683557e-01 -1.745372e+00
-1.686733e+00 4.665161e-01 -3.722894e+00
-1.258403e+00 4.938491e-01 -5.011023e+00
-7.595888e-01 4.602696e-01 -5.627142e+00
2.400917e-01 -3.717023e-01 6.652953e+00
-1.045406e-01 -2.748334e-01 6.510571e+00
-3.723918e-01 -1.525725e-01 5.230241e+00
-5.451734e-01 -1.544993e-02 3.087673e+00
-6.179442e-01 1.190191e-01 5.048192e-01
-5.968426e-01 2.254819e-01 -1.941285e+00
-5.025418e-01 2.879308e-01 -3.824019e+00
-3.635903e-01 3.066786e-01 -5.016223e+00
-2.052083e-01 2.880529e-01 -5.545507e+00
-9.180510e-02 5.085001e-01 5.833534e+00
1.587220e-01 4.001419e-01 5.707021e+00
3.420873e-01 2.415832e-01 4.576471e+00
4.498954e-01 5.040043e-02 2.697900e+00
4.794325e-01 -1.403070e-01 4.451372e-01
4.370332e-01 -2.905573e-01 -1.678961e+00
3.399742e-01 -3.793623e-01 -3.309888e+00
2.153432e-01 -4.068975e-01 -4.343644e+00
8.832049e-02 -3.827549e-01 -4.806521e+00
1.137868e-01 1.624377e+00 4.549396e+00
6.653622e-01 1.305525e+00 4.522425e+00
1.021253e+00 8.103370e-01 3.678368e+00
1.161794e+00 2.100383e-01 2.234858e+00
1.102063e+00 -3.974393e-01 4.887239e-01
8.893188e-01 -8.870659e-01 -1.170271e+00
5.873925e-01 -1.187773e+00 -2.457196e+00
2.551169e-01 -1.299852e+00 -3.287709e+00
-6.057176e-02 -1.250349e+00 -3.692650e+00
7.714862e-01 2.618779e+00 3.189780e+00
1.364217e+00 2.173361e+00 3.239397e+00
1.633921e+00 1.412759e+00 2.709703e+00
1.575578e+00 4.665022e-01 1.731276e+00
1.258397e+00 -5.093777e-01 5.138294e-01
7.949773e-01 -1.321078e+00 -6.616089e-01
2.912600e-01 -1.843741e+00 -1.587611e+00
-1.839437e-01 -2.068794e+00 -2.199270e+00
-5.909199e-01 -2.029775e+00 -2.502097e+00
-8.226378e-01 4.050087e+00 2.510375e+00
-2.129875e+00 3.267325e+00 2.987877e+00
-2.872011e+00 2.056991e+00 2.901466e+00
-3.007154e+00 5.919945e-01 2.290807e+00
-2.631955e+00 -9.075964e-01 1.323093e+00
-1.917027e+00 -2.147108e+00 2.549803e-01
-1.043223e+00 -2.934453e+00 -6.998673e-01
-1.572341e-01 -3.251339e+00 -1.433718e+00
6.582168e-01 -3.150476e+00 -1.910802e+00
2.241489e-01 3.006921e+00 3.806828e+00
-1.294212e+00 2.359424e+00 4.260302e+00
-2.361168e+00 1.417648e+00 3.860418e+00
-2.902533e+00 3.046115e-01 2.793741e+00
-2.930630e+00 -8.140403e-01 1.306268e+00
-2.533753e+00 -1.717808e+00 -2.466168e-01
-1.856102e+00 -2.266564e+00 -1.567584e+00
-1.043934e+00 -2.461462e+00 -2.533424e+00
-2.302620e-01 -2.355263e+00 -3.143600e+00
8.693322e-01 1.755336e+00 5.318918e+00
-6.219433e-01 1.330136e+00 5.579771e+00
-1.759095e+00 7.650759e-01 4.785867e+00
-2.476030e+00 1.129137e-01 3.174779e+00
-2.746870e+00 -5.332219e-01 1.088840e+00
-2.602037e+00 -1.046534e+00 -9.916013e-01
-2.133573e+00 -1.349265e+00 -2.680698e+00
-1.477561e+00 -1.440301e+00 -3.846124e+00
-7.615120e-01 -1.353373e+00 -4.479813e+00
8.942648e-01 6.004140e-01 6.672110e+00
-2.101823e-01 4.459406e-01 6.680082e+00
-1.085483e+00 2.472378e-01 5.491798e+00
-1.681634e+00 2.364424e-02 3.382760e+00
-1.971351e+00 -1.957763e-01 7.733617e-01
-1.954878e+00 -3.683556e-01 -1.745372e+00
-1.686733e+00 -4.665160e-01 -3.722895e+00
-1.258403e+00 -4.938489e-01 -5.011023e+00
-7.595888e-01 -4.602693e-01 -5.627142e+00
3.633952e-01 1.790486e-07 7.397079e+00
-4.424668e-02 6.666898e-08 7.239530e+00
-3.719429e-01 1.701199e-07 5.815266e+00
-5.992544e-01 1.058187e-07 3.427436e+00
-7.150897e-01 5.181349e-08 5.423499e-01
-7.199740e-01 3.182396e-08 -2.195049e+00
-6.325867e-01 -7.879343e-08 -4.300895e+00
-4.846410e-01 -1.157146e-07 -5.637452e+00
-3.060519e-01 -8.759532e-08 -6.229830e+00
-3.038092e-01 2.101611e-01 7.227865e+00
5.808648e-02 1.599695e-01 7.070744e+00
3.461597e-01 9.046241e-02 5.673031e+00
5.483663e-01 1.094715e-02 3.335926e+00
6.521375e-01 -6.730106e-02 5.209682e-01
6.517907e-01 -1.280791e-01 -2.140379e+00
5.637284e-01 -1.611950e-01 -4.187664e+00
4.208609e-01 -1.703868e-01 -5.485008e+00
2.569779e-01 -1.582224e-01 -6.063933e+00
-6.176160e-01 1.098035e+00 6.259614e+00
3.140453e-01 8.368236e-01 6.253375e+00
1.037072e+00 4.822549e-01 5.110778e+00
1.511378e+00 6.970805e-02 3.115774e+00
1.712284e+00 -3.361419e-01 6.796415e-01
1.648935e+00 -6.536066e-01 -1.648627e+00
1.374007e+00 -8.374440e-01 -3.463411e+00
9.745450e-01 -8.893750e-01 -4.651477e+00
5.355853e-01 -8.315701e-01 -5.228528e+00
-3.594798e-01 2.253271e+00 4.891052e+00
8.164096e-01 1.767194e+00 5.061976e+00
1.674233e+00 1.053532e+00 4.271095e+00
2.154002e+00 2.095898e-01 2.765487e+00
2.249590e+00 -6.296466e-01 8.714830e-01
2.011543e+00 -1.295060e+00 -9.775771e-01
1.540560e+00 -1.690048e+00 -2.457125e+00
9.462282e-01 -1.823958e+00 -3.462479e+00
3.347699e-01 -1.737593e+00 -4.019975e+00
3.774744e-01 3.332050e+00 3.528650e+00
1.525075e+00 2.672523e+00 3.781581e+00
2.241153e+00 1.657106e+00 3.339704e+00
2.470156e+00 4.367242e-01 2.321436e+00
2.277063e+00 -7.955098e-01 9.667604e-01
1.782772e+00 -1.794397e+00 -3.937653e-01
1.120374e+00 -2.415250e+00 -1.516151e+00
4.110339e-01 -2.651767e+00 -2.302404e+00
-2.722555e-01 -2.542748e+00 -2.741582e+00
-1.232624e+00 3.495582e+00 2.517810e+00
-1.991315e+00 2.906672e+00 2.705335e+00
-2.290771e+00 1.904817e+00 2.406165e+00
-2.135753e+00 6.552002e-01 1.695022e+00
-1.629255e+00 -6.454135e-01 7.325307e-01
-9.381116e-01 -1.740871e+00 -2.478968e-01
-2.169619e-01 -2.458063e+00 -1.060340e+00
4.373931e-01 -2.777924e+00 -1.633063e+00
9.776716e-01 -2.749013e+00 -1.955885e+00
-2.874764e-01 2.602008e+00 3.900775e+00
-1.174925e+00 2.079058e+00 4.037759e+00
-1.728962e+00 1.287833e+00 3.424651e+00
-1.916139e+00 3.361344e-01 2.242183e+00
-1.771401e+00 -6.312491e-01 7.384035e-01
-1.384908e+00 -1.421535e+00 -7.427711e-01
-8.686114e-01 -1.914185e+00 -1.932900e+00
-3.178599e-01 -2.104783e+00 -2.737011e+00
1.959476e-01 -2.035158e+00 -3.169693e+00
2.706886e-01 1.457899e+00 5.404230e+00
-5.108982e-01 1.119623e+00 5.397663e+00
-1.078065e+00 6.581758e-01 4.425079e+00
-1.396793e+00 1.198879e-01 2.720596e+00
-1.466646e+00 -4.166915e-01 6.271040e-01
-1.320739e+00 -8.459683e-01 -1.383810e+00
-1.021223e+00 -1.104227e+00 -2.956393e+00
-6.431672e-01 -1.189319e+00 -3.978383e+00
-2.508157e-01 -1.127854e+00 -4.465575e+00
2.400917e-01 3.717026e-01 6.652954e+00
-1.045406e-01 2.748337e-01 6.510572e+00
-3.723917e-01 1.525728e-01 5.230242e+00
-5.451734e-01 1.545005e-02 3.087673e+00
-6.179443e-01 -1.190189e-01 5.048195e-01
-5.968427e-01 -2.254817e-01 -1.941285e+00
-5.025419e-01 -2.879306e-01 -3.824019e+00
-3.635904e-01 -3.066783e-01 -5.016223e+00
-2.052083e-01 -2.880526e-01 -5.545507e+00
-3.038092e-01 -2.101612e-01 7.227865e+00
5.808663e-02 -1.599693e-01 7.070744e+00
3.461599e-01 -9.046226e-02 5.673031e+00
5.483665e-01 -1.094698e-02 3.335926e+00
6.521376e-01 6.730120e-02 5.209683e-01
6.517907e-01 1.280792e-01 -2.140379e+00
5.637284e-01 1.611950e-01 -4.187665e+00
4.208609e-01 1.703868e-01 -5.485009e+00
2.569779e-01 1.582223e-01 -6.063933e+00
-9.559683e-01 1.477128e-07 6.916661e+00
1.525620e-01 1.181219e-07 6.919713e+00
1.042353e+00 7.701055e-08 5.666480e+00
1.664234e+00 1.240993e-07 3.456910e+00
1.983095e+00 3.841306e-08 7.481427e-01
1.986880e+00 3.348997e-08 -1.846362e+00
1.728235e+00 9.145958e-08 -3.877219e+00
1.304317e+00 1.031189e-07 -5.205410e+00
8.089438e-01 9.038960e-08 -5.852904e+00
-1.246578e+00 9.173999e-01 5.888973e+00
3.902969e-01 6.930396e-01 6.154597e+00
1.688491e+00 3.948109e-01 5.239534e+00
2.566129e+00 4.822369e-02 3.422185e+00
2.975661e+00 -2.906058e-01 1.104541e+00
2.919184e+00 -5.541794e-01 -1.175826e+00
2.484475e+00 -7.081761e-01 -3.019342e+00
1.819504e+00 -7.524065e-01 -4.291472e+00
1.065678e+00 -7.020780e-01 -4.993686e+00
-9.601064e-01 2.166707e+00 4.539938e+00
8.655960e-01 1.678396e+00 5.046491e+00
2.267962e+00 9.781562e-01 4.520384e+00
3.131559e+00 1.618384e-01 3.207187e+00
3.427495e+00 -6.439275e-01 1.423403e+00
3.200502e+00 -1.275674e+00 -4.057290e-01
2.582738e+00 -1.646296e+00 -1.947446e+00
1.741786e+00 -1.762518e+00 -3.071790e+00
8.349515e-01 -1.672684e+00 -3.798787e+00
-1.929787e-01 3.406774e+00 3.276651e+00
1.560827e+00 2.666427e+00 3.858140e+00
2.776831e+00 1.602190e+00 3.687253e+00
3.358521e+00 3.461421e-01 2.847121e+00
3.349600e+00 -9.013018e-01 1.574073e+00
2.869590e+00 -1.898388e+00 2.012011e-01
2.078538e+00 -2.499016e+00 -1.006148e+00
1.138736e+00 -2.707096e+00 -1.930532e+00
1.727703e-01 -2.548884e+00 -2.521296e+00
-1.322970e+00 2.483785e+00 1.976153e+00
-1.651266e+00 2.146989e+00 2.007913e+00
-1.642062e+00 1.482972e+00 1.688340e+00
-1.328350e+00 6.156453e-01 1.090428e+00
-8.073969e-01 -3.123290e-01 3.384918e-01
-2.204228e-01 -1.113651e+00 -3.935364e-01
3.160460e-01 -1.660571e+00 -9.741903e-01
7.439215e-01 -1.933764e+00 -1.359045e+00
1.049221e+00 -1.964895e+00 -1.552696e+00
-4.921621e-01 1.640479e+00 3.340959e+00
-8.707095e-01 1.348547e+00 3.321084e+00