<?xml version="1.0"?>
<VTKFile type="StructuredGrid" version="0.1">
  <StructuredGrid WholeExtent="0 8 0 8 0 8">
    <Piece Extent="0 8 0 8 0 8">
      <PointData Scalars="temperature" Vectors="velocity">
        <DataArray type="Float32" Name="temperature" format="ascii">
1.000000e+00
8.682942e-01
7.435429e-01
6.192021e-01
4.946864e-01
3.699748e-01
2.451617e-01
1.206735e-01
0.000000e+00
1.000000e+00
8.685226e-01
7.439814e-01
6.200338e-01
4.958909e-01
3.706895e-01
2.454739e-01
1.208054e-01
0.000000e+00
1.000000e+00
8.689882e-01
7.448878e-01
6.217667e-01
4.984722e-01
3.721995e-01
2.461263e-01
1.210765e-01
0.000000e+00
1.000000e+00
8.696728e-01
7.462138e-01
6.242940e-01
5.022999e-01
3.744485e-01
2.470946e-01
1.214771e-01
0.000000e+00
1.000000e+00
8.704703e-01
7.477482e-01
6.272053e-01
5.067968e-01
3.771083e-01
2.482325e-01
1.219439e-01
0.000000e+00
1.000000e+00
8.712188e-01
7.491795e-01
6.299128e-01
5.110722e-01
3.796475e-01
2.493074e-01
1.223774e-01
0.000000e+00
1.000000e+00
8.717641e-01
7.502210e-01
6.318837e-01
5.142601e-01
3.815277e-01
2.500860e-01
1.226812e-01
0.000000e+00
1.000000e+00
8.720240e-01
7.506841e-01
6.327993e-01
5.158390e-01
3.823943e-01
2.504049e-01
1.228140e-01
0.000000e+00
1.000000e+00
8.707939e-01
7.495220e-01
6.316469e-01
5.145590e-01
3.810196e-01
2.491313e-01
1.216169e-01
0.000000e+00
1.000000e+00
8.681632e-01
7.432962e-01
6.187457e-01
4.940489e-01
3.696015e-01
2.450067e-01
1.206172e-01
0.000000e+00
1.000000e+00
8.683955e-01
7.437406e-01
6.195871e-01
4.952667e-01
3.703162e-01
2.453132e-01
1.207406e-01
0.000000e+00
1.000000e+00
8.688889e-01
7.446951e-01
6.214106e-01
4.980158e-01
3.718964e-01
2.459956e-01
1.210249e-01
0.000000e+00
1.000000e+00
8.696263e-01
7.461116e-01
6.241043e-01
5.021482e-01
3.742842e-01
2.470248e-01
1.214539e-01
0.000000e+00
1.000000e+00
8.704843e-01
7.477445e-01
6.271893e-01
5.069648e-01
3.770966e-01
2.482319e-01
1.219541e-01
0.000000e+00
1.000000e+00
8.712710e-01
7.492302e-01
6.299805e-01
5.113865e-01
3.797150e-01
2.493483e-01
1.224127e-01
0.000000e+00
1.000000e+00
8.718139e-01
7.502442e-01
6.318818e-01
5.144158e-01
3.815355e-01
2.501148e-01
1.227217e-01
0.000000e+00
1.000000e+00
8.719455e-01
7.505491e-01
6.325370e-01
5.154980e-01
3.821613e-01
2.503398e-01
1.227992e-01
0.000000e+00
1.000000e+00
8.718504e-01
7.503651e-01
6.322072e-01
5.148322e-01
3.818246e-01
2.501674e-01
1.227195e-01
0.000000e+00
1.000000e+00
8.677654e-01
7.425288e-01
6.173021e-01
4.919730e-01
3.684035e-01
2.444836e-01
1.203943e-01
0.000000e+00
1.000000e+00
8.679782e-01
7.429369e-01
6.180718e-01
4.930398e-01
3.690503e-01
2.447638e-01
1.205095e-01
0.000000e+00
1.000000e+00
8.684702e-01
7.438932e-01
6.199032e-01
4.957805e-01
3.706122e-01
2.454379e-01
1.207900e-01
0.000000e+00
1.000000e+00
8.692393e-01
7.453717e-01
6.227152e-01
5.000562e-01
3.730622e-01
2.464918e-01
1.212288e-01
0.000000e+00
1.000000e+00
8.701442e-01
7.470923e-01
6.259609e-01
5.050814e-01
3.759708e-01
2.477379e-01
1.217453e-01
0.000000e+00
1.000000e+00
8.709616e-01
7.486344e-01
6.288521e-01
5.096222e-01
3.786414e-01
2.488772e-01
1.222141e-01
0.000000e+00
1.000000e+00
8.714887e-01
7.496277e-01
6.307201e-01
5.125702e-01
3.804132e-01
2.496313e-01
1.225202e-01
0.000000e+00
1.000000e+00
8.716432e-01
7.499252e-01
6.312849e-01
5.134543e-01
3.809557e-01
2.498679e-01
1.226204e-01
0.000000e+00
1.000000e+00
8.714258e-01
7.495942e-01
6.307175e-01
5.123659e-01
3.804099e-01
2.496143e-01
1.224907e-01
0.000000e+00
1.000000e+00
8.671020e-01
7.412446e-01
6.148788e-01
4.884907e-01
3.664270e-01
2.436164e-01
1.200208e-01
0.000000e+00
1.000000e+00
8.672726e-01
7.415695e-01
6.154822e-01
4.892373e-01
3.669261e-01
2.438388e-01
1.201159e-01
0.000000e+00
1.000000e+00
8.677249e-01
7.424621e-01
6.172028e-01
4.917818e-01
3.683575e-01
2.444603e-01
1.203765e-01
0.000000e+00
1.000000e+00
8.684904e-01
7.439444e-01
6.200316e-01
4.960201e-01
3.707521e-01
2.454935e-01
1.208093e-01
0.000000e+00
1.000000e+00
8.694205e-01
7.457206e-01
6.233851e-01
5.011360e-01
3.736662e-01
2.467442e-01
1.213315e-01
0.000000e+00
1.000000e+00
8.702700e-01
7.473285e-01
6.264002e-01
5.057983e-01
3.763683e-01
2.479008e-01
1.218115e-01
0.000000e+00
1.000000e+00
8.708177e-01
7.483641e-01
6.283452e-01
5.088128e-01
3.781636e-01
2.486728e-01
1.221298e-01
0.000000e+00
1.000000e+00
8.709693e-01
7.486626e-01
6.289151e-01
5.096824e-01
3.787020e-01
2.489146e-01
1.222336e-01
0.000000e+00
1.000000e+00
8.707679e-01
7.483346e-01
6.283319e-01
5.085607e-01
3.781596e-01
2.486735e-01
1.221183e-01
0.000000e+00
1.000000e+00
8.662599e-01
7.396090e-01
6.117876e-01
4.840842e-01
3.639715e-01
2.425333e-01
1.195485e-01
0.000000e+00
1.000000e+00
8.663823e-01
7.398346e-01
6.121875e-01
4.844512e-01
3.642997e-01
2.426898e-01
1.196228e-01
0.000000e+00
1.000000e+00
8.667765e-01
7.406289e-01
6.137320e-01
4.866948e-01
3.655465e-01
2.432378e-01
1.198552e-01
0.000000e+00
1.000000e+00
8.675133e-01
7.420711e-01
6.164991e-01
4.907560e-01
3.678076e-01
2.442207e-01
1.202706e-01
0.000000e+00
1.000000e+00
8.684474e-01
7.438686e-01
6.199027e-01
4.958437e-01
3.706539e-01
2.454489e-01
1.207886e-01
0.000000e+00
1.000000e+00
8.693260e-01
7.455414e-01
6.230462e-01
5.006083e-01
3.733632e-01
2.466141e-01
1.212772e-01
0.000000e+00
1.000000e+00
8.699176e-01
7.466636e-01
6.251520e-01
5.038102e-01
3.752308e-01
2.474201e-01
1.216134e-01
0.000000e+00
1.000000e+00
8.701212e-01
7.470555e-01
6.258879e-01
5.049135e-01
3.758944e-01
2.477147e-01
1.217390e-01
0.000000e+00
1.000000e+00
8.699805e-01
7.468209e-01
6.254590e-01
5.040805e-01
3.755073e-01
2.475454e-01
1.216602e-01
0.000000e+00
1.000000e+00
8.653968e-01
7.379297e-01
6.086093e-01
4.795983e-01
3.615244e-01
2.414481e-01
1.190710e-01
0.000000e+00
1.000000e+00
8.654959e-01
7.380949e-01
6.088748e-01
4.797187e-01
3.617424e-01
2.415663e-01
1.191370e-01
0.000000e+00
1.000000e+00
8.658490e-01
7.388177e-01
6.102850e-01
4.817258e-01
3.628435e-01
2.420565e-01
1.193478e-01
0.000000e+00
1.000000e+00
8.665559e-01
7.402145e-01
6.129731e-01
4.855878e-01
3.649623e-01
2.429849e-01
1.197444e-01
0.000000e+00
1.000000e+00
8.674794e-01
7.420057e-01
6.163732e-01
4.905656e-01
3.677006e-01
2.441745e-01
1.202513e-01
0.000000e+00
1.000000e+00
8.683732e-01
7.437202e-01
6.196043e-01
4.953668e-01
3.703811e-01
2.453335e-01
1.207423e-01
0.000000e+00
1.000000e+00
8.690099e-01
7.449339e-01
6.218835e-01
4.987737e-01
3.723244e-01
2.461735e-01
1.210959e-01
0.000000e+00
1.000000e+00
8.692840e-01
7.454565e-01
6.228591e-01
5.002191e-01
3.731678e-01
2.465422e-01
1.212519e-01
0.000000e+00
1.000000e+00
8.692261e-01
7.453600e-01
6.226769e-01
4.998332e-01
3.730062e-01
2.464722e-01
1.212183e-01
0.000000e+00
1.000000e+00
8.646822e-01
7.365427e-01
6.059823e-01
4.759197e-01
3.595656e-01
2.405800e-01
1.186840e-01
0.000000e+00
1.000000e+00
8.648087e-01
7.367367e-01
6.062791e-01
4.760858e-01
3.597981e-01
2.407146e-01
1.187708e-01
0.000000e+00
1.000000e+00
8.651654e-01
7.374664e-01
6.076910e-01
4.780606e-01
3.608597e-01
2.411849e-01
1.189739e-01
0.000000e+00
1.000000e+00
8.658655e-01
7.388504e-01
6.103466e-01
4.818132e-01
3.628893e-01
2.420770e-01
1.193570e-01
0.000000e+00
1.000000e+00
8.667685e-01
7.406139e-01
6.137015e-01
4.866471e-01
3.655175e-01
2.432258e-01
1.198507e-01
0.000000e+00
1.000000e+00
8.676526e-01
7.423232e-01
6.169364e-01
4.913806e-01
3.681297e-01
2.443620e-01
1.203356e-01
0.000000e+00
1.000000e+00
8.683096e-01
7.435848e-01
6.193142e-01
4.948881e-01
3.701018e-01
2.452169e-01
1.206977e-01
0.000000e+00
1.000000e+00
8.686377e-01
7.442114e-01
6.204874e-01
4.966091e-01
3.710891e-01
2.456456e-01
1.208782e-01
0.000000e+00
1.000000e+00
8.686519e-01
7.442412e-01
6.205380e-01
4.966292e-01
3.711293e-01
2.456632e-01
1.208835e-01
0.000000e+00
1.000000e+00
8.642037e-01
7.356357e-01
6.043399e-01
4.736288e-01
3.583991e-01
2.400886e-01
1.185035e-01
0.000000e+00
1.000000e+00
8.643476e-01
7.359103e-01
6.048058e-01
4.741051e-01
3.587371e-01
2.402402e-01
1.185651e-01
0.000000e+00
1.000000e+00
8.648543e-01
7.368277e-01
6.064543e-01
4.763308e-01
3.599283e-01
2.407725e-01
1.187965e-01
0.000000e+00
1.000000e+00
8.655636e-01
7.382297e-01
6.091328e-01
4.800861e-01
3.619380e-01
2.416534e-01
1.191756e-01
0.000000e+00
1.000000e+00
8.664395e-01
7.399484e-01
6.124048e-01
4.847672e-01
3.644683e-01
2.427649e-01
1.196563e-01
0.000000e+00
1.000000e+00
8.672872e-01
7.416001e-01
6.155406e-01
4.893257e-01
3.669695e-01
2.438589e-01
1.201258e-01
0.000000e+00
1.000000e+00
8.679291e-01
7.428434e-01
6.178934e-01
4.927776e-01
3.688957e-01
2.446972e-01
1.204826e-01
0.000000e+00
1.000000e+00
8.682761e-01
7.435109e-01
6.191493e-01
4.946134e-01
3.699395e-01
2.451501e-01
1.206730e-01
0.000000e+00
1.000000e+00
8.683336e-01
7.436197e-01
6.193491e-01
4.948837e-01
3.701048e-01
2.452220e-01
1.207019e-01
0.000000e+00
1.000000e+00
8.627655e-01
7.341756e-01
6.026240e-01
4.718261e-01
3.570409e-01
2.388606e-01
1.173773e-01
0.000000e+00
1.000000e+00
8.642590e-01
7.357441e-01
6.045478e-01
4.739332e-01
3.585484e-01
2.401536e-01
1.185311e-01
0.000000e+00
1.000000e+00
8.647876e-01
7.367500e-01
6.063785e-01
4.764810e-01
3.598576e-01
2.407079e-01
1.187390e-01
0.000000e+00
1.000000e+00
8.655333e-01
7.381980e-01
6.091209e-01
4.803239e-01
3.619123e-01
2.416183e-01
1.191442e-01
0.000000e+00
1.000000e+00
8.664020e-01
7.398872e-01
6.123166e-01
4.848406e-01
3.643855e-01
2.427144e-01
1.196261e-01
0.000000e+00
1.000000e+00
8.672234e-01
7.414806e-01
6.153262e-01
4.891362e-01
3.667875e-01
2.437733e-01
1.200874e-01
0.000000e+00
1.000000e+00
8.678460e-01
7.426840e-01
6.175946e-01
4.923964e-01
3.686437e-01
2.445873e-01
1.204375e-01
0.000000e+00
1.000000e+00
8.681937e-01
7.433525e-01
6.188490e-01
4.941940e-01
3.696855e-01
2.450416e-01
1.206301e-01
0.000000e+00
1.000000e+00
8.682640e-01
7.434908e-01
6.191092e-01
4.945524e-01
3.699008e-01
2.451325e-01
1.206644e-01
0.000000e+00
        </DataArray>
        <DataArray type="Float32" Name="velocity" NumberOfComponents="3" format="ascii">
7.3724e-01 4.5889e-08 -3.6218e-02
7.2287e-01 9.8105e-08 -2.2485e-03
5.8099e-01 4.5902e-08 2.7309e-02
3.4699e-01 1.8939e-08 4.6239e-02
6.7552e-02 -3.2156e-09 5.5376e-02
-1.9537e-01 2.1712e-09 5.5460e-02
-3.9651e-01 -1.6459e-08 4.9129e-02
-5.2295e-01 -2.8864e-08 3.8737e-02
-5.8041e-01 -1.0295e-08 2.8513e-02
2.2536e+00 1.3965e-07 -3.5544e-01
2.2270e+00 6.9693e-08 -1.4866e-01
1.8118e+00 9.9746e-08 5.5244e-02
1.1053e+00 -7.2179e-09 2.2543e-01
2.5030e-01 1.6314e-08 3.4790e-01
-5.6217e-01 -1.0502e-08 4.1110e-01
-1.1904e+00 -6.7002e-09 4.1263e-01
-1.5923e+00 6.4661e-08 3.6412e-01
-1.7808e+00 2.1738e-08 2.8087e-01
3.5260e+00 1.0136e-08 -9.8909e-01
3.5748e+00 1.9053e-07 -4.2093e-01
2.9954e+00 -7.2797e-08 1.3738e-01
1.9240e+00 4.5429e-08 6.1004e-01
5.8253e-01 -2.2321e-08 9.5731e-01
-7.1989e-01 -9.3575e-09 1.1392e+00
-1.7504e+00 4.0756e-08 1.1465e+00
-2.4309e+00 -1.7971e-08 1.0128e+00
-2.7714e+00 1.2236e-07 7.7742e-01
4.2201e+00 1.5575e-07 -1.7746e+00
4.5045e+00 -7.4212e-08 -7.0674e-01
3.9770e+00 5.1433e-08 3.1995e-01
2.7723e+00 -1.0370e-07 1.1811e+00
1.1595e+00 -2.8605e-08 1.8031e+00
-4.7387e-01 -3.9810e-08 2.1159e+00
-1.8205e+00 -7.9669e-08 2.1063e+00
-2.7628e+00 5.1257e-09 1.8367e+00
-3.2886e+00 -9.2086e-08 1.3828e+00
4.1244e+00 -2.5366e-07 -2.3986e+00
4.8267e+00 -9.4962e-10 -8.1508e-01
4.6194e+00 -1.4027e-07 6.5385e-01
3.5848e+00 6.2512e-08 1.8504e+00
1.9958e+00 -1.1318e-07 2.6833e+00
2.6584e-01 -1.6349e-07 3.0622e+00
-1.2630e+00 -1.8307e-07 2.9818e+00
-2.4231e+00 -2.9206e-07 2.5405e+00
-3.1646e+00 -1.9949e-07 1.8404e+00
3.2799e+00 -4.0837e-08 -2.5217e+00
4.5354e+00 -3.8595e-07 -5.6374e-01
4.8579e+00 -2.1426e-07 1.1562e+00
4.2593e+00 -1.4444e-07 2.4908e+00
2.9746e+00 -6.4220e-08 3.3466e+00
1.3814e+00 -2.2740e-07 3.6512e+00
-1.7379e-01 -3.8044e-07 3.4245e+00
-1.4898e+00 -4.7285e-07 2.7967e+00
-2.4541e+00 -6.5265e-07 1.8868e+00
2.0044e+00 -3.3480e-07 -1.9829e+00
3.7980e+00 -2.0742e-07 1.1156e-01
4.7212e+00 -4.2005e-07 1.8017e+00
4.6866e+00 -2.7012e-07 2.9874e+00
3.8675e+00 -3.1827e-07 3.6223e+00
2.5766e+00 -3.7714e-07 3.6809e+00
1.1234e+00 -4.6391e-07 3.2353e+00
-2.5300e-01 -5.9188e-07 2.4323e+00
-1.3993e+00 -5.2859e-07 1.3843e+00
6.6506e-01 -3.1546e-07 -8.3305e-01
2.8852e+00 -4.0653e-07 1.1258e+00
4.3079e+00 -3.0129e-07 2.4922e+00
4.7883e+00 -5.2659e-07 3.2757e+00
4.4485e+00 -4.1730e-07 3.4700e+00
3.5055e+00 -4.0888e-07 3.1421e+00
2.2297e+00 -4.8068e-07 2.4336e+00
8.7161e-01 -4.2780e-07 1.5180e+00
-3.5669e-01 -4.7944e-07 4.4678e-01
-4.4912e-01 -4.8437e-07 7.0629e-01
2.0882e+00 -4.1805e-07 2.2984e+00
3.7670e+00 -4.9654e-07 3.1685e+00
4.6056e+00 -4.4128e-07 3.3769e+00
4.6184e+00 -4.0837e-07 2.9941e+00
3.9691e+00 -4.2485e-07 2.2100e+00
2.8858e+00 -4.0791e-07 1.2356e+00
1.6049e+00 -4.4318e-07 2.4025e-01
3.9162e-01 -4.9831e-07 -6.1586e-01
7.4078e-01 -1.6131e+00 1.3764e-01
7.2168e-01 -1.5801e+00 7.9144e-02
5.7591e-01 -1.2672e+00 1.2946e-02
3.3913e-01 -7.5232e-01 -5.0598e-02
5.8255e-02 -1.3994e-01 -1.0348e-01
-2.0475e-01 4.3483e-01 -1.3759e-01
-4.0493e-01 8.7365e-01 -1.4846e-01
-5.2957e-01 1.1493e+00 -1.3720e-01
-5.8461e-01 1.2708e+00 -1.0839e-01
2.3205e+00 -1.6962e+00 -1.8503e-01
2.2821e+00 -1.6462e+00 -6.7969e-02
1.8436e+00 -1.3040e+00 4.2130e-02
1.1094e+00 -7.5541e-01 1.3173e-01
2.2729e-01 -1.1014e-01 1.9356e-01
-6.0745e-01 4.9151e-01 2.2248e-01
-1.2502e+00 9.4811e-01 2.1920e-01
-1.6587e+00 1.2318e+00 1.9120e-01
-1.8474e+00 1.3550e+00 1.4679e-01
3.6323e+00 -1.7965e+00 -8.4770e-01
3.6765e+00 -1.7094e+00 -3.4812e-01
3.0645e+00 -1.3174e+00 1.3296e-01
1.9507e+00 -7.1991e-01 5.4368e-01
5.6269e-01 -3.2656e-02 8.4286e-01
-7.8256e-01 5.9878e-01 9.9405e-01
-1.8439e+00 1.0706e+00 9.9383e-01
-2.5439e+00 1.3556e+00 8.7247e-01
-2.8925e+00 1.4732e+00 6.6997e-01
4.2867e+00 -1.8960e+00 -1.6580e+00
4.6047e+00 -1.7557e+00 -6.3121e-01
4.0624e+00 -1.2974e+00 3.4195e-01
2.8298e+00 -6.4214e-01 1.1623e+00
1.1777e+00 8.8038e-02 1.7507e+00
-5.0021e-01 7.4529e-01 2.0340e+00
-1.8885e+00 1.2237e+00 2.0079e+00
-2.8646e+00 1.5004e+00 1.7393e+00
-3.4222e+00 1.6082e+00 1.3117e+00
4.0431e+00 -1.9590e+00 -2.2371e+00
4.8575e+00 -1.7585e+00 -6.9528e-01
4.6806e+00 -1.2357e+00 7.2218e-01
3.6701e+00 -5.3202e-01 1.8796e+00
2.0869e+00 2.2697e-01 2.6711e+00
3.3625e-01 8.9353e-01 3.0074e+00
-1.2268e+00 1.3647e+00 2.8955e+00
-2.4379e+00 1.6212e+00 2.4425e+00
-3.2533e+00 1.7134e+00 1.7816e+00
3.0035e+00 -1.9393e+00 -2.2041e+00
4.4403e+00 -1.6924e+00 -3.4183e-01
4.8502e+00 -1.1298e+00 1.2916e+00
4.3434e+00 -4.0877e-01 2.5402e+00
3.1301e+00 3.4632e-01 3.3108e+00
1.5650e+00 9.9452e-01 3.5350e+00
-4.7484e-03 1.4379e+00 3.2553e+00
-1.3697e+00 1.6648e+00 2.6128e+00
-2.4494e+00 1.7392e+00 1.7747e+00
1.5693e+00 -1.8222e+00 -1.4074e+00
3.5837e+00 -1.5455e+00 4.7588e-01
4.6155e+00 -9.8574e-01 1.9996e+00
4.7173e+00 -2.9270e-01 3.0197e+00
4.0250e+00 4.1721e-01 3.4891e+00
2.8083e+00 1.0134e+00 3.4139e+00
1.3773e+00 1.4078e+00 2.8878e+00
-4.3822e-02 1.5958e+00 2.0798e+00
-1.3239e+00 1.6409e+00 1.1711e+00
2.2280e-01 -1.5933e+00 -3.5971e-02
2.6019e+00 -1.3460e+00 1.6212e+00
4.1074e+00 -8.2325e-01 2.7573e+00
4.7268e+00 -1.9847e-01 3.2823e+00
4.5304e+00 4.2956e-01 3.2292e+00
3.6952e+00 9.4537e-01 2.7106e+00
2.4787e+00 1.2744e+00 1.9004e+00
1.1209e+00 1.4137e+00 9.6701e-01
-2.3367e-01 1.4687e+00 7.2441e-02
-7.4046e-01 -1.4892e+00 1.5988e+00
1.7437e+00 -1.0931e+00 2.8832e+00
3.5112e+00 -6.5090e-01 3.4956e+00
4.4602e+00 -1.1741e-01 3.3908e+00
4.6201e+00 4.1092e-01 2.7196e+00
4.1062e+00 8.3112e-01 1.7153e+00
3.1185e+00 1.0803e+00 6.1639e-01
1.8933e+00 1.1569e+00 -4.0498e-01
5.8077e-01 1.0048e+00 -1.2230e+00
7.5131e-01 -3.0988e+00 6.7122e-01
7.1754e-01 -3.0898e+00 3.1678e-01
5.5960e-01 -2.5334e+00 -4.5866e-02
3.1441e-01 -1.5653e+00 -3.6403e-01
2.9297e-02 -3.8681e-01 -6.0656e-01
-2.3365e-01 7.3413e-01 -7.4166e-01
-4.3024e-01 1.6045e+00 -7.5864e-01
-5.4905e-01 2.1642e+00 -6.7887e-01
-5.9680e-01 2.4271e+00 -5.2531e-01
2.4217e+00 -3.2544e+00 3.7933e-01
2.3371e+00 -3.2181e+00 1.8092e-01
1.8432e+00 -2.6096e+00 -2.2092e-02
1.0564e+00 -1.5797e+00 -2.0581e-01
1.3211e-01 -3.3779e-01 -3.4693e-01
-7.2842e-01 8.3820e-01 -4.2368e-01
-1.3806e+00 1.7451e+00 -4.3175e-01
-1.7845e+00 2.3251e+00 -3.8326e-01
-1.9619e+00 2.5945e+00 -2.9715e-01
3.8266e+00 -3.4656e+00 -2.8185e-01
3.7878e+00 -3.3444e+00 -9.6925e-02
3.0807e+00 -2.6378e+00 7.0164e-02
1.8709e+00 -1.5084e+00 2.0653e-01
4.0060e-01 -1.7799e-01 3.0137e-01
-1.0005e+00 1.0629e+00 3.4561e-01
-2.0856e+00 2.0020e+00 3.3983e-01
-2.7833e+00 2.5849e+00 2.9517e-01
-3.1076e+00 2.8317e+00 2.2445e-01
4.5261e+00 -3.6953e+00 -1.1072e+00
4.7379e+00 -3.4371e+00 -3.7069e-01
4.0782e+00 -2.5926e+00 2.9835e-01
2.7255e+00 -1.3410e+00 8.5110e-01
9.6857e-01 8.5329e-02 1.2373e+00
-7.8048e-01 1.3833e+00 1.4119e+00
-2.2008e+00 2.3366e+00 1.3760e+00
-3.1731e+00 2.8986e+00 1.1780e+00
-3.6902e+00 3.1027e+00 8.7798e-01
4.2415e+00 -3.8479e+00 -1.6734e+00
4.9518e+00 -3.4376e+00 -3.9772e-01
4.6624e+00 -2.4560e+00 7.2017e-01
3.5396e+00 -1.0996e+00 1.6067e+00
1.8619e+00 3.9091e-01 2.1871e+00
5.0101e-02 1.7120e+00 2.4036e+00
-1.5370e+00 2.6464e+00 2.2708e+00
-2.7378e+00 3.1642e+00 1.8805e+00
-3.5002e+00 3.3130e+00 1.3402e+00
3.1038e+00 -3.8211e+00 -1.5603e+00
4.4473e+00 -3.2867e+00 3.1799e-02
4.7645e+00 -2.2217e+00 1.3442e+00
4.1733e+00 -8.3144e-01 2.2967e+00
2.9001e+00 6.5046e-01 2.8267e+00
1.3064e+00 1.9291e+00 2.9048e+00
-2.6495e-01 2.8021e+00 2.5874e+00
-1.6076e+00 3.2500e+00 2.0015e+00
-2.6202e+00 3.3367e+00 1.2814e+00
1.5977e+00 -3.5502e+00 -6.4710e-01
3.5040e+00 -2.9682e+00 9.4120e-01
4.4433e+00 -1.9125e+00 2.1103e+00
4.4830e+00 -5.8396e-01 2.7962e+00
3.7672e+00 7.9309e-01 2.9834e+00
2.5608e+00 1.9547e+00 2.7262e+00
1.1598e+00 2.7181e+00 2.1389e+00
-2.1805e-01 3.0859e+00 1.3776e+00
-1.4155e+00 3.1215e+00 5.8179e-01
2.6622e-01 -3.1085e+00 8.1129e-01
2.4634e+00 -2.5405e+00 2.1576e+00
3.8534e+00 -1.5591e+00 2.9238e+00
4.4161e+00 -3.7999e-01 3.0895e+00
4.2178e+00 8.1301e-01 2.7241e+00
3.4249e+00 1.7937e+00 1.9951e+00
2.2731e+00 2.4110e+00 1.1010e+00
9.8556e-01 2.6690e+00 1.9135e-01
-2.7591e-01 2.6665e+00 -6.2158e-01
-6.3533e-01 -2.6858e+00 2.5118e+00
1.5852e+00 -2.0396e+00 3.4560e+00
3.1892e+00 -1.2058e+00 3.6907e+00
4.0442e+00 -2.3499e-01 3.2190e+00
4.1856e+00 7.3775e-01 2.2235e+00
3.7228e+00 1.5176e+00 9.9854e-01
2.8297e+00 1.9868e+00 -1.9563e-01
1.7097e+00 2.1302e+00 -1.1983e+00
5.1189e-01 1.9611e+00 -1.9327e+00
7.6341e-01 -4.0995e+00 1.4559e+00
7.0621e-01 -4.2539e+00 6.2675e-01
5.2997e-01 -3.6408e+00 -1.9167e-01
2.7303e-01 -2.4163e+00 -8.9396e-01
-1.6620e-02 -8.5253e-01 -1.4118e+00
-2.7730e-01 6.8228e-01 -1.6816e+00
-4.6648e-01 1.9127e+00 -1.6901e+00
-5.7479e-01 2.7469e+00 -1.4865e+00
-6.1057e-01 3.1822e+00 -1.1293e+00
2.5380e+00 -4.2544e+00 1.2089e+00
2.3777e+00 -4.4002e+00 4.9906e-01
1.7986e+00 -3.7376e+00 -1.9038e-01
9.4003e-01 -2.4507e+00 -7.8643e-01
-3.2652e-02 -8.1762e-01 -1.2233e+00
-9.1531e-01 7.8174e-01 -1.4401e+00
-1.5648e+00 2.0631e+00 -1.4323e+00
-1.9499e+00 2.9297e+00 -1.2486e+00
-2.1066e+00 3.3900e+00 -9.4859e-01
4.0778e+00 -4.5314e+00 5.7254e-01
3.8829e+00 -4.5555e+00 2.1734e-01
3.0184e+00 -3.7624e+00 -1.1696e-01
1.6696e+00 -2.3440e+00 -4.0437e-01
9.6060e-02 -5.9365e-01 -6.1220e-01
-1.3579e+00 1.0897e+00 -7.1060e-01
-2.4473e+00 2.4124e+00 -6.9754e-01
-3.1131e+00 3.2792e+00 -5.9925e-01
-3.3850e+00 3.6976e+00 -4.4867e-01
4.8964e+00 -4.8745e+00 -2.5305e-01
4.8710e+00 -4.6761e+00 -5.8366e-02
3.9827e+00 -3.6744e+00 1.0879e-01
2.4300e+00 -2.0759e+00 2.3753e-01
5.2530e-01 -1.8866e-01 3.2014e-01
-1.2996e+00 1.5723e+00 3.5088e-01
-2.7220e+00 2.9058e+00 3.3328e-01
-3.6407e+00 3.7285e+00 2.7976e-01
-4.0704e+00 4.0677e+00 2.0340e-01
4.6734e+00 -5.1374e+00 -8.2568e-01
5.0823e+00 -4.6708e+00 -7.7112e-02
4.5137e+00 -3.4468e+00 5.4907e-01
3.1539e+00 -1.6848e+00 1.0150e+00
1.3068e+00 3.0112e-01 1.2914e+00
-5.8394e-01 2.0900e+00 1.3593e+00
-2.1599e+00 3.3860e+00 1.2392e+00
-3.2779e+00 4.1226e+00 9.8973e-01
-3.9169e+00 4.3516e+00 6.6956e-01
3.5356e+00 -5.1267e+00 -7.1056e-01
4.5371e+00 -4.4457e+00 3.7490e-01
4.5461e+00 -3.0790e+00 1.2077e+00
3.7052e+00 -1.2540e+00 1.7436e+00
2.2659e+00 7.2249e-01 1.9659e+00
6.0744e-01 2.4460e+00 1.8868e+00
-9.2812e-01 3.6401e+00 1.5712e+00
-2.1601e+00 4.2611e+00 1.1155e+00
-3.0220e+00 4.3799e+00 6.0841e-01
2.0177e+00 -4.7536e+00 1.9811e-01
3.5388e+00 -3.9749e+00 1.3069e+00
4.1496e+00 -2.6034e+00 2.0169e+00
3.9387e+00 -8.6377e-01 2.2954e+00
3.0708e+00 9.6010e-01 2.1760e+00
1.8231e+00 2.5056e+00 1.7541e+00
4.8393e-01 3.5326e+00 1.1563e+00
-7.5260e-01 4.0184e+00 5.0844e-01
-1.7736e+00 4.0442e+00 -9.2274e-02
6.7653e-01 -4.0831e+00 1.6304e+00
2.4547e+00 -3.3324e+00 2.5298e+00
3.4911e+00 -2.0770e+00 2.8663e+00
3.7971e+00 -5.5571e-01 2.6507e+00
3.4563e+00 9.9517e-01 1.9935e+00
2.6405e+00 2.2752e+00 1.1041e+00
1.5733e+00 3.0906e+00 1.8942e-01
4.4664e-01 3.4309e+00 -6.2122e-01
-6.2273e-01 3.4014e+00 -1.2515e+00
-1.9554e-01 -3.3234e+00 3.2143e+00
1.5490e+00 -2.5902e+00 3.7960e+00
2.7632e+00 -1.5588e+00 3.6501e+00
3.3483e+00 -3.4404e-01 2.8451e+00
3.3451e+00 8.7513e-01 1.5964e+00
2.8695e+00 1.8652e+00 2.2755e-01
2.0794e+00 2.4702e+00 -9.8709e-01
1.1396e+00 2.6834e+00 -1.9180e+00
1.7506e-01 2.5355e+00 -2.5159e+00
7.6399e-01 -4.3354e+00 2.2094e+00
6.8022e-01 -4.8414e+00 8.3290e-01
4.8577e-01 -4.4408e+00 -4.7672e-01
2.1995e-01 -3.2574e+00 -1.5663e+00
-6.9599e-02 -1.5917e+00 -2.3403e+00
-3.2259e-01 1.3458e-01 -2.7075e+00
-4.9939e-01 1.6035e+00 -2.6628e+00
-5.9353e-01 2.6742e+00 -2.2945e+00
-6.1452e-01 3.3146e+00 -1.6877e+00
2.6232e+00 -4.3680e+00 1.9572e+00
2.3725e+00 -4.9313e+00 6.7928e-01
1.7018e+00 -4.5173e+00 -5.1891e-01
7.7564e-01 -3.3136e+00 -1.5187e+00
-2.3294e-01 -1.6149e+00 -2.2158e+00
-1.1196e+00 1.5887e-01 -2.5240e+00
-1.7498e+00 1.6723e+00 -2.4500e+00
-2.1007e+00 2.7928e+00 -2.0862e+00
-2.2285e+00 3.4984e+00 -1.5444e+00
4.2850e+00 -4.6136e+00 1.3248e+00
3.9009e+00 -5.0486e+00 3.6642e-01
2.8601e+00 -4.5036e+00 -4.8960e-01
1.3729e+00 -3.1722e+00 -1.1841e+00
-2.8366e-01 -1.3643e+00 -1.6494e+00
-1.7612e+00 4.8351e-01 -1.8326e+00
-2.8208e+00 2.0293e+00 -1.7438e+00
-3.4287e+00 3.1410e+00 -1.4546e+00
-3.6318e+00 3.7894e+00 -1.0498e+00
5.2516e+00 -5.0069e+00 4.9115e-01
4.9129e+00 -5.1521e+00 6.7935e-02
3.7503e+00 -4.3488e+00 -2.9319e-01
1.9846e+00 -2.8047e+00 -5.6992e-01
-5.1829e-02 -8.4505e-01 -7.4102e-01
-1.9143e+00 1.0763e+00 -7.8895e-01
-3.2928e+00 2.6148e+00 -7.2316e-01
-4.1120e+00 3.6512e+00 -5.8014e-01
-4.4162e+00 4.1842e+00 -3.9564e-01
5.1538e+00 -5.3618e+00 -1.0518e-01
5.1378e+00 -5.1320e+00 3.2091e-02
4.2044e+00 -4.0254e+00 1.3873e-01
2.5643e+00 -2.2632e+00 2.0815e-01
5.4699e-01 -1.8061e-01 2.3809e-01
-1.3894e+00 1.7647e+00 2.3183e-01
-2.8986e+00 3.2356e+00 1.9764e-01
-3.8771e+00 4.1435e+00 1.4633e-01
-4.3368e+00 4.5141e+00 8.6856e-02
4.1037e+00 -5.4220e+00 -4.2536e-02
4.5883e+00 -4.8634e+00 4.6605e-01
4.1634e+00 -3.5359e+00 8.0806e-01
2.9966e+00 -1.6660e+00 9.7113e-01
1.3624e+00 4.2069e-01 9.6253e-01
-3.4062e-01 2.2839e+00 8.1640e-01
-1.7877e+00 3.6157e+00 5.8580e-01
-2.8399e+00 4.3539e+00 3.2014e-01
-3.4717e+00 4.5549e+00 6.2494e-02
2.6164e+00 -5.0251e+00 7.7671e-01
3.5699e+00 -4.2988e+00 1.3703e+00
3.7075e+00 -2.9258e+00 1.6409e+00
3.1456e+00 -1.1298e+00 1.5893e+00
2.0735e+00 7.8851e-01 1.2696e+00
7.8533e-01 2.4416e+00 7.9555e-01
-4.4714e-01 3.5628e+00 2.8180e-01
-1.4785e+00 4.1225e+00 -1.8814e-01
-2.2383e+00 4.1914e+00 -5.6201e-01
1.2701e+00 -4.2345e+00 2.0709e+00
2.4592e+00 -3.5100e+00 2.5445e+00
3.0056e+00 -2.2619e+00 2.5166e+00
2.9538e+00 -7.1294e-01 2.0329e+00
2.4093e+00 8.8833e-01 1.2240e+00
1.5605e+00 2.2274e+00 3.0798e-01
6.1127e-01 3.0975e+00 -5.2167e-01
-2.9512e-01 3.4827e+00 -1.1749e+00
-1.0817e+00 3.4691e+00 -1.6080e+00
3.6548e-01 -3.2689e+00 3.4767e+00
1.5218e+00 -2.6077e+00 3.7346e+00
2.2490e+00 -1.6153e+00 3.3175e+00
2.4852e+00 -4.2757e-01 2.3286e+00
2.2936e+00 7.8059e-01 9.9193e-01
1.7959e+00 1.7727e+00 -3.6849e-01
1.1287e+00 2.3958e+00 -1.4984e+00
4.1456e-01 2.6369e+00 -2.2927e+00
-2.7039e-01 2.5376e+00 -2.7401e+00
7.3857e-01 -3.7600e+00 2.5744e+00
6.3290e-01 -4.7892e+00 7.3603e-01
4.2853e-01 -4.8510e+00 -9.2781e-01
1.6353e-01 -4.0071e+00 -2.2549e+00
-1.1584e-01 -2.5394e+00 -3.1347e+00
-3.5304e-01 -8.5786e-01 -3.4841e+00
-5.1238e-01 6.9652e-01 -3.3194e+00
-5.9030e-01 1.9536e+00 -2.7648e+00
-5.9707e-01 2.8197e+00 -1.9285e+00
2.6143e+00 -3.5908e+00 2.2110e+00
2.2885e+00 -4.7509e+00 4.9896e-01
1.5523e+00 -4.8602e+00 -1.0370e+00
5.9305e-01 -4.0671e+00 -2.2453e+00
-4.1450e-01 -2.6327e+00 -3.0183e+00
-1.2743e+00 -9.5202e-01 -3.2782e+00
-1.8627e+00 6.3083e-01 -3.0649e+00
-2.1699e+00 1.9348e+00 -2.5093e+00
-2.2686e+00 2.9084e+00 -1.7621e+00
4.3246e+00 -3.7235e+00 1.5099e+00
3.7722e+00 -4.7670e+00 1.0948e-01
2.6020e+00 -4.7680e+00 -1.0701e+00
1.0415e+00 -3.8801e+00 -1.9525e+00
-6.2904e-01 -2.3778e+00 -2.4679e+00
-2.0676e+00 -6.6213e-01 -2.5785e+00
-3.0577e+00 9.2628e-01 -2.3327e+00
-3.5826e+00 2.2089e+00 -1.8431e+00
-3.7095e+00 3.1109e+00 -1.2264e+00
5.3689e+00 -4.0986e+00 6.4468e-01
4.7532e+00 -4.8098e+00 -2.3537e-01
3.3790e+00 -4.5250e+00 -9.2203e-01
1.4861e+00 -3.4168e+00 -1.3793e+00
-5.8520e-01 -1.7755e+00 -1.5873e+00
-2.3997e+00 -1.1841e-02 -1.5475e+00
-3.6740e+00 1.5354e+00 -1.3093e+00
-4.3657e+00 2.7104e+00 -9.5130e-01
-4.5427e+00 3.4696e+00 -5.4698e-01
5.3913e+00 -4.5234e+00 2.9520e-02
4.9716e+00 -4.7649e+00 -2.9966e-01
3.7325e+00 -4.1081e+00 -5.1962e-01
1.9016e+00 -2.7412e+00 -6.2717e-01
-1.8290e-01 -9.6210e-01 -6.2658e-01
-2.0687e+00 8.1218e-01 -5.3653e-01
-3.4439e+00 2.2607e+00 -3.8930e-01
-4.2414e+00 3.2620e+00 -2.1679e-01
-4.5102e+00 3.8082e+00 -4.9710e-02
4.4577e+00 -4.6814e+00 4.4334e-02
4.4342e+00 -4.4880e+00 1.0469e-01
3.6197e+00 -3.5279e+00 1.3922e-01
2.1997e+00 -1.9962e+00 1.4406e-01
4.6236e-01 -1.8643e-01 1.2224e-01
-1.1986e+00 1.5037e+00 8.3819e-02
-2.4910e+00 2.7847e+00 3.9962e-02
-3.3248e+00 3.5757e+00 -1.7731e-03
-3.7148e+00 3.9016e+00 -3.7331e-02
3.0498e+00 -4.3636e+00 7.6021e-01
3.4282e+00 -3.9058e+00 9.6510e-01
3.1234e+00 -2.8296e+00 9.7906e-01
2.2664e+00 -1.3263e+00 8.1256e-01
1.0625e+00 3.3909e-01 5.1427e-01
-1.9453e-01 1.8172e+00 1.6805e-01
-1.2664e+00 2.8672e+00 -1.5322e-01
-2.0530e+00 3.4425e+00 -4.0818e-01
-2.5349e+00 3.5906e+00 -5.7955e-01
1.7110e+00 -3.5940e+00 1.9147e+00
2.3190e+00 -3.0753e+00 2.0816e+00
2.4106e+00 -2.0858e+00 1.8716e+00
2.0510e+00 -8.0618e-01 1.3390e+00
1.3643e+00 5.5054e-01 6.0214e-01
5.3951e-01 1.7111e+00 -1.5623e-01
-2.5041e-01 2.4939e+00 -7.8991e-01
-9.0993e-01 2.8751e+00 -1.2406e+00
-1.4068e+00 2.9116e+00 -1.4958e+00
7.5596e-01 -2.5770e+00 3.1524e+00
1.3666e+00 -2.1217e+00 3.2067e+00
1.6534e+00 -1.3717e+00 2.6954e+00
1.6038e+00 -4.4675e-01 1.7377e+00
1.2863e+00 5.1023e-01 5.3289e-01
8.1647e-01 1.3123e+00 -6.4122e-01
3.0437e-01 1.8327e+00 -1.5723e+00
-1.7775e-01 2.0588e+00 -2.1898e+00
-5.8918e-01 2.0258e+00 -2.4998e+00
6.8053e-01 -2.6240e+00 2.3220e+00
5.6333e-01 -4.2225e+00 2.2513e-01
3.6235e-01 -4.8859e+00 -1.5404e+00
1.1240e-01 -4.5743e+00 -2.8382e+00
-1.4442e-01 -3.5124e+00 -3.5940e+00
-3.5704e-01 -2.0610e+00 -3.7618e+00
-4.9517e-01 -5.4085e-01 -3.4095e+00
-5.5704e-01 8.1818e-01 -2.6767e+00
-5.5230e-01 1.8860e+00 -1.6659e+00
2.4841e+00 -2.2516e+00 1.7249e+00
2.1086e+00 -4.0432e+00 -1.5185e-01
1.3596e+00 -4.7938e+00 -1.7235e+00
4.2373e-01 -4.5957e+00 -2.8346e+00
-5.3178e-01 -3.6369e+00 -3.4125e+00
-1.3271e+00 -2.2403e+00 -3.4423e+00
-1.8547e+00 -7.3250e-01 -3.0109e+00
-2.1126e+00 6.7858e-01 -2.2818e+00
-2.1737e+00 1.8850e+00 -1.4253e+00
4.1040e+00 -2.2766e+00 8.9919e-01
3.4651e+00 -3.9404e+00 -6.4168e-01
2.2645e+00 -4.5899e+00 -1.8193e+00
7.3574e-01 -4.3287e+00 -2.5628e+00
-8.4585e-01 -3.3509e+00 -2.8399e+00
-2.1703e+00 -1.9725e+00 -2.6835e+00
-3.0459e+00 -5.0367e-01 -2.1932e+00
-3.4844e+00 8.5662e-01 -1.5150e+00
-3.5511e+00 1.9733e+00 -7.8178e-01
5.1129e+00 -2.6246e+00 -1.4070e-03
4.3395e+00 -3.9065e+00 -1.0342e+00
2.8962e+00 -4.2469e+00 -1.7226e+00
1.0316e+00 -3.7660e+00 -2.0341e+00
-9.2720e-01 -2.6709e+00 -1.9915e+00
-2.5820e+00 -1.2803e+00 -1.6680e+00
-3.6901e+00 1.0932e-01 -1.1686e+00
-4.2366e+00 1.3217e+00 -6.0549e-01
-4.3034e+00 2.2659e+00 -6.9593e-02
5.1678e+00 -3.0870e+00 -5.9877e-01
4.5045e+00 -3.8357e+00 -1.1156e+00
3.1363e+00 -3.7544e+00 -1.3596e+00
1.3002e+00 -2.9836e+00 -1.3354e+00
-6.7645e-01 -1.7426e+00 -1.0894e+00
-2.3846e+00 -3.5246e-01 -7.1231e-01
-3.5564e+00 9.1212e-01 -2.9448e-01
-4.1657e+00 1.9209e+00 9.4768e-02
-4.2818e+00 2.6184e+00 4.0842e-01
4.3375e+00 -3.3441e+00 -5.7512e-01
3.9731e+00 -3.5735e+00 -7.2438e-01
2.9548e+00 -3.1210e+00 -7.2651e-01
1.4767e+00 -2.1324e+00 -5.9625e-01
-1.8669e-01 -8.2782e-01 -3.7413e-01
-1.6777e+00 4.8630e-01 -1.2131e-01
-2.7531e+00 1.5717e+00 1.1205e-01
-3.3654e+00 2.3376e+00 2.9658e-01
-3.5573e+00 2.7736e+00 4.1788e-01
3.0309e+00 -3.1465e+00 9.6222e-02
3.0030e+00 -3.0289e+00 1.0925e-01
2.4376e+00 -2.3885e+00 1.0488e-01
1.4723e+00 -1.3673e+00 8.1528e-02
3.0357e-01 -1.6334e-01 4.3243e-02
-8.0691e-01 9.6117e-01 4.3751e-04
-1.6646e+00 1.8135e+00 -3.7362e-02
-2.2146e+00 2.3433e+00 -6.6132e-02
-2.4704e+00 2.5677e+00 -8.5207e-02
1.7378e+00 -2.4852e+00 1.1673e+00
1.9260e+00 -2.2348e+00 1.1910e+00
1.7375e+00 -1.6235e+00 1.0074e+00
1.2470e+00 -7.7311e-01 6.5678e-01
5.7083e-01 1.6515e-01 2.1079e-01
-1.2707e-01 9.9704e-01 -2.2623e-01
-7.1572e-01 1.5888e+00 -5.7332e-01
-1.1428e+00 1.9134e+00 -8.0524e-01
-1.4029e+00 1.9997e+00 -9.2236e-01
7.6095e-01 -1.5341e+00 2.3118e+00
9.8419e-01 -1.3130e+00 2.2835e+00
1.0048e+00 -8.9613e-01 1.8573e+00
8.3479e-01 -3.5913e-01 1.1314e+00
5.3251e-01 2.1231e-01 2.5139e-01
1.8325e-01 7.0406e-01 -5.8502e-01
-1.4237e-01 1.0377e+00 -1.2322e+00
-4.0752e-01 1.2018e+00 -1.6457e+00
-6.0182e-01 1.2154e+00 -1.8387e+00
5.9136e-01 -1.2702e+00 1.4127e+00
4.7510e-01 -3.4059e+00 -6.9266e-01
2.9204e-01 -4.6545e+00 -2.2659e+00
7.0177e-02 -4.9042e+00 -3.2682e+00
-1.5303e-01 -4.3260e+00 -3.6680e+00
-3.3421e-01 -3.1904e+00 -3.5043e+00
-4.4856e-01 -1.7873e+00 -2.9025e+00
-4.9709e-01 -3.6077e-01 -2.0399e+00
-4.8554e-01 8.5854e-01 -9.5066e-01
2.2126e+00 -8.2684e-01 5.7781e-01
1.8547e+00 -3.1113e+00 -1.2055e+00
1.1397e+00 -4.4344e+00 -2.5127e+00
2.8402e-01 -4.8189e+00 -3.2331e+00
-5.6955e-01 -4.3789e+00 -3.3718e+00
-1.2649e+00 -3.3453e+00 -3.0109e+00
-1.7153e+00 -2.0038e+00 -2.3067e+00
-1.9230e+00 -5.9181e-01 -1.4268e+00
-1.9996e+00 7.5609e-01 -5.3337e-01