<?xml version="1.0"?>
<VTKFile type="StructuredGrid" version="0.1">
  <StructuredGrid WholeExtent="0 8 0 8 0 8">
    <Piece Extent="0 8 0 8 0 8">
      <PointData Scalars="temperature" Vectors="velocity">
        <DataArray type="Float32" Name="temperature" format="ascii">
1.000000e+00
8.682942e-01
7.435429e-01
6.192021e-01
4.946864e-01
3.699748e-01
2.451617e-01
1.206735e-01
0.000000e+00
1.000000e+00
8.681632e-01
7.432962e-01
6.187457e-01
4.940489e-01
3.696015e-01
2.450067e-01
1.206172e-01
0.000000e+00
1.000000e+00
8.677654e-01
7.425288e-01
6.173021e-01
4.919730e-01
3.684035e-01
2.444836e-01
1.203943e-01
0.000000e+00
1.000000e+00
8.671020e-01
7.412446e-01
6.148788e-01
4.884907e-01
3.664270e-01
2.436164e-01
1.200208e-01
0.000000e+00
1.000000e+00
8.662599e-01
7.396090e-01
6.117876e-01
4.840842e-01
3.639715e-01
2.425333e-01
1.195485e-01
0.000000e+00
1.000000e+00
8.653968e-01
7.379297e-01
6.086093e-01
4.795983e-01
3.615244e-01
2.414481e-01
1.190710e-01
0.000000e+00
1.000000e+00
8.646822e-01
7.365427e-01
6.059823e-01
4.759197e-01
3.595656e-01
2.405800e-01
1.186840e-01
0.000000e+00
1.000000e+00
8.642037e-01
7.356357e-01
6.043399e-01
4.736288e-01
3.583991e-01
2.400886e-01
1.185035e-01
0.000000e+00
1.000000e+00
8.627655e-01
7.341756e-01
6.026240e-01
4.718261e-01
3.570409e-01
2.388606e-01
1.173773e-01
0.000000e+00
1.000000e+00
8.683115e-01
7.435720e-01
6.192533e-01
4.947415e-01
3.700182e-01
2.451820e-01
1.206830e-01
0.000000e+00
1.000000e+00
8.681726e-01
7.433149e-01
6.187813e-01
4.940801e-01
3.696314e-01
2.450188e-01
1.206207e-01
0.000000e+00
1.000000e+00
8.677538e-01
7.425067e-01
6.172574e-01
4.918524e-01
3.683696e-01
2.444709e-01
1.203894e-01
0.000000e+00
1.000000e+00
8.670532e-01
7.411473e-01
6.146826e-01
4.880885e-01
3.662769e-01
2.435593e-01
1.200008e-01
0.000000e+00
1.000000e+00
8.661754e-01
7.394341e-01
6.114278e-01
4.833791e-01
3.637042e-01
2.424329e-01
1.195165e-01
0.000000e+00
1.000000e+00
8.653074e-01
7.377276e-01
6.081771e-01
4.787509e-01
3.612142e-01
2.413377e-01
1.190421e-01
0.000000e+00
1.000000e+00
8.646413e-01
7.364089e-01
6.056570e-01
4.752343e-01
3.593403e-01
2.405158e-01
1.186881e-01
0.000000e+00
1.000000e+00
8.642013e-01
7.356228e-01
6.042587e-01
4.733682e-01
3.583401e-01
2.400676e-01
1.184929e-01
0.000000e+00
1.000000e+00
8.641419e-01
7.355131e-01
6.041036e-01
4.732829e-01
3.582290e-01
2.400140e-01
1.184713e-01
0.000000e+00
1.000000e+00
8.685782e-01
7.440964e-01
6.202589e-01
4.962102e-01
3.708840e-01
2.455554e-01
1.208374e-01
0.000000e+00
1.000000e+00
8.684666e-01
7.438825e-01
6.198640e-01
4.956854e-01
3.705550e-01
2.454153e-01
1.207830e-01
0.000000e+00
1.000000e+00
8.680431e-01
7.430730e-01
6.183449e-01
4.934553e-01
3.692862e-01
2.448659e-01
1.205522e-01
0.000000e+00
1.000000e+00
8.673096e-01
7.416612e-01
6.156804e-01
4.895435e-01
3.671011e-01
2.439182e-01
1.201502e-01
0.000000e+00
1.000000e+00
8.663879e-01
7.398742e-01
6.122942e-01
4.846204e-01
3.644029e-01
2.427427e-01
1.196472e-01
0.000000e+00
1.000000e+00
8.654976e-01
7.381300e-01
6.089726e-01
4.798680e-01
3.618363e-01
2.416184e-01
1.191626e-01
0.000000e+00
1.000000e+00
8.648555e-01
7.368564e-01
6.065268e-01
4.764370e-01
3.599900e-01
2.408048e-01
1.188124e-01
0.000000e+00
1.000000e+00
8.645844e-01
7.362949e-01
6.054375e-01
4.749288e-01
3.591783e-01
2.404437e-01
1.186561e-01
0.000000e+00
1.000000e+00
8.645599e-01
7.363006e-01
6.055178e-01
4.752616e-01
3.592239e-01
2.404297e-01
1.186188e-01
0.000000e+00
1.000000e+00
8.691117e-01
7.451391e-01
6.222554e-01
4.991919e-01
3.726309e-01
2.463091e-01
1.211498e-01
0.000000e+00
1.000000e+00
8.690558e-01
7.450212e-01
6.220371e-01
4.989820e-01
3.724474e-01
2.462330e-01
1.211248e-01
0.000000e+00
1.000000e+00
8.686705e-01
7.442860e-01
6.206596e-01
4.969343e-01
3.712683e-01
2.457209e-01
1.209089e-01
0.000000e+00
1.000000e+00
8.679441e-01
7.428975e-01
6.180476e-01
4.930512e-01
3.690732e-01
2.447718e-01
1.205085e-01
0.000000e+00
1.000000e+00
8.670077e-01
7.410949e-01
6.146441e-01
4.880341e-01
3.662961e-01
2.435686e-01
1.199970e-01
0.000000e+00
1.000000e+00
8.661020e-01
7.393308e-01
6.112898e-01
4.831671e-01
3.636400e-01
2.424113e-01
1.195018e-01
0.000000e+00
1.000000e+00
8.654660e-01
7.380672e-01
6.088534e-01
4.796991e-01
3.617471e-01
2.415787e-01
1.191450e-01
0.000000e+00
1.000000e+00
8.652147e-01
7.375425e-01
6.078220e-01
4.782484e-01
3.609469e-01
2.412189e-01
1.189895e-01
0.000000e+00
1.000000e+00
8.652316e-01
7.376031e-01
6.079846e-01
4.787126e-01
3.610525e-01
2.412406e-01
1.189810e-01
0.000000e+00
1.000000e+00
8.698460e-01
7.465641e-01
6.249724e-01
5.033263e-01
3.750634e-01
2.473539e-01
1.215806e-01
0.000000e+00
1.000000e+00
8.698645e-01
7.465710e-01
6.249784e-01
5.035217e-01
3.750737e-01
2.473646e-01
1.215965e-01
0.000000e+00
1.000000e+00
8.695437e-01
7.459563e-01
6.238231e-01
5.017759e-01
3.740465e-01
2.469154e-01
1.214068e-01
0.000000e+00
1.000000e+00
8.688584e-01
7.446528e-01
6.213726e-01
4.980704e-01
3.719084e-01
2.459930e-01
1.210209e-01
0.000000e+00
1.000000e+00
8.679368e-01
7.428909e-01
6.180543e-01
4.930851e-01
3.690999e-01
2.447825e-01
1.205110e-01
0.000000e+00
1.000000e+00
8.670240e-01
7.411261e-01
6.147054e-01
4.881281e-01
3.663496e-01
2.435918e-01
1.200065e-01
0.000000e+00
1.000000e+00
8.663646e-01
7.398276e-01
6.122072e-01
4.844978e-01
3.643392e-01
2.427142e-01
1.196341e-01
0.000000e+00
1.000000e+00
8.660794e-01
7.392430e-01
6.110620e-01
4.828519e-01
3.634215e-01
2.423076e-01
1.194611e-01
0.000000e+00
1.000000e+00
8.660777e-01
7.392506e-01
6.111039e-01
4.831066e-01
3.634389e-01
2.422999e-01
1.194479e-01
0.000000e+00
1.000000e+00
8.706389e-01
7.480910e-01
6.278736e-01
5.078350e-01
3.777304e-01
2.484896e-01
1.220426e-01
0.000000e+00
1.000000e+00
8.707212e-01
7.481989e-01
6.280507e-01
5.083398e-01
3.778987e-01
2.485743e-01
1.220969e-01
0.000000e+00
1.000000e+00
8.704583e-01
7.476906e-01
6.270875e-01
5.068549e-01
3.770056e-01
2.481822e-01
1.219313e-01
0.000000e+00
1.000000e+00
8.698232e-01
7.464867e-01
6.248231e-01
5.033651e-01
3.749491e-01
2.472981e-01
1.215654e-01
0.000000e+00
1.000000e+00
8.689349e-01
7.447987e-01
6.216502e-01
4.985011e-01
3.721543e-01
2.460992e-01
1.210655e-01
0.000000e+00
1.000000e+00
8.680270e-01
7.430568e-01
6.183535e-01
4.935186e-01
3.693380e-01
2.448868e-01
1.205568e-01
0.000000e+00
1.000000e+00
8.673365e-01
7.417123e-01
6.157804e-01
4.896976e-01
3.671910e-01
2.439570e-01
1.201658e-01
0.000000e+00
1.000000e+00
8.669888e-01
7.410187e-01
6.144366e-01
4.877272e-01
3.660827e-01
2.434733e-01
1.199623e-01
0.000000e+00
1.000000e+00
8.669321e-01
7.409122e-01
6.142464e-01
4.875768e-01
3.659190e-01
2.433947e-01
1.199260e-01
0.000000e+00
1.000000e+00
8.713266e-01
7.494090e-01
6.303709e-01
5.118038e-01
3.800784e-01
2.494736e-01
1.224335e-01
0.000000e+00
1.000000e+00
8.714375e-01
7.495446e-01
6.305804e-01
5.123495e-01
3.802860e-01
2.495862e-01
1.225090e-01
0.000000e+00
1.000000e+00
8.711873e-01
7.490674e-01
6.296798e-01
5.109327e-01
3.794314e-01
2.492172e-01
1.223547e-01
0.000000e+00
1.000000e+00
8.705866e-01
7.479330e-01
6.275442e-01
5.075812e-01
3.774322e-01
2.483655e-01
1.220074e-01
0.000000e+00
1.000000e+00
8.697379e-01
7.463262e-01
6.245249e-01
5.028744e-01
3.746830e-01
2.471901e-01
1.215217e-01
0.000000e+00
1.000000e+00
8.688534e-01
7.446373e-01
6.213314e-01
4.979682e-01
3.718612e-01
2.459781e-01
1.210171e-01
0.000000e+00
1.000000e+00
8.681491e-01
7.432774e-01
6.187380e-01
4.940523e-01
3.696283e-01
2.450148e-01
1.206145e-01
0.000000e+00
1.000000e+00
8.677475e-01
7.424914e-01
6.172277e-01
4.918063e-01
3.683503e-01
2.444615e-01
1.203835e-01
0.000000e+00
1.000000e+00
8.676327e-01
7.422702e-01
6.168107e-01
4.912566e-01
3.679987e-01
2.443073e-01
1.203193e-01
0.000000e+00
1.000000e+00
8.717988e-01
7.502696e-01
6.320291e-01
5.145286e-01
3.816529e-01
2.500953e-01
1.226905e-01
0.000000e+00
1.000000e+00
8.718041e-01
7.502902e-01
6.320603e-01
5.147554e-01
3.817030e-01
2.501485e-01
1.227250e-01
0.000000e+00
1.000000e+00
8.715962e-01
7.498425e-01
6.311397e-01
5.132487e-01
3.808266e-01
2.498169e-01
1.226042e-01
0.000000e+00
1.000000e+00
8.709967e-01
7.487198e-01
6.290321e-01
5.099056e-01
3.788260e-01
2.489725e-01
1.222622e-01
0.000000e+00
1.000000e+00
8.701872e-01
7.471864e-01
6.261459e-01
5.053580e-01
3.761458e-01
2.478276e-01
1.217903e-01
0.000000e+00
1.000000e+00
8.693460e-01
7.455801e-01
6.231050e-01
5.006351e-01
3.734013e-01
2.466473e-01
1.212994e-01
0.000000e+00
1.000000e+00
8.686590e-01
7.442562e-01
6.205822e-01
4.967822e-01
3.711841e-01
2.456899e-01
1.208991e-01
0.000000e+00
1.000000e+00
8.682357e-01
7.434344e-01
6.190091e-01
4.944199e-01
3.698291e-01
2.451037e-01
1.206544e-01
0.000000e+00
1.000000e+00
8.680826e-01
7.431385e-01
6.184460e-01
4.936112e-01
3.693503e-01
2.448970e-01
1.205701e-01
0.000000e+00
1.000000e+00
8.707944e-01
7.495230e-01
6.316491e-01
5.145625e-01
3.810217e-01
2.491322e-01
1.216173e-01
0.000000e+00
1.000000e+00
8.719637e-01
7.505739e-01
6.325954e-01
5.154925e-01
3.821984e-01
2.503235e-01
1.227819e-01
0.000000e+00
1.000000e+00
8.716452e-01
7.500016e-01
6.314768e-01
5.135985e-01
3.811372e-01
2.499216e-01
1.226151e-01
0.000000e+00
1.000000e+00
8.710583e-01
7.488798e-01
6.293539e-01
5.101826e-01
3.791199e-01
2.490832e-01
1.222861e-01
0.000000e+00
1.000000e+00
8.702929e-01
7.474136e-01
6.265770e-01
5.058174e-01
3.765304e-01
2.479851e-01
1.218421e-01
0.000000e+00
1.000000e+00
8.695066e-01
7.458974e-01
6.236965e-01
5.013869e-01
3.739145e-01
2.468647e-01
1.213818e-01
0.000000e+00
1.000000e+00
8.688569e-01
7.446366e-01
6.212911e-01
4.977581e-01
3.717853e-01
2.459475e-01
1.210023e-01
0.000000e+00
1.000000e+00
8.684395e-01
7.438238e-01
6.197375e-01
4.954548e-01
3.704379e-01
2.453662e-01
1.207616e-01
0.000000e+00
1.000000e+00
8.682630e-01
7.434889e-01
6.191058e-01
4.945475e-01
3.698981e-01
2.451313e-01
1.206639e-01
0.000000e+00
        </DataArray>
        <DataArray type="Float32" Name="velocity" NumberOfComponents="3" format="ascii">
7.3724e-01 4.5889e-08 -3.6218e-02
7.2287e-01 9.8105e-08 -2.2485e-03
5.8099e-01 4.5902e-08 2.7309e-02
3.4699e-01 1.8939e-08 4.6239e-02
6.7552e-02 -3.2156e-09 5.5376e-02
-1.9537e-01 2.1712e-09 5.5460e-02
-3.9651e-01 -1.6459e-08 4.9129e-02
-5.2295e-01 -2.8864e-08 3.8737e-02
-5.8041e-01 -1.0295e-08 2.8513e-02
7.4078e-01 -1.6131e+00 1.3764e-01
7.2168e-01 -1.5801e+00 7.9144e-02
5.7591e-01 -1.2672e+00 1.2946e-02
3.3913e-01 -7.5232e-01 -5.0598e-02
5.8255e-02 -1.3994e-01 -1.0348e-01
-2.0475e-01 4.3483e-01 -1.3759e-01
-4.0493e-01 8.7365e-01 -1.4846e-01
-5.2957e-01 1.1493e+00 -1.3720e-01
-5.8461e-01 1.2708e+00 -1.0839e-01
7.5131e-01 -3.0988e+00 6.7122e-01
7.1754e-01 -3.0898e+00 3.1678e-01
5.5960e-01 -2.5334e+00 -4.5866e-02
3.1441e-01 -1.5653e+00 -3.6403e-01
2.9297e-02 -3.8681e-01 -6.0656e-01
-2.3365e-01 7.3413e-01 -7.4166e-01
-4.3024e-01 1.6045e+00 -7.5864e-01
-5.4905e-01 2.1642e+00 -6.7887e-01
-5.9680e-01 2.4271e+00 -5.2531e-01
7.6341e-01 -4.0995e+00 1.4559e+00
7.0621e-01 -4.2539e+00 6.2675e-01
5.2997e-01 -3.6408e+00 -1.9167e-01
2.7303e-01 -2.4163e+00 -8.9396e-01
-1.6620e-02 -8.5253e-01 -1.4118e+00
-2.7730e-01 6.8228e-01 -1.6816e+00
-4.6648e-01 1.9127e+00 -1.6901e+00
-5.7479e-01 2.7469e+00 -1.4865e+00
-6.1057e-01 3.1822e+00 -1.1293e+00
7.6399e-01 -4.3354e+00 2.2094e+00
6.8022e-01 -4.8414e+00 8.3290e-01
4.8577e-01 -4.4408e+00 -4.7672e-01
2.1995e-01 -3.2574e+00 -1.5663e+00
-6.9599e-02 -1.5917e+00 -2.3403e+00
-3.2259e-01 1.3458e-01 -2.7075e+00
-4.9939e-01 1.6035e+00 -2.6628e+00
-5.9353e-01 2.6742e+00 -2.2945e+00
-6.1452e-01 3.3146e+00 -1.6877e+00
7.3857e-01 -3.7600e+00 2.5744e+00
6.3290e-01 -4.7892e+00 7.3603e-01
4.2853e-01 -4.8510e+00 -9.2781e-01
1.6353e-01 -4.0071e+00 -2.2549e+00
-1.1584e-01 -2.5394e+00 -3.1347e+00
-3.5304e-01 -8.5786e-01 -3.4841e+00
-5.1238e-01 6.9652e-01 -3.3194e+00
-5.9030e-01 1.9536e+00 -2.7648e+00
-5.9707e-01 2.8197e+00 -1.9285e+00
6.8053e-01 -2.6240e+00 2.3220e+00
5.6333e-01 -4.2225e+00 2.2513e-01
3.6235e-01 -4.8859e+00 -1.5404e+00
1.1240e-01 -4.5743e+00 -2.8382e+00
-1.4442e-01 -3.5124e+00 -3.5940e+00
-3.5704e-01 -2.0610e+00 -3.7618e+00
-4.9517e-01 -5.4085e-01 -3.4095e+00
-5.5704e-01 8.1818e-01 -2.6767e+00
-5.5230e-01 1.8860e+00 -1.6659e+00
5.9136e-01 -1.2702e+00 1.4127e+00
4.7510e-01 -3.4059e+00 -6.9266e-01
2.9204e-01 -4.6545e+00 -2.2659e+00
7.0177e-02 -4.9042e+00 -3.2682e+00
-1.5303e-01 -4.3260e+00 -3.6680e+00
-3.3421e-01 -3.1904e+00 -3.5043e+00
-4.4856e-01 -1.7873e+00 -2.9025e+00
-4.9709e-01 -3.6077e-01 -2.0399e+00
-4.8554e-01 8.5854e-01 -9.5066e-01
4.8075e-01 -8.5223e-03 -1.1551e-02
3.7875e-01 -2.6261e+00 -1.8600e+00
2.2436e-01 -4.2546e+00 -3.0088e+00
4.0236e-02 -4.9522e+00 -3.4995e+00
-1.4290e-01 -4.7838e+00 -3.3782e+00
-2.8988e-01 -3.9603e+00 -2.7945e+00
-3.8065e-01 -2.7357e+00 -1.9280e+00
-4.1610e-01 -1.3264e+00 -9.3169e-01
-4.0955e-01 6.8997e-03 1.0350e-02
-8.8463e-01 6.1652e-08 -5.1592e-02
-8.6201e-01 9.6253e-08 -9.3968e-03
-6.9105e-01 1.3428e-08 2.8184e-02
-4.0954e-01 3.7833e-08 5.4345e-02
-7.3464e-02 6.2825e-09 6.8665e-02
2.4335e-01 -2.1211e-08 7.2910e-02
4.8668e-01 2.2173e-08 6.8114e-02
6.4053e-01 -1.9214e-08 5.6392e-02
7.1150e-01 2.9013e-08 4.1495e-02
-9.5258e-01 -1.6671e+00 1.2671e-01
-9.2537e-01 -1.6320e+00 7.3115e-02
-7.3659e-01 -1.3078e+00 1.2523e-02
-4.3021e-01 -7.7488e-01 -4.6402e-02
-6.7209e-02 -1.4144e-01 -9.5688e-02
2.7359e-01 4.5312e-01 -1.2644e-01
5.3452e-01 9.0774e-01 -1.3503e-01
6.9863e-01 1.1936e+00 -1.2433e-01
7.7393e-01 1.3203e+00 -9.9122e-02
-1.0353e+00 -3.1910e+00 6.9120e-01
-9.9267e-01 -3.1898e+00 3.1997e-01
-7.7249e-01 -2.6184e+00 -5.3992e-02
-4.3011e-01 -1.6209e+00 -3.8562e-01
-3.2888e-02 -4.0419e-01 -6.3686e-01
3.3483e-01 7.5671e-01 -7.7231e-01
6.1347e-01 1.6598e+00 -7.8521e-01
7.8567e-01 2.2450e+00 -6.9815e-01
8.6553e-01 2.5255e+00 -5.4390e-01
-1.1283e+00 -4.1578e+00 1.5101e+00
-1.0602e+00 -4.3595e+00 6.3310e-01
-7.9355e-01 -3.7531e+00 -2.2245e-01
-4.0421e-01 -2.5147e+00 -9.6141e-01
3.2082e-02 -9.1863e-01 -1.5040e+00
4.2766e-01 6.5932e-01 -1.7768e+00
7.2050e-01 1.9363e+00 -1.7735e+00
8.9699e-01 2.8127e+00 -1.5532e+00
9.8140e-01 3.2924e+00 -1.1892e+00
-1.2158e+00 -4.2476e+00 2.2367e+00
-1.1129e+00 -4.8838e+00 8.0444e-01
-7.9284e-01 -4.5413e+00 -5.4861e-01
-3.5459e-01 -3.3981e+00 -1.6817e+00
1.1849e-01 -1.7442e+00 -2.4769e+00
5.3525e-01 5.1203e-03 -2.8368e+00
8.3581e-01 1.5159e+00 -2.7672e+00
1.0087e+00 2.6511e+00 -2.3703e+00
1.0932e+00 3.3832e+00 -1.7714e+00
-1.2694e+00 -3.4603e+00 2.4596e+00
-1.1330e+00 -4.7038e+00 6.1181e-01
-7.6655e-01 -4.8930e+00 -1.0628e+00
-2.9104e-01 -4.1663e+00 -2.3905e+00
2.0451e-01 -2.7793e+00 -3.2512e+00
6.2957e-01 -1.1225e+00 -3.5575e+00
9.2564e-01 4.6046e-01 -3.3486e+00
1.0885e+00 1.7835e+00 -2.7644e+00
1.1698e+00 2.7886e+00 -1.9689e+00
-1.2758e+00 -2.1247e+00 1.9387e+00
-1.1043e+00 -4.0029e+00 -5.3440e-02
-7.1346e-01 -4.8351e+00 -1.7439e+00
-2.2583e-01 -4.7028e+00 -2.9580e+00
2.6878e-01 -3.7894e+00 -3.6117e+00
6.8273e-01 -2.4132e+00 -3.6820e+00
9.6325e-01 -9.0168e-01 -3.2554e+00
1.1087e+00 5.3145e-01 -2.5030e+00
1.1688e+00 1.7718e+00 -1.6062e+00
-1.2006e+00 -7.1206e-01 7.5362e-01
-1.0362e+00 -3.0811e+00 -1.1220e+00
-6.3884e-01 -4.4825e+00 -2.5279e+00
-1.6825e-01 -4.9282e+00 -3.3334e+00
2.9807e-01 -4.5276e+00 -3.5354e+00
6.7965e-01 -3.5095e+00 -3.2092e+00
9.3218e-01 -2.1610e+00 -2.5102e+00
1.0561e+00 -7.2527e-01 -1.6124e+00
1.1412e+00 6.5644e-01 -6.9095e-01
-1.2361e+00 4.2381e-01 -8.2280e-01
-8.9407e-01 -2.1776e+00 -2.3770e+00
-5.3588e-01 -3.9546e+00 -3.2982e+00
-1.0618e-01 -4.8206e+00 -3.5087e+00
3.1149e-01 -4.8350e+00 -3.1251e+00
6.3949e-01 -4.1588e+00 -2.3351e+00
8.3872e-01 -3.0270e+00 -1.3437e+00
9.1088e-01 -1.6908e+00 -3.2660e-01
7.5278e-01 -2.9283e-01 5.5587e-01
-2.4941e+00 1.6586e-07 -4.4177e-01
-2.4657e+00 1.6166e-08 -1.8608e-01
-2.0095e+00 9.8135e-08 6.5179e-02
-1.2280e+00 7.3189e-09 2.7446e-01
-2.7803e-01 2.5338e-09 4.2733e-01
6.2650e-01 -7.2041e-09 5.0818e-01
1.3278e+00 -3.0835e-08 5.1255e-01
1.7771e+00 2.6330e-08 4.5506e-01
1.9877e+00 -1.0964e-07 3.5207e-01
-2.6299e+00 -1.7396e+00 -2.9289e-01
-2.5942e+00 -1.6828e+00 -1.1438e-01
-2.1020e+00 -1.3266e+00 5.4387e-02
-1.2702e+00 -7.6022e-01 1.9576e-01
-2.6412e-01 -9.6176e-02 2.9683e-01
6.9164e-01 5.2177e-01 3.4700e-01
1.4299e+00 9.9051e-01 3.4632e-01
1.9019e+00 1.2808e+00 3.0476e-01
2.1205e+00 1.4055e+00 2.3582e-01
-2.8215e+00 -3.3422e+00 2.6817e-01
-2.7306e+00 -3.2929e+00 1.2900e-01
-2.1628e+00 -2.6596e+00 -1.3856e-02
-1.2463e+00 -1.5943e+00 -1.4334e-01
-1.6070e-01 -3.1252e-01 -2.4293e-01
8.5619e-01 9.0017e-01 -2.9686e-01
1.6290e+00 1.8338e+00 -3.0167e-01
2.1129e+00 2.4290e+00 -2.6717e-01
2.3241e+00 2.6996e+00 -2.0752e-01
-3.0505e+00 -4.3450e+00 1.1002e+00
-2.8573e+00 -4.4844e+00 4.3248e-01
-2.1717e+00 -3.8020e+00 -2.0043e-01
-1.1413e+00 -2.4781e+00 -7.4269e-01
3.8648e-02 -7.9813e-01 -1.1362e+00
1.1150e+00 8.4671e-01 -1.3276e+00
1.9103e+00 2.1649e+00 -1.3134e+00
2.3871e+00 3.0552e+00 -1.1407e+00
2.5730e+00 3.5155e+00 -8.6739e-01
-3.2507e+00 -4.3849e+00 1.8114e+00
-2.9310e+00 -4.9695e+00 5.6611e-01
-2.1129e+00 -4.5640e+00 -5.6596e-01
-9.6720e-01 -3.3488e+00 -1.4967e+00
2.9347e-01 -1.6245e+00 -2.1337e+00
1.4089e+00 1.8126e-01 -2.4032e+00
2.2016e+00 1.7278e+00 -2.3143e+00
2.6527e+00 2.8743e+00 -1.9586e+00
2.8013e+00 3.5799e+00 -1.4443e+00
-3.3375e+00 -3.4816e+00 1.9415e+00
-2.8982e+00 -4.6942e+00 2.8989e-01
-1.9764e+00 -4.8494e+00 -1.1345e+00
-7.6012e-01 -4.0867e+00 -2.2272e+00
5.3260e-01 -2.6705e+00 -2.8962e+00
1.6405e+00 -9.9358e-01 -3.0848e+00
2.3995e+00 6.0294e-01 -2.8410e+00
2.8013e+00 1.9296e+00 -2.2953e+00
2.9016e+00 2.8991e+00 -1.5854e+00
-3.2360e+00 -2.0469e+00 1.2666e+00
-2.7298e+00 -3.8843e+00 -4.8378e-01
-1.7732e+00 -4.6889e+00 -1.8692e+00
-5.6069e-01 -4.5501e+00 -2.7929e+00
6.8760e-01 -3.6524e+00 -3.2022e+00
1.7302e+00 -2.3048e+00 -3.1143e+00
2.4180e+00 -8.2056e-01 -2.6280e+00
2.7655e+00 5.8989e-01 -1.9056e+00
2.8236e+00 1.7783e+00 -1.0969e+00
-2.9727e+00 -6.3276e-01 -5.3150e-02
-2.4486e+00 -2.8683e+00 -1.6325e+00
-1.5131e+00 -4.2091e+00 -2.6857e+00
-3.8646e-01 -4.6516e+00 -3.1512e+00
7.4221e-01 -4.2928e+00 -3.0611e+00
1.6597e+00 -3.3441e+00 -2.5403e+00
2.2394e+00 -2.0730e+00 -1.7624e+00
2.4941e+00 -7.1017e-01 -8.8144e-01
2.5178e+00 5.8887e-01 -2.8242e-02
-2.6958e+00 4.3318e-01 -1.7240e+00
-2.0568e+00 -1.9340e+00 -2.9294e+00
-1.2229e+00 -3.5893e+00 -3.4689e+00
-2.4999e-01 -4.4090e+00 -3.3093e+00
7.1328e-01 -4.4478e+00 -2.6038e+00
1.4734e+00 -3.8513e+00 -1.6014e+00
1.9301e+00 -2.8304e+00 -5.2816e-01
2.0664e+00 -1.6056e+00 4.4965e-01
1.8819e+00 -3.2074e-01 1.2363e+00
-3.7267e+00 -5.0052e-08 -1.1523e+00
-3.8058e+00 2.1449e-07 -4.8231e-01
-3.2149e+00 9.0199e-09 1.7139e-01
-2.0892e+00 6.7317e-08 7.2400e-01
-6.6395e-01 -5.0284e-08 1.1286e+00
7.3011e-01 -9.1152e-08 1.3407e+00
1.8394e+00 -8.8918e-08 1.3491e+00
2.5792e+00 -2.3090e-07 1.1906e+00
2.9536e+00 -1.4318e-07 9.1325e-01
-3.8675e+00 -1.8245e+00 -1.0535e+00
-3.9622e+00 -1.7257e+00 -4.2336e-01
-3.3408e+00 -1.3154e+00 1.8050e-01
-2.1635e+00 -7.0052e-01 6.9499e-01
-6.7397e-01 4.4701e-04 1.0700e+00
7.8420e-01 6.4172e-01 1.2580e+00
1.9470e+00 1.1180e+00 1.2550e+00
2.7239e+00 1.4035e+00 1.1008e+00
3.1230e+00 1.5213e+00 8.4485e-01
-4.1275e+00 -3.5433e+00 -5.2650e-01
-4.1381e+00 -3.3836e+00 -1.8338e-01
-3.4122e+00 -2.6355e+00 1.2818e-01
-2.1184e+00 -1.4653e+00 3.8733e-01
-5.1882e-01 -9.8571e-02 5.7099e-01
1.0222e+00 1.1675e+00 6.5779e-01
2.2318e+00 2.1188e+00 6.4753e-01
3.0203e+00 2.7012e+00 5.6172e-01
3.3974e+00 2.9393e+00 4.2735e-01
-4.4770e+00 -4.6511e+00 2.9266e-01
-4.3061e+00 -4.6095e+00 1.1314e-01
-3.3930e+00 -3.7510e+00 -5.8704e-02
-1.9248e+00 -2.2698e+00 -2.0644e-01
-1.8628e-01 -4.6552e-01 -3.1327e-01
1.4377e+00 1.2551e+00 -3.6327e-01
2.6688e+00 2.5921e+00 -3.5548e-01
3.4308e+00 3.4531e+00 -3.0431e-01
3.7492e+00 3.8520e+00 -2.2655e-01
-4.8025e+00 -4.7426e+00 9.9318e-01
-4.3902e+00 -5.0891e+00 2.2793e-01
-3.2559e+00 -4.4633e+00 -4.4458e-01
-1.6070e+00 -3.0598e+00 -9.7651e-01
2.5266e-01 -1.1944e+00 -1.3227e+00
1.9239e+00 6.8762e-01 -1.4462e+00
3.1357e+00 2.2409e+00 -1.3595e+00
3.8306e+00 3.3335e+00 -1.1232e+00
4.0583e+00 3.9480e+00 -8.0154e-01
-4.9265e+00 -3.8298e+00 1.0945e+00
-4.2992e+00 -4.7663e+00 -8.4364e-02
-2.9939e+00 -4.6750e+00 -1.0477e+00
-1.2361e+00 -3.7147e+00 -1.7339e+00
6.6182e-01 -2.1662e+00 -2.1009e+00
2.3055e+00 -4.3317e-01 -2.1323e+00
3.4435e+00 1.1417e+00 -1.8800e+00
4.0443e+00 2.3869e+00 -1.4445e+00
4.1761e+00 3.2417e+00 -9.2361e-01
-4.7363e+00 -2.3784e+00 3.8911e-01
-3.9849e+00 -3.8902e+00 -8.9342e-01
-2.6241e+00 -4.4234e+00 -1.8184e+00
-8.8647e-01 -4.0849e+00 -2.3286e+00
9.2386e-01 -3.0727e+00 -2.4262e+00
2.4417e+00 -1.7010e+00 -2.1683e+00
3.4479e+00 -2.7320e-01 -1.6614e+00
3.9335e+00 1.0179e+00 -1.0363e+00
3.9766e+00 2.0636e+00 -4.0520e-01
-4.2447e+00 -9.6407e-01 -9.3179e-01
-3.4842e+00 -2.8258e+00 -2.0536e+00
-2.1823e+00 -3.8584e+00 -2.6568e+00
-5.9722e-01 -4.0878e+00 -2.7192e+00
1.0053e+00 -3.6239e+00 -2.3207e+00
2.3104e+00 -2.6748e+00 -1.6296e+00
3.1367e+00 -1.4906e+00 -8.2404e-01
3.4864e+00 -2.7120e-01 -3.6362e-02
3.4743e+00 8.6755e-01 6.3990e-01
-3.6270e+00 5.3997e-02 -2.5126e+00
-2.8432e+00 -1.8738e+00 -3.3268e+00
-1.7180e+00 -3.1778e+00 -3.4530e+00
-3.8685e-01 -3.7637e+00 -2.9266e+00
9.3609e-01 -3.6902e+00 -1.9403e+00
1.9934e+00 -3.1022e+00 -7.7778e-01
2.6312e+00 -2.1863e+00 3.2114e-01
2.8529e+00 -1.1247e+00 1.2304e+00
2.6839e+00 -4.9194e-02 1.8785e+00
-4.2555e+00 2.3410e-07 -1.9443e+00
-4.6160e+00 -5.1682e-08 -7.4511e-01
-4.1424e+00 1.4445e-07 3.9624e-01
-2.9495e+00 -1.2444e-07 1.3456e+00
-1.3123e+00 -5.9741e-08 2.0279e+00
3.6746e-01 -1.0227e-07 2.3656e+00
1.7734e+00 -2.1529e-07 2.3459e+00
2.7714e+00 -1.2805e-07 2.0404e+00
3.3421e+00 -3.1915e-07 1.5270e+00
-4.2804e+00 -1.8960e+00 -1.8565e+00
-4.7278e+00 -1.7405e+00 -6.7053e-01
-4.2625e+00 -1.2664e+00 4.4432e-01
-3.0598e+00 -6.0142e-01 1.3789e+00
-1.3918e+00 1.3173e-01 2.0421e+00
3.3803e-01 7.8645e-01 2.3537e+00
1.7962e+00 1.2598e+00 2.3110e+00
2.8506e+00 1.5289e+00 1.9927e+00
3.4846e+00 1.6335e+00 1.4998e+00
-4.5127e+00 -3.7229e+00 -1.3521e+00
-4.8775e+00 -3.4163e+00 -4.1220e-01
-4.3120e+00 -2.5290e+00 4.3147e-01
-2.9979e+00 -1.2465e+00 1.1221e+00
-1.2254e+00 1.9575e-01 1.5969e+00
5.8230e-01 1.4970e+00 1.8033e+00
2.0833e+00 2.4400e+00 1.7438e+00
3.1460e+00 2.9867e+00 1.4830e+00
3.7482e+00 3.1750e+00 1.0999e+00
-4.9144e+00 -4.9699e+00 -5.4639e-01
-5.0388e+00 -4.6636e+00 -1.0677e-01
-4.2407e+00 -3.5744e+00 2.6934e-01
-2.7200e+00 -1.9121e+00 5.6003e-01
-7.9039e-01 1.3514e-02 7.4550e-01
1.1012e+00 1.7847e+00 8.0983e-01
2.6104e+00 3.1032e+00 7.6074e-01
3.6192e+00 3.8917e+00 6.3069e-01
4.1290e+00 4.1884e+00 4.5318e-01
-5.3342e+00 -5.1847e+00 1.5537e-01
-5.1152e+00 -5.1566e+00 1.2179e-02
-4.0167e+00 -4.2111e+00 -1.1065e-01
-2.2597e+00 -2.5611e+00 -2.0432e-01
-1.8187e-01 -5.3801e-01 -2.6091e-01
1.7563e+00 1.4015e+00 -2.7413e-01
3.2188e+00 2.9139e+00 -2.4746e-01
4.1201e+00 3.8961e+00 -1.9369e-01
4.4883e+00 4.3576e+00 -1.2737e-01
-5.5288e+00 -4.3650e+00 2.8716e-01
-4.9801e+00 -4.8299e+00 -2.9204e-01
-3.6319e+00 -4.3452e+00 -7.2291e-01
-1.7202e+00 -3.0900e+00 -9.8561e-01
4.0989e-01 -1.3606e+00 -1.0737e+00
2.3028e+00 4.2432e-01 -1.0006e+00
3.6526e+00 1.9328e+00 -8.0787e-01
4.4036e+00 3.0256e+00 -5.4809e-01
4.6147e+00 3.6779e+00 -2.7295e-01
-5.3086e+00 -2.9583e+00 -3.4581e-01
-4.5634e+00 -3.9365e+00 -1.0772e+00
-3.1174e+00 -4.0262e+00 -1.5105e+00
-1.2148e+00 -3.3604e+00 -1.6323e+00
8.0917e-01 -2.1571e+00 -1.4762e+00
2.5387e+00 -7.4237e-01 -1.1264e+00
3.7072e+00 5.9486e-01 -6.7858e-01
4.2946e+00 1.7057e+00 -2.2042e-01
4.3766e+00 2.5164e+00 1.8244e-01
-4.6872e+00 -1.5590e+00 -1.5395e+00
-3.9044e+00 -2.8522e+00 -2.1882e+00
-2.5258e+00 -3.4112e+00 -2.3661e+00
-8.0607e-01 -3.2962e+00 -2.0969e+00
9.6104e-01 -2.6370e+00 -1.4892e+00
2.4227e+00 -1.6542e+00 -7.2815e-01
3.3659e+00 -5.7600e-01 1.7377e-02
3.7862e+00 4.4239e-01 6.5709e-01
3.7825e+00 1.3203e+00 1.1298e+00
-3.8488e+00 -5.2953e-01 -2.9482e+00
-3.0898e+00 -1.8769e+00 -3.3834e+00
-1.9213e+00 -2.6983e+00 -3.1730e+00
-5.1497e-01 -2.9377e+00 -2.3959e+00
9.0484e-01 -2.6760e+00 -1.2599e+00
2.0551e+00 -2.0624e+00 -5.8712e-02
2.7703e+00 -1.2596e+00 9.8311e-01
3.0434e+00 -4.1118e-01 1.7609e+00
2.9194e+00 3.9751e-01 2.2467e+00
-3.9548e+00 -1.1626e-07 -2.4644e+00
-4.7783e+00 2.0262e-07 -7.7498e-01
-4.6804e+00 -1.7866e-08 7.7024e-01
-3.7285e+00 -1.7050e-09 2.0198e+00
-2.1900e+00 -2.3228e-07 2.8755e+00
-4.7252e-01 -1.2376e-07 3.2520e+00
1.0742e+00 -4.3036e-08 3.1464e+00
2.2802e+00 -1.5079e-07 2.6646e+00
3.0718e+00 8.8745e-09 1.9142e+00
-3.7754e+00 -1.9102e+00 -2.2874e+00
-4.7688e+00 -1.7026e+00 -6.3081e-01
-4.7466e+00 -1.1766e+00 8.7963e-01
-3.8595e+00 -4.8000e-01 2.0950e+00
-2.3581e+00 2.6294e-01 2.9107e+00
-6.3758e-01 9.1051e-01 3.2365e+00
9.4686e-01 1.3635e+00 3.0889e+00
2.2133e+00 1.6066e+00 2.5856e+00
3.1159e+00 1.6952e+00 1.8718e+00
-3.8884e+00 -3.7830e+00 -1.7354e+00
-4.8244e+00 -3.3328e+00 -3.0924e-01
-4.7351e+00 -2.3321e+00 9.2481e-01
-3.7746e+00 -9.8073e-01 1.8841e+00
-2.2100e+00 4.8752e-01 2.4918e+00
-4.4667e-01 1.7745e+00 2.6913e+00
1.1598e+00 2.6739e+00 2.5101e+00
2.4270e+00 3.1583e+00 2.0540e+00
3.2893e+00 3.2843e+00 1.4429e+00
-4.2635e+00 -5.1107e+00 -9.1618e-01
-4.9297e+00 -4.5513e+00 3.2127e-02
-4.5908e+00 -3.2667e+00 8.0877e-01
-3.4221e+00 -1.4815e+00 1.3676e+00
-1.7131e+00 4.9320e-01 1.6765e+00
1.1390e-01 2.2457e+00 1.7196e+00
1.7018e+00 3.4905e+00 1.5337e+00
2.8886e+00 4.1735e+00 1.1955e+00
3.6351e+00 4.3558e+00 7.8197e-01
-4.7417e+00 -5.4555e+00 -2.0727e-01
-4.9782e+00 -5.0424e+00 1.7438e-01
-4.2783e+00 -3.8028e+00 4.5932e-01
-2.8379e+00 -1.9631e+00 6.3446e-01
-9.6694e-01 1.4369e-01 6.9475e-01
8.9610e-01 2.0636e+00 6.5059e-01
2.4096e+00 3.4737e+00 5.3057e-01
3.4461e+00 4.2977e+00 3.6711e-01
4.0011e+00 4.5809e+00 1.9187e-01
-5.0216e+00 -4.7677e+00 -3.3631e-02
-4.8246e+00 -4.7331e+00 -1.0043e-01
-3.7964e+00 -3.8608e+00 -1.3871e-01
-2.1484e+00 -2.3467e+00 -1.4967e-01
-2.0118e-01 -4.9524e-01 -1.3740e-01
1.6132e+00 1.2767e+00 -1.0769e-01
2.9837e+00 2.6591e+00 -6.7772e-02
3.8269e+00 3.5543e+00 -2.5419e-02
4.1721e+00 3.9753e+00 1.2600e-02
-4.8690e+00 -3.4613e+00 -5.6311e-01
-4.3768e+00 -3.8591e+00 -8.3732e-01
-3.1810e+00 -3.4952e+00 -9.2744e-01
-1.4990e+00 -2.5182e+00 -8.4151e-01
3.6190e-01 -1.1603e+00 -6.2101e-01
2.0061e+00 2.4993e-01 -3.3494e-01
3.1699e+00 1.4503e+00 -4.5386e-02
3.8083e+00 2.3322e+00 2.0482e-01
3.9755e+00 2.8718e+00 3.9018e-01
-4.2579e+00 -2.0915e+00 -1.6093e+00
-3.6622e+00 -2.7841e+00 -1.8816e+00
-2.4952e+00 -2.8627e+00 -1.7921e+00
-9.7457e-01 -2.4113e+00 -1.3844e+00
6.3342e-01 -1.5812e+00 -7.6524e-01
1.9994e+00 -5.9652e-01 -9.7992e-02
2.9160e+00 3.4113e-01 4.8667e-01
3.3625e+00 1.1229e+00 9.2967e-01
3.4107e+00 1.7133e+00 1.2071e+00
-3.3558e+00 -1.0298e+00 -2.8379e+00
-2.7838e+00 -1.8001e+00 -3.0004e+00
-1.8100e+00 -2.1438e+00 -2.6144e+00
-5.9884e-01 -2.0583e+00 -1.7843e+00
6.4947e-01 -1.6349e+00 -7.0030e-01
1.6862e+00 -1.0217e+00 3.7828e-01
2.3533e+00 -3.5837e-01 1.2559e+00
2.6406e+00 2.6373e-01 1.8637e+00
2.5917e+00 7.9405e-01 2.1957e+00
-3.0124e+00 1.8567e-07 -2.4452e+00
-4.3683e+00 -3.4441e-08 -4.3979e-01
-4.8146e+00 2.3941e-07 1.2911e+00
-4.3257e+00 -1.2001e-07 2.6094e+00
-3.1265e+00 -6.2297e-08 3.4383e+00
-1.5892e+00 -1.0616e-07 3.7080e+00
-4.8538e-02 -1.5473e-07 3.4491e+00
1.2781e+00 3.9355e-08 2.7906e+00
2.2771e+00 -8.8453e-08 1.8483e+00
-2.6106e+00 -1.8453e+00 -2.0508e+00
-4.2147e+00 -1.5945e+00 -1.6916e-01
-4.7869e+00 -1.0498e+00 1.4646e+00
-4.4338e+00 -3.5793e-01 2.6875e+00
-3.3479e+00 3.6063e-01 3.4113e+00
-1.8637e+00 9.7194e-01 3.5841e+00
-3.2225e-01 1.3853e+00 3.2558e+00
1.0703e+00 1.5925e+00 2.5788e+00
2.2179e+00 1.6521e+00 1.7303e+00
-2.5986e+00 -3.6365e+00 -1.3846e+00
-4.1571e+00 -3.1018e+00 2.5016e-01
-4.6877e+00 -2.0611e+00 1.5773e+00
-4.3061e+00 -7.1868e-01 2.5075e+00
-3.2117e+00 6.9381e-01 2.9813e+00
-1.7347e+00 1.9011e+00 2.9901e+00
-2.0529e-01 2.7111e+00 2.6017e+00
1.1719e+00 3.1211e+00 1.9585e+00
2.2712e+00 3.1904e+00 1.2063e+00
-2.9235e+00 -4.9447e+00 -5.2538e-01
-4.1828e+00 -4.2217e+00 6.4695e-01
-4.4578e+00 -2.8517e+00 1.5224e+00
-3.8821e+00 -1.0665e+00 2.0445e+00
-2.6709e+00 8.3457e-01 2.2037e+00
-1.1637e+00 2.4682e+00 2.0350e+00
3.1629e-01 3.5770e+00 1.6214e+00
1.5820e+00 4.1303e+00 1.0782e+00
2.5431e+00 4.2051e+00 5.0909e-01
-3.4169e+00 -5.3339e+00 1.7721e-01
-4.1931e+00 -4.6632e+00 8.1653e-01
-4.0688e+00 -3.2709e+00 1.2195e+00
-3.2003e+00 -1.3927e+00 1.3672e+00
-1.8238e+00 6.4858e-01 1.2774e+00
-2.9126e-01 2.4339e+00 1.0134e+00
1.0901e+00 3.6716e+00 6.5377e-01
2.1761e+00 4.3212e+00 2.7304e-01
2.9120e+00 4.4502e+00 -7.1462e-02
-3.7809e+00 -4.7618e+00 3.5124e-01
-4.0401e+00 -4.3617e+00 5.6370e-01
-3.5244e+00 -3.2529e+00 6.5285e-01
-2.4009e+00 -1.6408e+00 6.1512e-01
-9.1884e-01 1.8164e-01 4.7378e-01
5.7217e-01 1.8257e+00 2.7676e-01
1.7982e+00 3.0190e+00 7.0417e-02
2.6566e+00 3.7021e+00 -1.1165e-01
3.1383e+00 3.9192e+00 -2.5065e-01
-3.7400e+00 -3.5744e+00 -1.2276e-01
-3.6172e+00 -3.5277e+00 -1.3671e-01
-2.8618e+00 -2.8578e+00 -1.2205e-01
-1.6453e+00 -1.7234e+00 -8.6673e-02
-2.0783e-01 -3.5168e-01 -4.0691e-02
1.1332e+00 9.5257e-01 4.8540e-03
2.1474e+00 1.9622e+00 4.2805e-02
2.7759e+00 2.6123e+00 6.9600e-02
3.0411e+00 2.9151e+00 8.4090e-02
-3.2348e+00 -2.2694e+00 -1.0701e+00
-2.9297e+00 -2.4908e+00 -1.1339e+00
-2.1423e+00 -2.2312e+00 -9.8994e-01
-1.0330e+00 -1.5891e+00 -6.7914e-01
1.9349e-01 -7.1464e-01 -2.7127e-01
1.2784e+00 1.8359e-01 1.3529e-01
2.0478e+00 9.4013e-01 4.6530e-01
2.4692e+00 1.4898e+00 6.9406e-01
2.5839e+00 1.8272e+00 8.1564e-01
-2.3971e+00 -1.1993e+00 -2.1852e+00
-2.0767e+00 -1.5221e+00 -2.2051e+00
-1.4328e+00 -1.5310e+00 -1.8313e+00
-5.8902e-01 -1.2572e+00 -1.1573e+00
3.1006e-01 -7.8939e-01 -3.2577e-01
1.0802e+00 -2.5552e-01 4.7198e-01
1.6002e+00 2.4000e-01 1.0977e+00
1.8545e+00 6.4211e-01 1.5067e+00
1.8716e+00 9.3634e-01 1.7066e+00
-1.7483e+00 -6.2695e-08 -1.7962e+00
-3.6186e+00 1.8274e-07 2.6502e-01
-4.6166e+00 -5.4177e-08 1.8870e+00
-4.6484e+00 2.0473e-07 3.0142e+00
-3.8968e+00 1.8964e-08 3.5874e+00
-2.6527e+00 -2.0696e-08 3.5983e+00
-1.2243e+00 9.2685e-09 3.1307e+00
1.5103e-01 -1.5635e-07 2.3483e+00
1.2873e+00 -4.6968e-08 1.3226e+00
-1.2543e+00 -1.6720e+00 -1.1694e+00
-3.3556e+00 -1.4354e+00 6.7547e-01
-4.4882e+00 -9.0197e-01 2.1357e+00
-4.6954e+00 -2.5273e-01 3.0750e+00