<?xml version="1.0"?>
<VTKFile type="StructuredGrid" version="0.1">
  <StructuredGrid WholeExtent="0 8 0 8 0 8">
    <Piece Extent="0 8 0 8 0 8">
      <PointData Scalars="temperature" Vectors="velocity">
        <DataArray type="Float32" Name="temperature" format="ascii">
1.000000e+00
8.707939e-01
7.495220e-01
6.316469e-01
5.145590e-01
3.810196e-01
2.491313e-01
1.216169e-01
0.000000e+00
1.000000e+00
8.718504e-01
7.503651e-01
6.322072e-01
5.148322e-01
3.818246e-01
2.501674e-01
1.227195e-01
0.000000e+00
1.000000e+00
8.714258e-01
7.495942e-01
6.307175e-01
5.123659e-01
3.804099e-01
2.496143e-01
1.224907e-01
0.000000e+00
1.000000e+00
8.707679e-01
7.483346e-01
6.283319e-01
5.085607e-01
3.781596e-01
2.486735e-01
1.221183e-01
0.000000e+00
1.000000e+00
8.699805e-01
7.468209e-01
6.254590e-01
5.040805e-01
3.755073e-01
2.475454e-01
1.216602e-01
0.000000e+00
1.000000e+00
8.692261e-01
7.453600e-01
6.226769e-01
4.998332e-01
3.730062e-01
2.464722e-01
1.212183e-01
0.000000e+00
1.000000e+00
8.686519e-01
7.442412e-01
6.205380e-01
4.966292e-01
3.711293e-01
2.456632e-01
1.208835e-01
0.000000e+00
1.000000e+00
8.683336e-01
7.436197e-01
6.193491e-01
4.948837e-01
3.701048e-01
2.452220e-01
1.207019e-01
0.000000e+00
1.000000e+00
8.682640e-01
7.434908e-01
6.191092e-01
4.945524e-01
3.699008e-01
2.451325e-01
1.206644e-01
0.000000e+00
1.000000e+00
8.718504e-01
7.503651e-01
6.322072e-01
5.148322e-01
3.818246e-01
2.501674e-01
1.227195e-01
0.000000e+00
1.000000e+00
8.717294e-01
7.501532e-01
6.318079e-01
5.143640e-01
3.814619e-01
2.500479e-01
1.226860e-01
0.000000e+00
1.000000e+00
8.714057e-01
7.494880e-01
6.304797e-01
5.122042e-01
3.801964e-01
2.495502e-01
1.224967e-01
0.000000e+00
1.000000e+00
8.707217e-01
7.482030e-01
6.280642e-01
5.083820e-01
3.779198e-01
2.485860e-01
1.221043e-01
0.000000e+00
1.000000e+00
8.698794e-01
7.466026e-01
6.250450e-01
5.036480e-01
3.751436e-01
2.473975e-01
1.216126e-01
0.000000e+00
1.000000e+00
8.690648e-01
7.450419e-01
6.220835e-01
4.990742e-01
3.724979e-01
2.462575e-01
1.211372e-01
0.000000e+00
1.000000e+00
8.684534e-01
7.438600e-01
6.198273e-01
4.956469e-01
3.705321e-01
2.454076e-01
1.207813e-01
0.000000e+00
1.000000e+00
8.681321e-01
7.432348e-01
6.186294e-01
4.938608e-01
3.695063e-01
2.449641e-01
1.205967e-01
0.000000e+00
1.000000e+00
8.680893e-01
7.431513e-01
6.184700e-01
4.936461e-01
3.693704e-01
2.449056e-01
1.205736e-01
0.000000e+00
1.000000e+00
8.714258e-01
7.495942e-01
6.307175e-01
5.123659e-01
3.804099e-01
2.496143e-01
1.224907e-01
0.000000e+00
1.000000e+00
8.714057e-01
7.494880e-01
6.304797e-01
5.122042e-01
3.801964e-01
2.495502e-01
1.224967e-01
0.000000e+00
1.000000e+00
8.710316e-01
7.487773e-01
6.291408e-01
5.100890e-01
3.789278e-01
2.490047e-01
1.222696e-01
0.000000e+00
1.000000e+00
8.703342e-01
7.474584e-01
6.266555e-01
5.061949e-01
3.766165e-01
2.480185e-01
1.218659e-01
0.000000e+00
1.000000e+00
8.694414e-01
7.457636e-01
6.234645e-01
5.012431e-01
3.737375e-01
2.467855e-01
1.213547e-01
0.000000e+00
1.000000e+00
8.685767e-01
7.441077e-01
6.203271e-01
4.964498e-01
3.709923e-01
2.456041e-01
1.208615e-01
0.000000e+00
1.000000e+00
8.679463e-01
7.428866e-01
6.179944e-01
4.929470e-01
3.690002e-01
2.447434e-01
1.205013e-01
0.000000e+00
1.000000e+00
8.676475e-01
7.422992e-01
6.168632e-01
4.912772e-01
3.680472e-01
2.443308e-01
1.203297e-01
0.000000e+00
1.000000e+00
8.676449e-01
7.422938e-01
6.168553e-01
4.913218e-01
3.680356e-01
2.443234e-01
1.203260e-01
0.000000e+00
1.000000e+00
8.707679e-01
7.483346e-01
6.283319e-01
5.085607e-01
3.781596e-01
2.486735e-01
1.221183e-01
0.000000e+00
1.000000e+00
8.707217e-01
7.482030e-01
6.280642e-01
5.083820e-01
3.779198e-01
2.485860e-01
1.221043e-01
0.000000e+00
1.000000e+00
8.703342e-01
7.474584e-01
6.266555e-01
5.061949e-01
3.766165e-01
2.480185e-01
1.218659e-01
0.000000e+00
1.000000e+00
8.695972e-01
7.460597e-01
6.240219e-01
5.021376e-01
3.742377e-01
2.469956e-01
1.214415e-01
0.000000e+00
1.000000e+00
8.686580e-01
7.442710e-01
6.206539e-01
4.969938e-01
3.712953e-01
2.457314e-01
1.209129e-01
0.000000e+00
1.000000e+00
8.677642e-01
7.425514e-01
6.173941e-01
4.920919e-01
3.685357e-01
2.445412e-01
1.204123e-01
0.000000e+00
1.000000e+00
8.671435e-01
7.413390e-01
6.150697e-01
4.886585e-01
3.666103e-01
2.437060e-01
1.200607e-01
0.000000e+00
1.000000e+00
8.668958e-01
7.408396e-01
6.140974e-01
4.872435e-01
3.658096e-01
2.433557e-01
1.199140e-01
0.000000e+00
1.000000e+00
8.669492e-01
7.409455e-01
6.143097e-01
4.876684e-01
3.659702e-01
2.434170e-01
1.199354e-01
0.000000e+00
1.000000e+00
8.699805e-01
7.468209e-01
6.254590e-01
5.040805e-01
3.755073e-01
2.475454e-01
1.216602e-01
0.000000e+00
1.000000e+00
8.698794e-01
7.466026e-01
6.250450e-01
5.036480e-01
3.751436e-01
2.473975e-01
1.216126e-01
0.000000e+00
1.000000e+00
8.694414e-01
7.457636e-01
6.234645e-01
5.012431e-01
3.737375e-01
2.467855e-01
1.213547e-01
0.000000e+00
1.000000e+00
8.686580e-01
7.442710e-01
6.206539e-01
4.969938e-01
3.712953e-01
2.457314e-01
1.209129e-01
0.000000e+00
1.000000e+00
8.676852e-01
7.424075e-01
6.171387e-01
4.917290e-01
3.683413e-01
2.444564e-01
1.203747e-01
0.000000e+00
1.000000e+00
8.667828e-01
7.406587e-01
6.138157e-01
4.868319e-01
3.656343e-01
2.432825e-01
1.198763e-01
0.000000e+00
1.000000e+00
8.661875e-01
7.394826e-01
6.115491e-01
4.835545e-01
3.638217e-01
2.424898e-01
1.195396e-01
0.000000e+00
1.000000e+00
8.659960e-01
7.390816e-01
6.107560e-01
4.824242e-01
3.631840e-01
2.422053e-01
1.194191e-01
0.000000e+00
1.000000e+00
8.660983e-01
7.392911e-01
6.111813e-01
4.832170e-01
3.634994e-01
2.423264e-01
1.194593e-01
0.000000e+00
1.000000e+00
8.692261e-01
7.453600e-01
6.226769e-01
4.998332e-01
3.730062e-01
2.464722e-01
1.212183e-01
0.000000e+00
1.000000e+00
8.690648e-01
7.450419e-01
6.220835e-01
4.990742e-01
3.724979e-01
2.462575e-01
1.211372e-01
0.000000e+00
1.000000e+00
8.685767e-01
7.441077e-01
6.203271e-01
4.964498e-01
3.709923e-01
2.456041e-01
1.208615e-01
0.000000e+00
1.000000e+00
8.677642e-01
7.425514e-01
6.173941e-01
4.920919e-01
3.685357e-01
2.445412e-01
1.204123e-01
0.000000e+00
1.000000e+00
8.667828e-01
7.406587e-01
6.138157e-01
4.868319e-01
3.656343e-01
2.432825e-01
1.198763e-01
0.000000e+00
1.000000e+00
8.658867e-01
7.389098e-01
6.104870e-01
4.820203e-01
3.630172e-01
2.421406e-01
1.193869e-01
0.000000e+00
1.000000e+00
8.653084e-01
7.377577e-01
6.082622e-01
4.788676e-01
3.612984e-01
2.413832e-01
1.190622e-01
0.000000e+00
1.000000e+00
8.651420e-01
7.374009e-01
6.075535e-01
4.778799e-01
3.607458e-01
2.411321e-01
1.189538e-01
0.000000e+00
1.000000e+00
8.652541e-01
7.376476e-01
6.080695e-01
4.788321e-01
3.611169e-01
2.412689e-01
1.189932e-01
0.000000e+00
1.000000e+00
8.686519e-01
7.442412e-01
6.205380e-01
4.966292e-01
3.711293e-01
2.456632e-01
1.208835e-01
0.000000e+00
1.000000e+00
8.684534e-01
7.438600e-01
6.198273e-01
4.956469e-01
3.705321e-01
2.454076e-01
1.207813e-01
0.000000e+00
1.000000e+00
8.679463e-01
7.428866e-01
6.179944e-01
4.929470e-01
3.690002e-01
2.447434e-01
1.205013e-01
0.000000e+00
1.000000e+00
8.671435e-01
7.413390e-01
6.150697e-01
4.886585e-01
3.666103e-01
2.437060e-01
1.200607e-01
0.000000e+00
1.000000e+00
8.661875e-01
7.394826e-01
6.115491e-01
4.835545e-01
3.638217e-01
2.424898e-01
1.195396e-01
0.000000e+00
1.000000e+00
8.653084e-01
7.377577e-01
6.082622e-01
4.788676e-01
3.612984e-01
2.413832e-01
1.190622e-01
0.000000e+00
1.000000e+00
8.647180e-01
7.365848e-01
6.060082e-01
4.757175e-01
3.596061e-01
2.406368e-01
1.187409e-01
0.000000e+00
1.000000e+00
8.645220e-01
7.361730e-01
6.052065e-01
4.746158e-01
3.590099e-01
2.403708e-01
1.186261e-01
0.000000e+00
1.000000e+00
8.645825e-01
7.363454e-01
6.056035e-01
4.753809e-01
3.592872e-01
2.404576e-01
1.186308e-01
0.000000e+00
1.000000e+00
8.683336e-01
7.436197e-01
6.193491e-01
4.948837e-01
3.701048e-01
2.452220e-01
1.207019e-01
0.000000e+00
1.000000e+00
8.681321e-01
7.432348e-01
6.186294e-01
4.938608e-01
3.695063e-01
2.449641e-01
1.205967e-01
0.000000e+00
1.000000e+00
8.676475e-01
7.422992e-01
6.168632e-01
4.912772e-01
3.680472e-01
2.443308e-01
1.203297e-01
0.000000e+00
1.000000e+00
8.668958e-01
7.408396e-01
6.140974e-01
4.872435e-01
3.658096e-01
2.433557e-01
1.199140e-01
0.000000e+00
1.000000e+00
8.659960e-01
7.390816e-01
6.107560e-01
4.824242e-01
3.631840e-01
2.422053e-01
1.194191e-01
0.000000e+00
1.000000e+00
8.651420e-01
7.374009e-01
6.075535e-01
4.778799e-01
3.607458e-01
2.411321e-01
1.189538e-01
0.000000e+00
1.000000e+00
8.645220e-01
7.361730e-01
6.052065e-01
4.746158e-01
3.590099e-01
2.403708e-01
1.186261e-01
0.000000e+00
1.000000e+00
8.641480e-01
7.355181e-01
6.040597e-01
4.731032e-01
3.581965e-01
2.400053e-01
1.184671e-01
0.000000e+00
1.000000e+00
8.641632e-01
7.355556e-01
6.041847e-01
4.733951e-01
3.582879e-01
2.400398e-01
1.184824e-01
0.000000e+00
1.000000e+00
8.682640e-01
7.434908e-01
6.191092e-01
4.945524e-01
3.699008e-01
2.451325e-01
1.206644e-01
0.000000e+00
1.000000e+00
8.680893e-01
7.431513e-01
6.184700e-01
4.936461e-01
3.693704e-01
2.449056e-01
1.205736e-01
0.000000e+00
1.000000e+00
8.676449e-01
7.422938e-01
6.168553e-01
4.913218e-01
3.680356e-01
2.443234e-01
1.203260e-01
0.000000e+00
1.000000e+00
8.669492e-01
7.409455e-01
6.143097e-01
4.876684e-01
3.659702e-01
2.434170e-01
1.199354e-01
0.000000e+00
1.000000e+00
8.660983e-01
7.392911e-01
6.111813e-01
4.832170e-01
3.634994e-01
2.423264e-01
1.194593e-01
0.000000e+00
1.000000e+00
8.652541e-01
7.376476e-01
6.080695e-01
4.788321e-01
3.611169e-01
2.412689e-01
1.189932e-01
0.000000e+00
1.000000e+00
8.645825e-01
7.363454e-01
6.056035e-01
4.753809e-01
3.592872e-01
2.404576e-01
1.186308e-01
0.000000e+00
1.000000e+00
8.641632e-01
7.355556e-01
6.041847e-01
4.733951e-01
3.582879e-01
2.400398e-01
1.184824e-01
0.000000e+00
1.000000e+00
8.627851e-01
7.342143e-01
6.026978e-01
4.719268e-01
3.570933e-01
2.388837e-01
1.173871e-01
0.000000e+00
        </DataArray>
        <DataArray type="Float32" Name="velocity" NumberOfComponents="3" format="ascii">
-4.491170e-01 -4.843714e-07 7.062910e-01
2.088202e+00 -4.180473e-07 2.298368e+00
3.766961e+00 -4.965387e-07 3.168491e+00
4.605623e+00 -4.412826e-07 3.376869e+00
4.618439e+00 -4.083654e-07 2.994072e+00
3.969139e+00 -4.248504e-07 2.210009e+00
2.885765e+00 -4.079136e-07 1.235627e+00
1.604887e+00 -4.431808e-07 2.402458e-01
3.916154e-01 -4.983056e-07 -6.158629e-01
-7.404579e-01 1.489174e+00 1.598802e+00
1.743719e+00 1.093111e+00 2.883244e+00
3.511248e+00 6.509021e-01 3.495583e+00
4.460238e+00 1.174061e-01 3.390820e+00
4.620053e+00 -4.109217e-01 2.719574e+00
4.106165e+00 -8.311220e-01 1.715261e+00
3.118501e+00 -1.080311e+00 6.163902e-01
1.893310e+00 -1.156925e+00 -4.049763e-01
5.807696e-01 -1.004841e+00 -1.222996e+00
-6.353316e-01 2.685789e+00 2.511784e+00
1.585206e+00 2.039603e+00 3.456009e+00
3.189193e+00 1.205784e+00 3.690748e+00
4.044193e+00 2.349903e-01 3.219040e+00
4.185626e+00 -7.377490e-01 2.223547e+00
3.722823e+00 -1.517624e+00 9.985362e-01
2.829738e+00 -1.986805e+00 -1.956252e-01
1.709658e+00 -2.130219e+00 -1.198339e+00
5.118930e-01 -1.961061e+00 -1.932677e+00
-1.955442e-01 3.323369e+00 3.214349e+00
1.549049e+00 2.590171e+00 3.796047e+00
2.763153e+00 1.558793e+00 3.650143e+00
3.348287e+00 3.440401e-01 2.845144e+00
3.345080e+00 -8.751265e-01 1.596404e+00
2.869485e+00 -1.865191e+00 2.275448e-01
2.079443e+00 -2.470241e+00 -9.870929e-01
1.139632e+00 -2.683363e+00 -1.917997e+00
1.750586e-01 -2.535506e+00 -2.515915e+00
3.654780e-01 3.268852e+00 3.476661e+00
1.521793e+00 2.607667e+00 3.734596e+00
2.248977e+00 1.615323e+00 3.317471e+00
2.485163e+00 4.275738e-01 2.328608e+00
2.293590e+00 -7.805883e-01 9.919302e-01
1.795868e+00 -1.772740e+00 -3.684902e-01
1.128749e+00 -2.395775e+00 -1.498379e+00
4.145650e-01 -2.636864e+00 -2.292655e+00
-2.703871e-01 -2.537604e+00 -2.740105e+00
7.559571e-01 2.576953e+00 3.152374e+00
1.366611e+00 2.121661e+00 3.206706e+00
1.653351e+00 1.371715e+00 2.695430e+00
1.603819e+00 4.467496e-01 1.737746e+00
1.286281e+00 -5.102257e-01 5.328918e-01
8.164703e-01 -1.312307e+00 -6.412163e-01
3.043742e-01 -1.832720e+00 -1.572325e+00
-1.777519e-01 -2.058802e+00 -2.189799e+00
-5.891767e-01 -2.025846e+00 -2.499784e+00
7.609491e-01 1.534073e+00 2.311840e+00
9.841886e-01 1.312976e+00 2.283511e+00
1.004793e+00 8.961262e-01 1.857336e+00
8.347852e-01 3.591340e-01 1.131389e+00
5.325129e-01 -2.123098e-01 2.513844e-01
1.832454e-01 -7.040607e-01 -5.850196e-01
-1.423745e-01 -1.037679e+00 -1.232216e+00
-4.075230e-01 -1.201844e+00 -1.645747e+00
-6.018230e-01 -1.215367e+00 -1.838662e+00
3.443048e-01 4.722268e-01 1.173574e+00
3.803852e-01 4.198332e-01 1.145488e+00
3.452951e-01 3.019572e-01 9.180422e-01
2.481717e-01 1.420041e-01 5.443993e-01
1.131857e-01 -3.298314e-02 9.905986e-02
-2.534684e-02 -1.887015e-01 -3.197820e-01
-1.414991e-01 -2.998591e-01 -6.404379e-01
-2.253772e-01 -3.609794e-01 -8.424108e-01
-2.759183e-01 -3.780791e-01 -9.345274e-01
-3.710722e-01 -3.702651e-01 -7.340305e-03
-3.525445e-01 -3.722282e-01 -7.906894e-03
-2.731609e-01 -3.069061e-01 -7.243250e-03
-1.534881e-01 -1.900983e-01 -5.220515e-03
-1.535896e-02 -4.719621e-02 -2.127056e-03
1.117065e-01 8.915305e-02 1.294426e-03
2.073242e-01 1.944376e-01 4.197996e-03
2.660140e-01 2.616670e-01 6.141234e-03
2.927134e-01 2.920181e-01 6.983862e-03
-7.404578e-01 -1.489175e+00 1.598802e+00
1.743719e+00 -1.093112e+00 2.883245e+00
3.511248e+00 -6.509028e-01 3.495583e+00
4.460238e+00 -1.174070e-01 3.390820e+00
4.620053e+00 4.109210e-01 2.719574e+00
4.106164e+00 8.311212e-01 1.715261e+00
3.118501e+00 1.080310e+00 6.163903e-01
1.893310e+00 1.156924e+00 -4.049762e-01
5.807695e-01 1.004840e+00 -1.222996e+00
-1.196601e+00 -5.032787e-07 2.471236e+00
1.266965e+00 -5.010636e-07 3.697439e+00
3.153168e+00 -3.533793e-07 3.985170e+00
4.293011e+00 -2.524234e-07 3.515904e+00
4.662599e+00 -3.386392e-07 2.478469e+00
4.327048e+00 -3.761475e-07 1.162671e+00
3.466696e+00 -3.769491e-07 -1.451762e-01
2.306410e+00 -3.827072e-07 -1.276074e+00
1.080654e+00 -4.363046e-07 -2.231782e+00
-1.296942e+00 1.269173e+00 3.566674e+00
9.834081e-01 9.877607e-01 4.459691e+00
2.752356e+00 5.717998e-01 4.358754e+00
3.865747e+00 9.096678e-02 3.467248e+00
4.282747e+00 -3.886984e-01 2.031183e+00
4.047926e+00 -7.715586e-01 4.132194e-01
3.308138e+00 -9.942185e-01 -1.059977e+00
2.267778e+00 -1.066518e+00 -2.234956e+00
1.133047e+00 -1.026286e+00 -3.093308e+00
-9.485730e-01 2.098170e+00 4.455396e+00
8.674895e-01 1.617367e+00 4.971797e+00
2.262739e+00 9.417214e-01 4.476436e+00
3.123307e+00 1.568353e-01 3.205251e+00
3.422010e+00 -6.264500e-01 1.450533e+00
3.200717e+00 -1.250924e+00 -3.739232e-01
2.585938e+00 -1.621881e+00 -1.922154e+00
1.743248e+00 -1.740279e+00 -3.050248e+00
8.310614e-01 -1.651227e+00 -3.771443e+00
-3.663464e-01 2.191845e+00 4.829606e+00
8.196671e-01 1.706611e+00 5.012915e+00
1.685864e+00 1.013748e+00 4.247482e+00
2.169543e+00 1.989494e-01 2.772787e+00
2.264974e+00 -6.177635e-01 8.971086e-01
2.024741e+00 -1.274460e+00 -9.529425e-01
1.550698e+00 -1.669495e+00 -2.440961e+00
9.530820e-01 -1.805416e+00 -3.450822e+00
3.366772e-01 -1.721402e+00 -4.004200e+00
9.704164e-02 1.577588e+00 4.513473e+00
6.681858e-01 1.251284e+00 4.495234e+00
1.040586e+00 7.687944e-01 3.666110e+00
1.189087e+00 1.907302e-01 2.239931e+00
1.128672e+00 -3.965016e-01 5.038327e-01
9.105063e-01 -8.747490e-01 -1.155538e+00
6.024329e-01 -1.171689e+00 -2.447115e+00
2.646751e-01 -1.284543e+00 -3.280743e+00
-5.662825e-02 -1.238935e+00 -3.682889e+00
1.498698e-01 5.423958e-01 3.590633e+00
2.882703e-01 4.389618e-01 3.513030e+00
3.564882e-01 2.802287e-01 2.814570e+00
3.525905e-01 8.612781e-02 1.665040e+00
2.872802e-01 -1.146965e-01 2.930611e-01
1.857185e-01 -2.825455e-01 -9.988193e-01
7.472175e-02 -3.912094e-01 -1.988788e+00
-3.026629e-02 -4.387857e-01 -2.613546e+00
-1.185584e-01 -4.334478e-01 -2.894569e+00
-2.683132e-01 -5.277403e-01 2.340826e+00
-3.268374e-01 -4.661063e-01 2.287765e+00
-3.187219e-01 -3.275234e-01 1.831108e+00
-2.544442e-01 -1.410654e-01 1.082380e+00
-1.527899e-01 5.914140e-02 1.924352e-01
-3.971547e-02 2.309300e-01 -6.432743e-01
6.330213e-02 3.469444e-01 -1.282579e+00
1.460694e-01 4.038685e-01 -1.685073e+00
2.041591e-01 4.073177e-01 -1.866305e+00
-1.016158e+00 -1.361793e+00 1.066746e+00
-1.075251e+00 -1.256314e+00 1.052731e+00
-9.341437e-01 -9.386233e-01 8.519430e-01
-6.363779e-01 -4.789059e-01 5.145564e-01
-2.494319e-01 3.676301e-02 1.101047e-01
1.359196e-01 4.994041e-01 -2.715021e-01
4.510842e-01 8.325156e-01 -5.646244e-01
6.725699e-01 1.019168e+00 -7.509531e-01
8.012900e-01 1.072779e+00 -8.350680e-01
-6.353317e-01 -2.685790e+00 2.511785e+00
1.585206e+00 -2.039604e+00 3.456009e+00
3.189193e+00 -1.205785e+00 3.690749e+00
4.044193e+00 -2.349910e-01 3.219040e+00
4.185626e+00 7.377485e-01 2.223547e+00
3.722823e+00 1.517623e+00 9.985363e-01
2.829738e+00 1.986804e+00 -1.956252e-01
1.709658e+00 2.130218e+00 -1.198339e+00
5.118928e-01 1.961060e+00 -1.932676e+00
-1.296942e+00 -1.269173e+00 3.566674e+00
9.834075e-01 -9.877616e-01 4.459691e+00
2.752355e+00 -5.718005e-01 4.358754e+00
3.865747e+00 -9.096733e-02 3.467249e+00
4.282748e+00 3.886979e-01 2.031183e+00
4.047926e+00 7.715582e-01 4.132195e-01
3.308138e+00 9.942181e-01 -1.059976e+00
2.267778e+00 1.066517e+00 -2.234956e+00
1.133047e+00 1.026286e+00 -3.093308e+00
-1.518689e+00 -4.485159e-07 4.785971e+00
5.948011e-01 -2.943612e-07 5.410868e+00
2.262057e+00 -2.683296e-07 4.917258e+00
3.379099e+00 -2.421384e-07 3.549019e+00
3.884348e+00 -1.812016e-07 1.633022e+00
3.791201e+00 -1.989459e-07 -3.757189e-01
3.206485e+00 -2.125318e-07 -2.092694e+00
2.321998e+00 -1.607474e-07 -3.373332e+00
1.326402e+00 -1.776764e-07 -4.180001e+00
-1.231078e+00 8.829405e-01 5.804336e+00
4.036690e-01 6.610651e-01 6.081734e+00
1.695945e+00 3.748661e-01 5.198996e+00
2.566639e+00 4.372185e-02 3.424086e+00
2.972627e+00 -2.833641e-01 1.134169e+00
2.917547e+00 -5.417868e-01 -1.144121e+00
2.485047e+00 -6.944369e-01 -2.994985e+00
1.819221e+00 -7.382975e-01 -4.269609e+00
1.061119e+00 -6.891468e-01 -4.967412e+00
-6.207184e-01 1.052897e+00 6.207200e+00
3.245218e-01 7.906854e-01 6.211246e+00
1.054266e+00 4.510024e-01 5.090293e+00
1.528127e+00 5.963184e-02 3.121423e+00
1.723904e+00 -3.285002e-01 7.007062e-01
1.655965e+00 -6.368747e-01 -1.628823e+00
1.379034e+00 -8.183843e-01 -3.450563e+00
9.786460e-01 -8.719707e-01 -4.640939e+00
5.368350e-01 -8.177841e-01 -5.214694e+00
-1.064965e-01 4.638657e-01 5.813403e+00
1.648421e-01 3.493908e-01 5.691288e+00
3.622988e-01 2.038640e-01 4.568378e+00
4.745964e-01 3.402234e-02 2.698523e+00
5.005047e-01 -1.369581e-01 4.512367e-01
4.519673e-01 -2.751190e-01 -1.672351e+00
3.506617e-01 -3.598468e-01 -3.304530e+00
2.233861e-01 -3.884602e-01 -4.337906e+00
9.272532e-02 -3.691499e-01 -4.798801e+00
-4.332061e-02 -5.844345e-01 4.747026e+00
-2.277837e-01 -4.737663e-01 4.644364e+00
-3.450820e-01 -2.949198e-01 3.723430e+00
-3.908711e-01 -7.754080e-02 2.199292e+00
-3.711801e-01 1.407215e-01 3.763461e-01
-3.009375e-01 3.153372e-01 -1.341372e+00
-1.998567e-01 4.212464e-01 -2.657053e+00
-8.805523e-02 4.585978e-01 -3.490204e+00
1.783781e-02 4.388094e-01 -3.863188e+00
-5.088862e-01 -1.673759e+00 3.362944e+00
-8.661836e-01 -1.395283e+00 3.336599e+00
-1.019918e+00 -9.124144e-01 2.713346e+00
-9.752073e-01 -3.062673e-01 1.650981e+00
-7.710386e-01 3.203470e-01 3.673148e-01
-4.761186e-01 8.397874e-01 -8.506221e-01
-1.593054e-01 1.173005e+00 -1.793780e+00
1.363642e-01 1.316386e+00 -2.400131e+00
3.807270e-01 1.295072e+00 -2.690567e+00
-1.333903e+00 -2.508219e+00 2.003984e+00
-1.642398e+00 -2.187041e+00 2.031394e+00
-1.616285e+00 -1.521416e+00 1.696854e+00
-1.295047e+00 -6.414476e-01 1.083380e+00
-7.757864e-01 3.006899e-01 3.218559e-01
-1.969668e-01 1.111406e+00 -4.115089e-01
3.301574e-01 1.662887e+00 -9.889060e-01
7.493844e-01 1.937328e+00 -1.368286e+00
1.048747e+00 1.965008e+00 -1.554940e+00
-1.955444e-01 -3.323369e+00 3.214349e+00
1.549049e+00 -2.590171e+00 3.796047e+00
2.763153e+00 -1.558793e+00 3.650144e+00
3.348287e+00 -3.440407e-01 2.845144e+00
3.345080e+00 8.751260e-01 1.596405e+00
2.869485e+00 1.865190e+00 2.275450e-01
2.079443e+00 2.470240e+00 -9.870927e-01
1.139632e+00 2.683363e+00 -1.917997e+00
1.750587e-01 2.535505e+00 -2.515915e+00
-9.485731e-01 -2.098170e+00 4.455397e+00
8.674893e-01 -1.617367e+00 4.971797e+00
2.262739e+00 -9.417222e-01 4.476436e+00
3.123306e+00 -1.568359e-01 3.205251e+00
3.422009e+00 6.264495e-01 1.450532e+00
3.200717e+00 1.250923e+00 -3.739232e-01
2.585938e+00 1.621880e+00 -1.922154e+00
1.743248e+00 1.740278e+00 -3.050247e+00
8.310613e-01 1.651227e+00 -3.771443e+00
-1.231078e+00 -8.829410e-01 5.804337e+00
4.036689e-01 -6.610658e-01 6.081734e+00
1.695945e+00 -3.748667e-01 5.198996e+00
2.566639e+00 -4.372229e-02 3.424086e+00
2.972627e+00 2.833638e-01 1.134169e+00
2.917547e+00 5.417867e-01 -1.144121e+00
2.485047e+00 6.944367e-01 -2.994985e+00
1.819220e+00 7.382972e-01 -4.269609e+00
1.061119e+00 6.891465e-01 -4.967412e+00
-9.473330e-01 -2.384271e-07 6.854183e+00
1.688144e-01 -2.101680e-07 6.867377e+00
1.058412e+00 -1.609231e-07 5.638862e+00
1.673277e+00 -1.752178e-07 3.460665e+00
1.983399e+00 -8.767267e-08 7.711940e-01
1.982475e+00 -6.111758e-08 -1.823488e+00
1.723909e+00 -5.012062e-08 -3.861044e+00
1.301601e+00 -4.527859e-08 -5.191063e+00
8.063153e-01 -5.263156e-08 -5.833885e+00
-3.053157e-01 1.864739e-01 7.200718e+00
7.167925e-02 1.357428e-01 7.048123e+00
3.655001e-01 7.380277e-02 5.660363e+00
5.635295e-01 5.179597e-03 3.335643e+00
6.572074e-01 -6.336993e-02 5.287705e-01
6.488599e-01 -1.183714e-01 -2.131407e+00
5.591992e-01 -1.495792e-01 -4.179809e+00
4.188596e-01 -1.592517e-01 -5.476888e+00
2.574997e-01 -1.494556e-01 -6.053096e+00
2.315803e-01 -4.096431e-01 6.659936e+00
-9.503899e-02 -3.154310e-01 6.515056e+00
-3.530964e-01 -1.812013e-01 5.229260e+00
-5.260622e-01 -2.593365e-02 3.080478e+00
-6.058096e-01 1.247728e-01 4.958623e-01
-5.915655e-01 2.407034e-01 -1.945952e+00
-4.998386e-01 3.058243e-01 -3.822843e+00
-3.605618e-01 3.227983e-01 -5.011360e+00
-2.022034e-01 2.996672e-01 -5.539515e+00
2.588066e-01 -1.504456e+00 5.435640e+00
-5.047055e-01 -1.170936e+00 5.420614e+00
-1.059543e+00 -6.944888e-01 4.431952e+00
-1.373848e+00 -1.329674e-01 2.709440e+00
-1.445911e+00 4.231623e-01 6.073948e-01
-1.304544e+00 8.620521e-01 -1.398657e+00
-1.008822e+00 1.121871e+00 -2.962110e+00
-6.342900e-01 1.204777e+00 -3.979146e+00
-2.470929e-01 1.138654e+00 -4.466214e+00
-3.005661e-01 -2.651679e+00 3.944017e+00
-1.171625e+00 -2.134120e+00 4.069683e+00
-1.711058e+00 -1.327087e+00 3.436464e+00
-1.890322e+00 -3.500692e-01 2.231276e+00
-1.745224e+00 6.375277e-01 7.152702e-01
-1.363472e+00 1.435477e+00 -7.634911e-01
-8.535855e-01 1.927885e+00 -1.945303e+00
-3.092932e-01 2.115713e+00 -2.743461e+00
1.973838e-01 2.042139e+00 -3.177428e+00
-1.244919e+00 -3.539787e+00 2.559241e+00
-1.987747e+00 -2.958851e+00 2.740342e+00
-2.271874e+00 -1.943475e+00 2.420100e+00
-2.108511e+00 -6.696403e-01 1.685945e+00
-1.602594e+00 6.501709e-01 7.098900e-01
-9.186371e-01 1.752165e+00 -2.715254e-01
-2.066770e-01 2.467899e+00 -1.077884e+00
4.404139e-01 2.784543e+00 -1.643909e+00
9.765598e-01 2.749027e+00 -1.959147e+00
3.654779e-01 -3.268852e+00 3.476662e+00
1.521792e+00 -2.607667e+00 3.734596e+00
2.248976e+00 -1.615323e+00 3.317471e+00
2.485163e+00 -4.275742e-01 2.328609e+00
2.293590e+00 7.805880e-01 9.919306e-01
1.795868e+00 1.772739e+00 -3.684896e-01
1.128749e+00 2.395774e+00 -1.498378e+00
4.145649e-01 2.636864e+00 -2.292654e+00
-2.703872e-01 2.537604e+00 -2.740105e+00
-3.663465e-01 -2.191845e+00 4.829606e+00
8.196669e-01 -1.706611e+00 5.012916e+00
1.685864e+00 -1.013748e+00 4.247482e+00
2.169543e+00 -1.989495e-01 2.772787e+00
2.264974e+00 6.177633e-01 8.971092e-01
2.024741e+00 1.274459e+00 -9.529420e-01
1.550698e+00 1.669495e+00 -2.440961e+00
9.530820e-01 1.805415e+00 -3.450822e+00
3.366772e-01 1.721402e+00 -4.004199e+00
-6.207184e-01 -1.052897e+00 6.207201e+00
3.245216e-01 -7.906856e-01 6.211247e+00
1.054266e+00 -4.510025e-01 5.090293e+00
1.528126e+00 -5.963208e-02 3.121423e+00
1.723904e+00 3.284999e-01 7.007066e-01
1.655965e+00 6.368744e-01 -1.628823e+00
1.379034e+00 8.183841e-01 -3.450563e+00
9.786460e-01 8.719705e-01 -4.640939e+00
5.368350e-01 8.177841e-01 -5.214694e+00
-3.053157e-01 -1.864741e-01 7.200718e+00
7.167923e-02 -1.357429e-01 7.048123e+00
3.654999e-01 -7.380308e-02 5.660363e+00
5.635293e-01 -5.179685e-03 3.335644e+00
6.572072e-01 6.336979e-02 5.287707e-01
6.488597e-01 1.183713e-01 -2.131407e+00
5.591992e-01 1.495791e-01 -4.179810e+00
4.188597e-01 1.592516e-01 -5.476888e+00
2.574997e-01 1.494556e-01 -6.053096e+00
3.637655e-01 -8.584372e-08 7.404618e+00
-2.979300e-02 -1.409760e-07 7.244487e+00
-3.534070e-01 9.588323e-10 5.814074e+00
-5.863641e-01 -1.194651e-07 3.418975e+00
-7.133841e-01 5.684893e-08 5.319720e-01
-7.263471e-01 3.853301e-08 -2.199939e+00
-6.398126e-01 5.755611e-08 -4.298534e+00
-4.877012e-01 1.527943e-07 -5.630663e+00
-3.056577e-01 1.492867e-07 -6.221805e+00
8.971439e-01 -6.251254e-01 6.711984e+00
-1.966561e-01 -4.704518e-01 6.711332e+00
-1.069344e+00 -2.631447e-01 5.502755e+00
-1.670114e+00 -2.769941e-02 3.368909e+00
-1.967077e+00 2.012523e-01 7.476979e-01
-1.954708e+00 3.782329e-01 -1.763535e+00
-1.686500e+00 4.769948e-01 -3.727931e+00
-1.256883e+00 5.033330e-01 -5.008603e+00
-7.584108e-01 4.675690e-01 -5.624886e+00
8.724919e-01 -1.803386e+00 5.378826e+00
-6.114156e-01 -1.377075e+00 5.627526e+00
-1.745888e+00 -7.941176e-01 4.806039e+00
-2.463404e+00 -1.179419e-01 3.161189e+00
-2.735621e+00 5.454961e-01 1.056588e+00
-2.590958e+00 1.063958e+00 -1.018826e+00
-2.123128e+00 1.365143e+00 -2.694509e+00
-1.470266e+00 1.452922e+00 -3.852699e+00
-7.610583e-01 1.362791e+00 -4.487100e+00
2.228044e-01 -3.072010e+00 3.870902e+00
-1.290640e+00 -2.420961e+00 4.312002e+00
-2.352124e+00 -1.454346e+00 3.884820e+00
-2.889087e+00 -3.082512e-01 2.784418e+00
-2.914627e+00 8.325798e-01 1.276482e+00
-2.517888e+00 1.739873e+00 -2.756483e-01
-1.843649e+00 2.283246e+00 -1.586819e+00
-1.037172e+00 2.473692e+00 -2.546387e+00
-2.318688e-01 2.365368e+00 -3.158917e+00
-8.312549e-01 -4.116028e+00 2.562199e+00
-2.132478e+00 -3.332592e+00 3.035245e+00
-2.865057e+00 -2.095715e+00 2.924603e+00
-2.992445e+00 -5.946218e-01 2.284933e+00
-2.614874e+00 9.289831e-01 1.298606e+00
-1.903919e+00 2.170897e+00 2.287146e-01
-1.036479e+00 2.951278e+00 -7.201670e-01
-1.568476e-01 3.261094e+00 -1.446480e+00
6.561641e-01 3.150232e+00 -1.915242e+00
7.559569e-01 -2.576953e+00 3.152374e+00
1.366611e+00 -2.121661e+00 3.206706e+00
1.653351e+00 -1.371715e+00 2.695430e+00
1.603819e+00 -4.467496e-01 1.737746e+00
1.286281e+00 5.102256e-01 5.328923e-01
8.164702e-01 1.312307e+00 -6.412158e-01
3.043741e-01 1.832720e+00 -1.572324e+00
-1.777520e-01 2.058802e+00 -2.189798e+00
-5.891768e-01 2.025846e+00 -2.499784e+00
9.704149e-02 -1.577588e+00 4.513474e+00
6.681858e-01 -1.251284e+00 4.495234e+00
1.040586e+00 -7.687943e-01 3.666110e+00
1.189086e+00 -1.907304e-01 2.239931e+00
1.128672e+00 3.965015e-01 5.038332e-01
9.105061e-01 8.747488e-01 -1.155537e+00
6.024327e-01 1.171688e+00 -2.447114e+00
2.646750e-01 1.284543e+00 -3.280742e+00
-5.662826e-02 1.238935e+00 -3.682888e+00
-1.064965e-01 -4.638657e-01 5.813404e+00
1.648420e-01 -3.493908e-01 5.691289e+00
3.622986e-01 -2.038641e-01 4.568378e+00
4.745961e-01 -3.402242e-02 2.698524e+00
5.005043e-01 1.369580e-01 4.512370e-01
4.519671e-01 2.751190e-01 -1.672351e+00
3.506615e-01 3.598469e-01 -3.304530e+00
2.233861e-01 3.884602e-01 -4.337906e+00
9.272527e-02 3.691499e-01 -4.798800e+00
2.315803e-01 4.096432e-01 6.659937e+00
-9.503915e-02 3.154309e-01 6.515057e+00
-3.530966e-01 1.812013e-01 5.229261e+00
-5.260624e-01 2.593367e-02 3.080478e+00
-6.058099e-01 -1.247727e-01 4.958627e-01
-5.915657e-01 -2.407033e-01 -1.945951e+00
-4.998387e-01 -3.058242e-01 -3.822842e+00
-3.605619e-01 -3.227981e-01 -5.011359e+00
-2.022035e-01 -2.996669e-01 -5.539515e+00
8.971439e-01 6.251253e-01 6.711985e+00
-1.966563e-01 4.704518e-01 6.711332e+00
-1.069344e+00 2.631446e-01 5.502755e+00
-1.670114e+00 2.769958e-02 3.368910e+00
-1.967077e+00 -2.012521e-01 7.476982e-01
-1.954708e+00 -3.782326e-01 -1.763534e+00
-1.686500e+00 -4.769943e-01 -3.727931e+00
-1.256883e+00 -5.033326e-01 -5.008603e+00
-7.584109e-01 -4.675686e-01 -5.624886e+00
1.419520e+00 -6.146612e-08 5.915396e+00
-3.482351e-01 -6.363069e-08 6.219630e+00
-1.754028e+00 1.280654e-07 5.336390e+00
-2.712737e+00 9.890944e-08 3.525756e+00
-3.176405e+00 2.261064e-07 1.192371e+00
-3.141022e+00 2.163765e-07 -1.117984e+00
-2.698699e+00 2.266540e-07 -2.995334e+00
-2.004213e+00 3.583456e-07 -4.293912e+00
-1.202765e+00 3.644452e-07 -5.012139e+00
1.391325e+00 -1.255056e+00 4.584571e+00
-7.313742e-01 -9.533164e-01 5.226717e+00
-2.378210e+00 -5.464500e-01 4.789597e+00
-3.443571e+00 -7.395306e-02 3.493274e+00
-3.882613e+00 3.879876e-01 1.666246e+00
-3.722905e+00 7.475603e-01 -2.434357e-01
-3.095067e+00 9.580838e-01 -1.884588e+00
-2.193223e+00 1.020382e+00 -3.113074e+00
-1.196130e+00 9.558053e-01 -3.898512e+00
7.353117e-01 -2.691840e+00 3.165037e+00
-1.370318e+00 -2.100318e+00 4.038834e+00
-2.921707e+00 -1.238307e+00 4.006639e+00
-3.795195e+00 -2.283817e-01 3.241618e+00
-3.986711e+00 7.703802e-01 1.977265e+00
-3.584831e+00 1.556907e+00 5.446959e-01
-2.765630e+00 2.022898e+00 -7.740544e-01
-1.728176e+00 2.176605e+00 -1.839172e+00
-6.530625e-01 2.075163e+00 -2.639991e+00
-3.302239e-01 -3.978170e+00 2.020158e+00
-2.189961e+00 -3.148689e+00 2.898350e+00
-3.374446e+00 -1.924716e+00 3.162596e+00
-3.814769e+00 -4.648817e-01 2.816583e+00
-3.593665e+00 9.941753e-01 2.021059e+00
-2.884442e+00 2.167702e+00 1.021357e+00
-1.890524e+00 2.884822e+00 3.368705e-02
-7.942205e-01 3.147245e+00 -8.184649e-01
2.817936e-01 2.988199e+00 -1.453342e+00
7.609489e-01 -1.534073e+00 2.311840e+00
9.841885e-01 -1.312976e+00 2.283511e+00
1.004793e+00 -8.961262e-01 1.857337e+00
8.347850e-01 -3.591340e-01 1.131389e+00
5.325128e-01 2.123098e-01 2.513850e-01
1.832453e-01 7.040607e-01 -5.850190e-01
-1.423747e-01 1.037679e+00 -1.232216e+00
-4.075232e-01 1.201844e+00 -1.645746e+00
-6.018230e-01 1.215367e+00 -1.838661e+00
1.498698e-01 -5.423958e-01 3.590633e+00
2.882702e-01 -4.389617e-01 3.513031e+00
3.564880e-01 -2.802287e-01 2.814570e+00
3.525904e-01 -8.612769e-02 1.665041e+00