<?xml version="1.0"?>
<VTKFile type="StructuredGrid" version="0.1">
  <StructuredGrid WholeExtent="0 8 0 8 0 8">
    <Piece Extent="0 8 0 8 0 8">
      <PointData Scalars="temperature" Vectors="velocity">
        <DataArray type="Float32" Name="temperature" format="ascii">
1.000000e+00
8.707939e-01
7.495220e-01
6.316469e-01
5.145590e-01
3.810196e-01
2.491313e-01
1.216169e-01
0.000000e+00
1.000000e+00
8.718504e-01
7.503651e-01
6.322072e-01
5.148322e-01
3.818246e-01
2.501674e-01
1.227195e-01
0.000000e+00
1.000000e+00
8.714258e-01
7.495942e-01
6.307175e-01
5.123659e-01
3.804099e-01
2.496143e-01
1.224907e-01
0.000000e+00
1.000000e+00
8.707679e-01
7.483346e-01
6.283319e-01
5.085607e-01
3.781596e-01
2.486735e-01
1.221183e-01
0.000000e+00
1.000000e+00
8.699805e-01
7.468209e-01
6.254590e-01
5.040805e-01
3.755073e-01
2.475454e-01
1.216602e-01
0.000000e+00
1.000000e+00
8.692261e-01
7.453600e-01
6.226769e-01
4.998332e-01
3.730062e-01
2.464722e-01
1.212183e-01
0.000000e+00
1.000000e+00
8.686519e-01
7.442412e-01
6.205380e-01
4.966292e-01
3.711293e-01
2.456632e-01
1.208835e-01
0.000000e+00
1.000000e+00
8.683336e-01
7.436197e-01
6.193491e-01
4.948837e-01
3.701048e-01
2.452220e-01
1.207019e-01
0.000000e+00
1.000000e+00
8.682640e-01
7.434908e-01
6.191092e-01
4.945524e-01
3.699008e-01
2.451325e-01
1.206644e-01
0.000000e+00
1.000000e+00
8.718504e-01
7.503651e-01
6.322072e-01
5.148322e-01
3.818246e-01
2.501674e-01
1.227195e-01
0.000000e+00
1.000000e+00
8.717294e-01
7.501532e-01
6.318079e-01
5.143640e-01
3.814619e-01
2.500479e-01
1.226860e-01
0.000000e+00
1.000000e+00
8.714057e-01
7.494880e-01
6.304797e-01
5.122042e-01
3.801964e-01
2.495502e-01
1.224967e-01
0.000000e+00
1.000000e+00
8.707217e-01
7.482030e-01
6.280642e-01
5.083820e-01
3.779198e-01
2.485860e-01
1.221043e-01
0.000000e+00
1.000000e+00
8.698794e-01
7.466026e-01
6.250450e-01
5.036480e-01
3.751436e-01
2.473975e-01
1.216126e-01
0.000000e+00
1.000000e+00
8.690648e-01
7.450419e-01
6.220835e-01
4.990742e-01
3.724979e-01
2.462575e-01
1.211372e-01
0.000000e+00
1.000000e+00
8.684534e-01
7.438600e-01
6.198273e-01
4.956469e-01
3.705321e-01
2.454076e-01
1.207813e-01
0.000000e+00
1.000000e+00
8.681321e-01
7.432348e-01
6.186294e-01
4.938608e-01
3.695063e-01
2.449641e-01
1.205967e-01
0.000000e+00
1.000000e+00
8.680893e-01
7.431513e-01
6.184700e-01
4.936461e-01
3.693704e-01
2.449056e-01
1.205736e-01
0.000000e+00
1.000000e+00
8.714258e-01
7.495942e-01
6.307175e-01
5.123659e-01
3.804099e-01
2.496143e-01
1.224907e-01
0.000000e+00
1.000000e+00
8.714057e-01
7.494880e-01
6.304797e-01
5.122042e-01
3.801964e-01
2.495502e-01
1.224967e-01
0.000000e+00
1.000000e+00
8.710316e-01
7.487773e-01
6.291408e-01
5.100890e-01
3.789278e-01
2.490047e-01
1.222696e-01
0.000000e+00
1.000000e+00
8.703342e-01
7.474584e-01
6.266555e-01
5.061949e-01
3.766165e-01
2.480185e-01
1.218659e-01
0.000000e+00
1.000000e+00
8.694414e-01
7.457636e-01
6.234645e-01
5.012431e-01
3.737375e-01
2.467855e-01
1.213547e-01
0.000000e+00
1.000000e+00
8.685767e-01
7.441077e-01
6.203271e-01
4.964498e-01
3.709923e-01
2.456041e-01
1.208615e-01
0.000000e+00
1.000000e+00
8.679463e-01
7.428866e-01
6.179944e-01
4.929470e-01
3.690002e-01
2.447434e-01
1.205013e-01
0.000000e+00
1.000000e+00
8.676475e-01
7.422992e-01
6.168632e-01
4.912772e-01
3.680472e-01
2.443308e-01
1.203297e-01
0.000000e+00
1.000000e+00
8.676449e-01
7.422938e-01
6.168553e-01
4.913218e-01
3.680356e-01
2.443234e-01
1.203260e-01
0.000000e+00
1.000000e+00
8.707679e-01
7.483346e-01
6.283319e-01
5.085607e-01
3.781596e-01
2.486735e-01
1.221183e-01
0.000000e+00
1.000000e+00
8.707217e-01
7.482030e-01
6.280642e-01
5.083820e-01
3.779198e-01
2.485860e-01
1.221043e-01
0.000000e+00
1.000000e+00
8.703342e-01
7.474584e-01
6.266555e-01
5.061949e-01
3.766165e-01
2.480185e-01
1.218659e-01
0.000000e+00
1.000000e+00
8.695972e-01
7.460597e-01
6.240219e-01
5.021376e-01
3.742377e-01
2.469956e-01
1.214415e-01
0.000000e+00
1.000000e+00
8.686580e-01
7.442710e-01
6.206539e-01
4.969938e-01
3.712953e-01
2.457314e-01
1.209129e-01
0.000000e+00
1.000000e+00
8.677642e-01
7.425514e-01
6.173941e-01
4.920919e-01
3.685357e-01
2.445412e-01
1.204123e-01
0.000000e+00
1.000000e+00
8.671435e-01
7.413390e-01
6.150697e-01
4.886585e-01
3.666103e-01
2.437060e-01
1.200607e-01
0.000000e+00
1.000000e+00
8.668958e-01
7.408396e-01
6.140974e-01
4.872435e-01
3.658096e-01
2.433557e-01
1.199140e-01
0.000000e+00
1.000000e+00
8.669492e-01
7.409455e-01
6.143097e-01
4.876684e-01
3.659702e-01
2.434170e-01
1.199354e-01
0.000000e+00
1.000000e+00
8.699805e-01
7.468209e-01
6.254590e-01
5.040805e-01
3.755073e-01
2.475454e-01
1.216602e-01
0.000000e+00
1.000000e+00
8.698794e-01
7.466026e-01
6.250450e-01
5.036480e-01
3.751436e-01
2.473975e-01
1.216126e-01
0.000000e+00
1.000000e+00
8.694414e-01
7.457636e-01
6.234645e-01
5.012431e-01
3.737375e-01
2.467855e-01
1.213547e-01
0.000000e+00
1.000000e+00
8.686580e-01
7.442710e-01
6.206539e-01
4.969938e-01
3.712953e-01
2.457314e-01
1.209129e-01
0.000000e+00
1.000000e+00
8.676852e-01
7.424075e-01
6.171387e-01
4.917290e-01
3.683413e-01
2.444564e-01
1.203747e-01
0.000000e+00
1.000000e+00
8.667828e-01
7.406587e-01
6.138157e-01
4.868319e-01
3.656343e-01
2.432825e-01
1.198763e-01
0.000000e+00
1.000000e+00
8.661875e-01
7.394826e-01
6.115491e-01
4.835545e-01
3.638217e-01
2.424898e-01
1.195396e-01
0.000000e+00
1.000000e+00
8.659960e-01
7.390816e-01
6.107560e-01
4.824242e-01
3.631840e-01
2.422053e-01
1.194191e-01
0.000000e+00
1.000000e+00
8.660983e-01
7.392911e-01
6.111813e-01
4.832170e-01
3.634994e-01
2.423264e-01
1.194593e-01
0.000000e+00
1.000000e+00
8.692261e-01
7.453600e-01
6.226769e-01
4.998332e-01
3.730062e-01
2.464722e-01
1.212183e-01
0.000000e+00
1.000000e+00
8.690648e-01
7.450419e-01
6.220835e-01
4.990742e-01
3.724979e-01
2.462575e-01
1.211372e-01
0.000000e+00
1.000000e+00
8.685767e-01
7.441077e-01
6.203271e-01
4.964498e-01
3.709923e-01
2.456041e-01
1.208615e-01
0.000000e+00
1.000000e+00
8.677642e-01
7.425514e-01
6.173941e-01
4.920919e-01
3.685357e-01
2.445412e-01
1.204123e-01
0.000000e+00
1.000000e+00
8.667828e-01
7.406587e-01
6.138157e-01
4.868319e-01
3.656343e-01
2.432825e-01
1.198763e-01
0.000000e+00
1.000000e+00
8.658867e-01
7.389098e-01
6.104870e-01
4.820203e-01
3.630172e-01
2.421406e-01
1.193869e-01
0.000000e+00
1.000000e+00
8.653084e-01
7.377577e-01
6.082622e-01
4.788676e-01
3.612984e-01
2.413832e-01
1.190622e-01
0.000000e+00
1.000000e+00
8.651420e-01
7.374009e-01
6.075535e-01
4.778799e-01
3.607458e-01
2.411321e-01
1.189538e-01
0.000000e+00
1.000000e+00
8.652541e-01
7.376476e-01
6.080695e-01
4.788321e-01
3.611169e-01
2.412689e-01
1.189932e-01
0.000000e+00
1.000000e+00
8.686519e-01
7.442412e-01
6.205380e-01
4.966292e-01
3.711293e-01
2.456632e-01
1.208835e-01
0.000000e+00
1.000000e+00
8.684534e-01
7.438600e-01
6.198273e-01
4.956469e-01
3.705321e-01
2.454076e-01
1.207813e-01
0.000000e+00
1.000000e+00
8.679463e-01
7.428866e-01
6.179944e-01
4.929470e-01
3.690002e-01
2.447434e-01
1.205013e-01
0.000000e+00
1.000000e+00
8.671435e-01
7.413390e-01
6.150697e-01
4.886585e-01
3.666103e-01
2.437060e-01
1.200607e-01
0.000000e+00
1.000000e+00
8.661875e-01
7.394826e-01
6.115491e-01
4.835545e-01
3.638217e-01
2.424898e-01
1.195396e-01
0.000000e+00
1.000000e+00
8.653084e-01
7.377577e-01
6.082622e-01
4.788676e-01
3.612984e-01
2.413832e-01
1.190622e-01
0.000000e+00
1.000000e+00
8.647180e-01
7.365848e-01
6.060082e-01
4.757175e-01
3.596061e-01
2.406368e-01
1.187409e-01
0.000000e+00
1.000000e+00
8.645220e-01
7.361730e-01
6.052065e-01
4.746158e-01
3.590099e-01
2.403708e-01
1.186261e-01
0.000000e+00
1.000000e+00
8.645825e-01
7.363454e-01
6.056035e-01
4.753809e-01
3.592872e-01
2.404576e-01
1.186308e-01
0.000000e+00
1.000000e+00
8.683336e-01
7.436197e-01
6.193491e-01
4.948837e-01
3.701048e-01
2.452220e-01
1.207019e-01
0.000000e+00
1.000000e+00
8.681321e-01
7.432348e-01
6.186294e-01
4.938608e-01
3.695063e-01
2.449641e-01
1.205967e-01
0.000000e+00
1.000000e+00
8.676475e-01
7.422992e-01
6.168632e-01
4.912772e-01
3.680472e-01
2.443308e-01
1.203297e-01
0.000000e+00
1.000000e+00
8.668958e-01
7.408396e-01
6.140974e-01
4.872435e-01
3.658096e-01
2.433557e-01
1.199140e-01
0.000000e+00
1.000000e+00
8.659960e-01
7.390816e-01
6.107560e-01
4.824242e-01
3.631840e-01
2.422053e-01
1.194191e-01
0.000000e+00
1.000000e+00
8.651420e-01
7.374009e-01
6.075535e-01
4.778799e-01
3.607458e-01
2.411321e-01
1.189538e-01
0.000000e+00
1.000000e+00
8.645220e-01
7.361730e-01
6.052065e-01
4.746158e-01
3.590099e-01
2.403708e-01
1.186261e-01
0.000000e+00
1.000000e+00
8.641480e-01
7.355181e-01
6.040597e-01
4.731032e-01
3.581965e-01
2.400053e-01
1.184671e-01
0.000000e+00
1.000000e+00
8.641632e-01
7.355556e-01
6.041847e-01
4.733951e-01
3.582879e-01
2.400398e-01
1.184824e-01
0.000000e+00
1.000000e+00
8.682640e-01
7.434908e-01
6.191092e-01
4.945524e-01
3.699008e-01
2.451325e-01
1.206644e-01
0.000000e+00
1.000000e+00
8.680893e-01
7.431513e-01
6.184700e-01
4.936461e-01
3.693704e-01
2.449056e-01
1.205736e-01
0.000000e+00
1.000000e+00
8.676449e-01
7.422938e-01
6.168553e-01
4.913218e-01
3.680356e-01
2.443234e-01
1.203260e-01
0.000000e+00
1.000000e+00
8.669492e-01
7.409455e-01
6.143097e-01
4.876684e-01
3.659702e-01
2.434170e-01
1.199354e-01
0.000000e+00
1.000000e+00
8.660983e-01
7.392911e-01
6.111813e-01
4.832170e-01
3.634994e-01
2.423264e-01
1.194593e-01
0.000000e+00
1.000000e+00
8.652541e-01
7.376476e-01
6.080695e-01
4.788321e-01
3.611169e-01
2.412689e-01
1.189932e-01
0.000000e+00
1.000000e+00
8.645825e-01
7.363454e-01
6.056035e-01
4.753809e-01
3.592872e-01
2.404576e-01
1.186308e-01
0.000000e+00
1.000000e+00
8.641632e-01
7.355556e-01
6.041847e-01
4.733951e-01
3.582879e-01
2.400398e-01
1.184824e-01
0.000000e+00
1.000000e+00
8.627851e-01
7.342143e-01
6.026978e-01
4.719268e-01
3.570933e-01
2.388837e-01
1.173871e-01
0.000000e+00
        </DataArray>
        <DataArray type="Float32" Name="velocity" NumberOfComponents="3" format="ascii">
-4.4912e-01 -4.8437e-07 7.0629e-01
2.0882e+00 -4.1805e-07 2.2984e+00
3.7670e+00 -4.9654e-07 3.1685e+00
4.6056e+00 -4.4128e-07 3.3769e+00
4.6184e+00 -4.0837e-07 2.9941e+00
3.9691e+00 -4.2485e-07 2.2100e+00
2.8858e+00 -4.0791e-07 1.2356e+00
1.6049e+00 -4.4318e-07 2.4025e-01
3.9162e-01 -4.9831e-07 -6.1586e-01
-7.4046e-01 1.4892e+00 1.5988e+00
1.7437e+00 1.0931e+00 2.8832e+00
3.5112e+00 6.5090e-01 3.4956e+00
4.4602e+00 1.1741e-01 3.3908e+00
4.6201e+00 -4.1092e-01 2.7196e+00
4.1062e+00 -8.3112e-01 1.7153e+00
3.1185e+00 -1.0803e+00 6.1639e-01
1.8933e+00 -1.1569e+00 -4.0498e-01
5.8077e-01 -1.0048e+00 -1.2230e+00
-6.3533e-01 2.6858e+00 2.5118e+00
1.5852e+00 2.0396e+00 3.4560e+00
3.1892e+00 1.2058e+00 3.6907e+00
4.0442e+00 2.3499e-01 3.2190e+00
4.1856e+00 -7.3775e-01 2.2235e+00
3.7228e+00 -1.5176e+00 9.9854e-01
2.8297e+00 -1.9868e+00 -1.9563e-01
1.7097e+00 -2.1302e+00 -1.1983e+00
5.1189e-01 -1.9611e+00 -1.9327e+00
-1.9554e-01 3.3234e+00 3.2143e+00
1.5490e+00 2.5902e+00 3.7960e+00
2.7632e+00 1.5588e+00 3.6501e+00
3.3483e+00 3.4404e-01 2.8451e+00
3.3451e+00 -8.7513e-01 1.5964e+00
2.8695e+00 -1.8652e+00 2.2754e-01
2.0794e+00 -2.4702e+00 -9.8709e-01
1.1396e+00 -2.6834e+00 -1.9180e+00
1.7506e-01 -2.5355e+00 -2.5159e+00
3.6548e-01 3.2689e+00 3.4767e+00
1.5218e+00 2.6077e+00 3.7346e+00
2.2490e+00 1.6153e+00 3.3175e+00
2.4852e+00 4.2757e-01 2.3286e+00
2.2936e+00 -7.8059e-01 9.9193e-01
1.7959e+00 -1.7727e+00 -3.6849e-01
1.1287e+00 -2.3958e+00 -1.4984e+00
4.1456e-01 -2.6369e+00 -2.2927e+00
-2.7039e-01 -2.5376e+00 -2.7401e+00
7.5596e-01 2.5770e+00 3.1524e+00
1.3666e+00 2.1217e+00 3.2067e+00
1.6534e+00 1.3717e+00 2.6954e+00
1.6038e+00 4.4675e-01 1.7377e+00
1.2863e+00 -5.1023e-01 5.3289e-01
8.1647e-01 -1.3123e+00 -6.4122e-01
3.0437e-01 -1.8327e+00 -1.5723e+00
-1.7775e-01 -2.0588e+00 -2.1898e+00
-5.8918e-01 -2.0258e+00 -2.4998e+00
7.6095e-01 1.5341e+00 2.3118e+00
9.8419e-01 1.3130e+00 2.2835e+00
1.0048e+00 8.9613e-01 1.8573e+00
8.3479e-01 3.5913e-01 1.1314e+00
5.3251e-01 -2.1231e-01 2.5138e-01
1.8325e-01 -7.0406e-01 -5.8502e-01
-1.4237e-01 -1.0377e+00 -1.2322e+00
-4.0752e-01 -1.2018e+00 -1.6457e+00
-6.0182e-01 -1.2154e+00 -1.8387e+00
3.4430e-01 4.7223e-01 1.1736e+00
3.8039e-01 4.1983e-01 1.1455e+00
3.4530e-01 3.0196e-01 9.1804e-01
2.4817e-01 1.4200e-01 5.4440e-01
1.1319e-01 -3.2983e-02 9.9060e-02
-2.5347e-02 -1.8870e-01 -3.1978e-01
-1.4150e-01 -2.9986e-01 -6.4044e-01
-2.2538e-01 -3.6098e-01 -8.4241e-01
-2.7592e-01 -3.7808e-01 -9.3453e-01
-3.7107e-01 -3.7027e-01 -7.3403e-03
-3.5254e-01 -3.7223e-01 -7.9069e-03
-2.7316e-01 -3.0691e-01 -7.2433e-03
-1.5349e-01 -1.9010e-01 -5.2205e-03
-1.5359e-02 -4.7196e-02 -2.1271e-03
1.1171e-01 8.9153e-02 1.2944e-03
2.0732e-01 1.9444e-01 4.1980e-03
2.6601e-01 2.6167e-01 6.1412e-03
2.9271e-01 2.9202e-01 6.9839e-03
-7.4046e-01 -1.4892e+00 1.5988e+00
1.7437e+00 -1.0931e+00 2.8832e+00
3.5112e+00 -6.5090e-01 3.4956e+00
4.4602e+00 -1.1741e-01 3.3908e+00
4.6201e+00 4.1092e-01 2.7196e+00
4.1062e+00 8.3112e-01 1.7153e+00
3.1185e+00 1.0803e+00 6.1639e-01
1.8933e+00 1.1569e+00 -4.0498e-01
5.8077e-01 1.0048e+00 -1.2230e+00
-1.1966e+00 -5.0328e-07 2.4712e+00
1.2670e+00 -5.0106e-07 3.6974e+00
3.1532e+00 -3.5338e-07 3.9852e+00
4.2930e+00 -2.5242e-07 3.5159e+00
4.6626e+00 -3.3864e-07 2.4785e+00
4.3270e+00 -3.7615e-07 1.1627e+00
3.4667e+00 -3.7695e-07 -1.4518e-01
2.3064e+00 -3.8271e-07 -1.2761e+00
1.0807e+00 -4.3630e-07 -2.2318e+00
-1.2969e+00 1.2692e+00 3.5667e+00
9.8341e-01 9.8776e-01 4.4597e+00
2.7524e+00 5.7180e-01 4.3588e+00
3.8657e+00 9.0967e-02 3.4672e+00
4.2827e+00 -3.8870e-01 2.0312e+00
4.0479e+00 -7.7156e-01 4.1322e-01
3.3081e+00 -9.9422e-01 -1.0600e+00
2.2678e+00 -1.0665e+00 -2.2350e+00
1.1330e+00 -1.0263e+00 -3.0933e+00
-9.4857e-01 2.0982e+00 4.4554e+00
8.6749e-01 1.6174e+00 4.9718e+00
2.2627e+00 9.4172e-01 4.4764e+00
3.1233e+00 1.5684e-01 3.2053e+00
3.4220e+00 -6.2645e-01 1.4505e+00
3.2007e+00 -1.2509e+00 -3.7392e-01
2.5859e+00 -1.6219e+00 -1.9222e+00
1.7432e+00 -1.7403e+00 -3.0502e+00
8.3106e-01 -1.6512e+00 -3.7714e+00
-3.6635e-01 2.1918e+00 4.8296e+00
8.1967e-01 1.7066e+00 5.0129e+00
1.6859e+00 1.0137e+00 4.2475e+00
2.1695e+00 1.9895e-01 2.7728e+00
2.2650e+00 -6.1776e-01 8.9711e-01
2.0247e+00 -1.2745e+00 -9.5294e-01
1.5507e+00 -1.6695e+00 -2.4410e+00
9.5308e-01 -1.8054e+00 -3.4508e+00
3.3668e-01 -1.7214e+00 -4.0042e+00
9.7042e-02 1.5776e+00 4.5135e+00
6.6819e-01 1.2513e+00 4.4952e+00
1.0406e+00 7.6879e-01 3.6661e+00
1.1891e+00 1.9073e-01 2.2399e+00
1.1287e+00 -3.9650e-01 5.0383e-01
9.1051e-01 -8.7475e-01 -1.1555e+00
6.0243e-01 -1.1717e+00 -2.4471e+00
2.6468e-01 -1.2845e+00 -3.2807e+00
-5.6628e-02 -1.2389e+00 -3.6829e+00
1.4987e-01 5.4240e-01 3.5906e+00
2.8827e-01 4.3896e-01 3.5130e+00
3.5649e-01 2.8023e-01 2.8146e+00
3.5259e-01 8.6128e-02 1.6650e+00
2.8728e-01 -1.1470e-01 2.9306e-01
1.8572e-01 -2.8255e-01 -9.9882e-01
7.4722e-02 -3.9121e-01 -1.9888e+00
-3.0266e-02 -4.3879e-01 -2.6135e+00
-1.1856e-01 -4.3345e-01 -2.8946e+00
-2.6831e-01 -5.2774e-01 2.3408e+00
-3.2684e-01 -4.6611e-01 2.2878e+00
-3.1872e-01 -3.2752e-01 1.8311e+00
-2.5444e-01 -1.4107e-01 1.0824e+00
-1.5279e-01 5.9141e-02 1.9244e-01
-3.9715e-02 2.3093e-01 -6.4327e-01
6.3302e-02 3.4694e-01 -1.2826e+00
1.4607e-01 4.0387e-01 -1.6851e+00
2.0416e-01 4.0732e-01 -1.8663e+00
-1.0162e+00 -1.3618e+00 1.0667e+00
-1.0753e+00 -1.2563e+00 1.0527e+00
-9.3414e-01 -9.3862e-01 8.5194e-01
-6.3638e-01 -4.7891e-01 5.1456e-01
-2.4943e-01 3.6763e-02 1.1010e-01
1.3592e-01 4.9940e-01 -2.7150e-01
4.5108e-01 8.3252e-01 -5.6462e-01
6.7257e-01 1.0192e+00 -7.5095e-01
8.0129e-01 1.0728e+00 -8.3507e-01
-6.3533e-01 -2.6858e+00 2.5118e+00
1.5852e+00 -2.0396e+00 3.4560e+00
3.1892e+00 -1.2058e+00 3.6907e+00
4.0442e+00 -2.3499e-01 3.2190e+00
4.1856e+00 7.3775e-01 2.2235e+00
3.7228e+00 1.5176e+00 9.9854e-01
2.8297e+00 1.9868e+00 -1.9563e-01
1.7097e+00 2.1302e+00 -1.1983e+00
5.1189e-01 1.9611e+00 -1.9327e+00
-1.2969e+00 -1.2692e+00 3.5667e+00
9.8341e-01 -9.8776e-01 4.4597e+00
2.7524e+00 -5.7180e-01 4.3588e+00
3.8657e+00 -9.0967e-02 3.4672e+00
4.2827e+00 3.8870e-01 2.0312e+00
4.0479e+00 7.7156e-01 4.1322e-01
3.3081e+00 9.9422e-01 -1.0600e+00
2.2678e+00 1.0665e+00 -2.2350e+00
1.1330e+00 1.0263e+00 -3.0933e+00
-1.5187e+00 -4.4852e-07 4.7860e+00
5.9480e-01 -2.9436e-07 5.4109e+00
2.2621e+00 -2.6833e-07 4.9173e+00
3.3791e+00 -2.4214e-07 3.5490e+00
3.8843e+00 -1.8120e-07 1.6330e+00
3.7912e+00 -1.9895e-07 -3.7572e-01
3.2065e+00 -2.1253e-07 -2.0927e+00
2.3220e+00 -1.6075e-07 -3.3733e+00
1.3264e+00 -1.7768e-07 -4.1800e+00
-1.2311e+00 8.8294e-01 5.8043e+00
4.0367e-01 6.6107e-01 6.0817e+00
1.6959e+00 3.7487e-01 5.1990e+00
2.5666e+00 4.3722e-02 3.4241e+00
2.9726e+00 -2.8336e-01 1.1342e+00
2.9175e+00 -5.4179e-01 -1.1441e+00
2.4850e+00 -6.9444e-01 -2.9950e+00
1.8192e+00 -7.3830e-01 -4.2696e+00
1.0611e+00 -6.8915e-01 -4.9674e+00
-6.2072e-01 1.0529e+00 6.2072e+00
3.2452e-01 7.9069e-01 6.2112e+00
1.0543e+00 4.5100e-01 5.0903e+00
1.5281e+00 5.9632e-02 3.1214e+00
1.7239e+00 -3.2850e-01 7.0071e-01
1.6560e+00 -6.3687e-01 -1.6288e+00
1.3790e+00 -8.1838e-01 -3.4506e+00
9.7865e-01 -8.7197e-01 -4.6409e+00
5.3684e-01 -8.1778e-01 -5.2147e+00
-1.0650e-01 4.6387e-01 5.8134e+00
1.6484e-01 3.4939e-01 5.6913e+00
3.6230e-01 2.0386e-01 4.5684e+00
4.7460e-01 3.4022e-02 2.6985e+00
5.0050e-01 -1.3696e-01 4.5124e-01
4.5197e-01 -2.7512e-01 -1.6724e+00
3.5066e-01 -3.5985e-01 -3.3045e+00
2.2339e-01 -3.8846e-01 -4.3379e+00
9.2725e-02 -3.6915e-01 -4.7988e+00
-4.3321e-02 -5.8443e-01 4.7470e+00
-2.2778e-01 -4.7377e-01 4.6444e+00
-3.4508e-01 -2.9492e-01 3.7234e+00
-3.9087e-01 -7.7541e-02 2.1993e+00
-3.7118e-01 1.4072e-01 3.7635e-01
-3.0094e-01 3.1534e-01 -1.3414e+00
-1.9986e-01 4.2125e-01 -2.6571e+00
-8.8055e-02 4.5860e-01 -3.4902e+00
1.7838e-02 4.3881e-01 -3.8632e+00
-5.0889e-01 -1.6738e+00 3.3629e+00
-8.6618e-01 -1.3953e+00 3.3366e+00
-1.0199e+00 -9.1241e-01 2.7133e+00
-9.7521e-01 -3.0627e-01 1.6510e+00
-7.7104e-01 3.2035e-01 3.6731e-01
-4.7612e-01 8.3979e-01 -8.5062e-01
-1.5931e-01 1.1730e+00 -1.7938e+00
1.3636e-01 1.3164e+00 -2.4001e+00
3.8073e-01 1.2951e+00 -2.6906e+00
-1.3339e+00 -2.5082e+00 2.0040e+00
-1.6424e+00 -2.1870e+00 2.0314e+00
-1.6163e+00 -1.5214e+00 1.6969e+00
-1.2950e+00 -6.4145e-01 1.0834e+00
-7.7579e-01 3.0069e-01 3.2186e-01
-1.9697e-01 1.1114e+00 -4.1151e-01
3.3016e-01 1.6629e+00 -9.8891e-01
7.4938e-01 1.9373e+00 -1.3683e+00
1.0487e+00 1.9650e+00 -1.5549e+00
-1.9554e-01 -3.3234e+00 3.2143e+00
1.5490e+00 -2.5902e+00 3.7960e+00
2.7632e+00 -1.5588e+00 3.6501e+00
3.3483e+00 -3.4404e-01 2.8451e+00
3.3451e+00 8.7513e-01 1.5964e+00
2.8695e+00 1.8652e+00 2.2755e-01
2.0794e+00 2.4702e+00 -9.8709e-01
1.1396e+00 2.6834e+00 -1.9180e+00
1.7506e-01 2.5355e+00 -2.5159e+00
-9.4857e-01 -2.0982e+00 4.4554e+00
8.6749e-01 -1.6174e+00 4.9718e+00
2.2627e+00 -9.4172e-01 4.4764e+00
3.1233e+00 -1.5684e-01 3.2053e+00
3.4220e+00 6.2645e-01 1.4505e+00
3.2007e+00 1.2509e+00 -3.7392e-01
2.5859e+00 1.6219e+00 -1.9222e+00
1.7432e+00 1.7403e+00 -3.0502e+00
8.3106e-01 1.6512e+00 -3.7714e+00
-1.2311e+00 -8.8294e-01 5.8043e+00
4.0367e-01 -6.6107e-01 6.0817e+00
1.6959e+00 -3.7487e-01 5.1990e+00
2.5666e+00 -4.3722e-02 3.4241e+00
2.9726e+00 2.8336e-01 1.1342e+00
2.9175e+00 5.4179e-01 -1.1441e+00
2.4850e+00 6.9444e-01 -2.9950e+00
1.8192e+00 7.3830e-01 -4.2696e+00
1.0611e+00 6.8915e-01 -4.9674e+00
-9.4733e-01 -2.3843e-07 6.8542e+00
1.6881e-01 -2.1017e-07 6.8674e+00
1.0584e+00 -1.6092e-07 5.6389e+00
1.6733e+00 -1.7522e-07 3.4607e+00
1.9834e+00 -8.7673e-08 7.7119e-01
1.9825e+00 -6.1118e-08 -1.8235e+00
1.7239e+00 -5.0121e-08 -3.8610e+00
1.3016e+00 -4.5279e-08 -5.1911e+00
8.0632e-01 -5.2632e-08 -5.8339e+00
-3.0532e-01 1.8647e-01 7.2007e+00
7.1679e-02 1.3574e-01 7.0481e+00
3.6550e-01 7.3803e-02 5.6604e+00
5.6353e-01 5.1796e-03 3.3356e+00
6.5721e-01 -6.3370e-02 5.2877e-01
6.4886e-01 -1.1837e-01 -2.1314e+00
5.5920e-01 -1.4958e-01 -4.1798e+00
4.1886e-01 -1.5925e-01 -5.4769e+00
2.5750e-01 -1.4946e-01 -6.0531e+00
2.3158e-01 -4.0964e-01 6.6599e+00
-9.5039e-02 -3.1543e-01 6.5151e+00
-3.5310e-01 -1.8120e-01 5.2293e+00
-5.2606e-01 -2.5934e-02 3.0805e+00
-6.0581e-01 1.2477e-01 4.9586e-01
-5.9157e-01 2.4070e-01 -1.9460e+00
-4.9984e-01 3.0582e-01 -3.8228e+00
-3.6056e-01 3.2280e-01 -5.0114e+00
-2.0220e-01 2.9967e-01 -5.5395e+00
2.5881e-01 -1.5045e+00 5.4356e+00
-5.0471e-01 -1.1709e+00 5.4206e+00
-1.0595e+00 -6.9449e-01 4.4320e+00
-1.3738e+00 -1.3297e-01 2.7094e+00
-1.4459e+00 4.2316e-01 6.0739e-01
-1.3045e+00 8.6205e-01 -1.3987e+00
-1.0088e+00 1.1219e+00 -2.9621e+00
-6.3429e-01 1.2048e+00 -3.9791e+00
-2.4709e-01 1.1387e+00 -4.4662e+00
-3.0057e-01 -2.6517e+00 3.9440e+00
-1.1716e+00 -2.1341e+00 4.0697e+00
-1.7111e+00 -1.3271e+00 3.4365e+00
-1.8903e+00 -3.5007e-01 2.2313e+00
-1.7452e+00 6.3753e-01 7.1527e-01
-1.3635e+00 1.4355e+00 -7.6349e-01
-8.5359e-01 1.9279e+00 -1.9453e+00
-3.0929e-01 2.1157e+00 -2.7435e+00
1.9738e-01 2.0421e+00 -3.1774e+00
-1.2449e+00 -3.5398e+00 2.5592e+00
-1.9877e+00 -2.9589e+00 2.7403e+00
-2.2719e+00 -1.9435e+00 2.4201e+00
-2.1085e+00 -6.6964e-01 1.6859e+00
-1.6026e+00 6.5017e-01 7.0989e-01
-9.1864e-01 1.7522e+00 -2.7153e-01
-2.0668e-01 2.4679e+00 -1.0779e+00
4.4041e-01 2.7845e+00 -1.6439e+00
9.7656e-01 2.7490e+00 -1.9591e+00
3.6548e-01 -3.2689e+00 3.4767e+00
1.5218e+00 -2.6077e+00 3.7346e+00
2.2490e+00 -1.6153e+00 3.3175e+00
2.4852e+00 -4.2757e-01 2.3286e+00
2.2936e+00 7.8059e-01 9.9193e-01
1.7959e+00 1.7727e+00 -3.6849e-01
1.1287e+00 2.3958e+00 -1.4984e+00
4.1456e-01 2.6369e+00 -2.2927e+00
-2.7039e-01 2.5376e+00 -2.7401e+00
-3.6635e-01 -2.1918e+00 4.8296e+00
8.1967e-01 -1.7066e+00 5.0129e+00
1.6859e+00 -1.0137e+00 4.2475e+00
2.1695e+00 -1.9895e-01 2.7728e+00
2.2650e+00 6.1776e-01 8.9711e-01
2.0247e+00 1.2745e+00 -9.5294e-01
1.5507e+00 1.6695e+00 -2.4410e+00
9.5308e-01 1.8054e+00 -3.4508e+00
3.3668e-01 1.7214e+00 -4.0042e+00
-6.2072e-01 -1.0529e+00 6.2072e+00
3.2452e-01 -7.9069e-01 6.2112e+00
1.0543e+00 -4.5100e-01 5.0903e+00
1.5281e+00 -5.9632e-02 3.1214e+00
1.7239e+00 3.2850e-01 7.0071e-01
1.6560e+00 6.3687e-01 -1.6288e+00
1.3790e+00 8.1838e-01 -3.4506e+00
9.7865e-01 8.7197e-01 -4.6409e+00
5.3684e-01 8.1778e-01 -5.2147e+00
-3.0532e-01 -1.8647e-01 7.2007e+00
7.1679e-02 -1.3574e-01 7.0481e+00
3.6550e-01 -7.3803e-02 5.6604e+00
5.6353e-01 -5.1797e-03 3.3356e+00
6.5721e-01 6.3370e-02 5.2877e-01
6.4886e-01 1.1837e-01 -2.1314e+00
5.5920e-01 1.4958e-01 -4.1798e+00
4.1886e-01 1.5925e-01 -5.4769e+00
2.5750e-01 1.4946e-01 -6.0531e+00
3.6377e-01 -8.5844e-08 7.4046e+00
-2.9793e-02 -1.4098e-07 7.2445e+00
-3.5341e-01 9.5883e-10 5.8141e+00
-5.8636e-01 -1.1947e-07 3.4190e+00
-7.1338e-01 5.6849e-08 5.3197e-01
-7.2635e-01 3.8533e-08 -2.1999e+00
-6.3981e-01 5.7556e-08 -4.2985e+00
-4.8770e-01 1.5279e-07 -5.6307e+00
-3.0566e-01 1.4929e-07 -6.2218e+00
8.9714e-01 -6.2513e-01 6.7120e+00
-1.9666e-01 -4.7045e-01 6.7113e+00
-1.0693e+00 -2.6314e-01 5.5028e+00
-1.6701e+00 -2.7699e-02 3.3689e+00
-1.9671e+00 2.0125e-01 7.4770e-01
-1.9547e+00 3.7823e-01 -1.7635e+00
-1.6865e+00 4.7699e-01 -3.7279e+00
-1.2569e+00 5.0333e-01 -5.0086e+00
-7.5841e-01 4.6757e-01 -5.6249e+00
8.7249e-01 -1.8034e+00 5.3788e+00
-6.1142e-01 -1.3771e+00 5.6275e+00
-1.7459e+00 -7.9412e-01 4.8060e+00
-2.4634e+00 -1.1794e-01 3.1612e+00
-2.7356e+00 5.4550e-01 1.0566e+00
-2.5910e+00 1.0640e+00 -1.0188e+00
-2.1231e+00 1.3651e+00 -2.6945e+00
-1.4703e+00 1.4529e+00 -3.8527e+00
-7.6106e-01 1.3628e+00 -4.4871e+00
2.2280e-01 -3.0720e+00 3.8709e+00
-1.2906e+00 -2.4210e+00 4.3120e+00
-2.3521e+00 -1.4543e+00 3.8848e+00
-2.8891e+00 -3.0825e-01 2.7844e+00
-2.9146e+00 8.3258e-01 1.2765e+00
-2.5179e+00 1.7399e+00 -2.7565e-01
-1.8436e+00 2.2832e+00 -1.5868e+00
-1.0372e+00 2.4737e+00 -2.5464e+00
-2.3187e-01 2.3654e+00 -3.1589e+00
-8.3125e-01 -4.1160e+00 2.5622e+00
-2.1325e+00 -3.3326e+00 3.0352e+00
-2.8651e+00 -2.0957e+00 2.9246e+00
-2.9924e+00 -5.9462e-01 2.2849e+00
-2.6149e+00 9.2898e-01 1.2986e+00
-1.9039e+00 2.1709e+00 2.2871e-01
-1.0365e+00 2.9513e+00 -7.2017e-01
-1.5685e-01 3.2611e+00 -1.4465e+00
6.5616e-01 3.1502e+00 -1.9152e+00
7.5596e-01 -2.5770e+00 3.1524e+00
1.3666e+00 -2.1217e+00 3.2067e+00
1.6534e+00 -1.3717e+00 2.6954e+00
1.6038e+00 -4.4675e-01 1.7377e+00
1.2863e+00 5.1023e-01 5.3289e-01
8.1647e-01 1.3123e+00 -6.4122e-01
3.0437e-01 1.8327e+00 -1.5723e+00
-1.7775e-01 2.0588e+00 -2.1898e+00
-5.8918e-01 2.0258e+00 -2.4998e+00
9.7041e-02 -1.5776e+00 4.5135e+00
6.6819e-01 -1.2513e+00 4.4952e+00
1.0406e+00 -7.6879e-01 3.6661e+00
1.1891e+00 -1.9073e-01 2.2399e+00
1.1287e+00 3.9650e-01 5.0383e-01
9.1051e-01 8.7475e-01 -1.1555e+00
6.0243e-01 1.1717e+00 -2.4471e+00
2.6468e-01 1.2845e+00 -3.2807e+00
-5.6628e-02 1.2389e+00 -3.6829e+00
-1.0650e-01 -4.6387e-01 5.8134e+00
1.6484e-01 -3.4939e-01 5.6913e+00
3.6230e-01 -2.0386e-01 4.5684e+00
4.7460e-01 -3.4022e-02 2.6985e+00
5.0050e-01 1.3696e-01 4.5124e-01
4.5197e-01 2.7512e-01 -1.6724e+00
3.5066e-01 3.5985e-01 -3.3045e+00
2.2339e-01 3.8846e-01 -4.3379e+00
9.2725e-02 3.6915e-01 -4.7988e+00
2.3158e-01 4.0964e-01 6.6599e+00
-9.5039e-02 3.1543e-01 6.5151e+00
-3.5310e-01 1.8120e-01 5.2293e+00
-5.2606e-01 2.5934e-02 3.0805e+00
-6.0581e-01 -1.2477e-01 4.9586e-01
-5.9157e-01 -2.4070e-01 -1.9460e+00
-4.9984e-01 -3.0582e-01 -3.8228e+00
-3.6056e-01 -3.2280e-01 -5.0114e+00
-2.0220e-01 -2.9967e-01 -5.5395e+00
8.9714e-01 6.2513e-01 6.7120e+00
-1.9666e-01 4.7045e-01 6.7113e+00
-1.0693e+00 2.6314e-01 5.5028e+00
-1.6701e+00 2.7700e-02 3.3689e+00
-1.9671e+00 -2.0125e-01 7.4770e-01
-1.9547e+00 -3.7823e-01 -1.7635e+00
-1.6865e+00 -4.7699e-01 -3.7279e+00
-1.2569e+00 -5.0333e-01 -5.0086e+00
-7.5841e-01 -4.6757e-01 -5.6249e+00
1.4195e+00 -6.1466e-08 5.9154e+00
-3.4824e-01 -6.3631e-08 6.2196e+00
-1.7540e+00 1.2807e-07 5.3364e+00
-2.7127e+00 9.8909e-08 3.5258e+00
-3.1764e+00 2.2611e-07 1.1924e+00
-3.1410e+00 2.1638e-07 -1.1180e+00
-2.6987e+00 2.2665e-07 -2.9953e+00
-2.0042e+00 3.5835e-07 -4.2939e+00
-1.2028e+00 3.6445e-07 -5.0121e+00
1.3913e+00 -1.2551e+00 4.5846e+00
-7.3137e-01 -9.5332e-01 5.2267e+00
-2.3782e+00 -5.4645e-01 4.7896e+00
-3.4436e+00 -7.3953e-02 3.4933e+00
-3.8826e+00 3.8799e-01 1.6662e+00
-3.7229e+00 7.4756e-01 -2.4344e-01
-3.0951e+00 9.5808e-01 -1.8846e+00
-2.1932e+00 1.0204e+00 -3.1131e+00
-1.1961e+00 9.5581e-01 -3.8985e+00
7.3531e-01 -2.6918e+00 3.1650e+00
-1.3703e+00 -2.1003e+00 4.0388e+00
-2.9217e+00 -1.2383e+00 4.0066e+00
-3.7952e+00 -2.2838e-01 3.2416e+00
-3.9867e+00 7.7038e-01 1.9773e+00
-3.5848e+00 1.5569e+00 5.4470e-01
-2.7656e+00 2.0229e+00 -7.7405e-01
-1.7282e+00 2.1766e+00 -1.8392e+00
-6.5306e-01 2.0752e+00 -2.6400e+00
-3.3022e-01 -3.9782e+00 2.0202e+00
-2.1900e+00 -3.1487e+00 2.8983e+00
-3.3744e+00 -1.9247e+00 3.1626e+00
-3.8148e+00 -4.6488e-01 2.8166e+00
-3.5937e+00 9.9418e-01 2.0211e+00
-2.8844e+00 2.1677e+00 1.0214e+00
-1.8905e+00 2.8848e+00 3.3687e-02
-7.9422e-01 3.1472e+00 -8.1846e-01
2.8179e-01 2.9882e+00 -1.4533e+00
7.6095e-01 -1.5341e+00 2.3118e+00
9.8419e-01 -1.3130e+00 2.2835e+00
1.0048e+00 -8.9613e-01 1.8573e+00
8.3479e-01 -3.5913e-01 1.1314e+00
5.3251e-01 2.1231e-01 2.5139e-01
1.8325e-01 7.0406e-01 -5.8502e-01
-1.4237e-01 1.0377e+00 -1.2322e+00
-4.0752e-01 1.2018e+00 -1.6457e+00
-6.0182e-01 1.2154e+00 -1.8387e+00
1.4987e-01 -5.4240e-01 3.5906e+00
2.8827e-01 -4.3896e-01 3.5130e+00
3.5649e-01 -2.8023e-01 2.8146e+00
3.5259e-01 -8.6128e-02 1.6650e+00
2.8728e-01 1.1470e-01 2.9306e-01
1.8572e-01 2.8255e-01 -9.9882e-01
7.4722e-02 3.9121e-01 -1.9888e+00
-3.0266e-02 4.3879e-01 -2.6135e+00
-1.1856e-01 4.3345e-01 -2.8946e+00
-4.3321e-02 5.8443e-01 4.7470e+00
-2.2778e-01 4.7377e-01 4.6444e+00
-3.4508e-01 2.9492e-01 3.7234e+00
-3.9087e-01 7.7541e-02 2.1993e+00
-3.7118e-01 -1.4072e-01 3.7635e-01
-3.0094e-01 -3.1534e-01 -1.3414e+00
-1.9986e-01 -4.2125e-01 -2.6571e+00
-8.8055e-02 -4.5860e-01 -3.4902e+00
1.7838e-02 -4.3881e-01 -3.8632e+00
2.5881e-01 1.5045e+00 5.4356e+00
-5.0471e-01 1.1709e+00 5.4206e+00
-1.0595e+00 6.9449e-01 4.4320e+00
-1.3738e+00 1.3297e-01 2.7094e+00
-1.4459e+00 -4.2316e-01 6.0740e-01
-1.3045e+00 -8.6205e-01 -1.3987e+00
-1.0088e+00 -1.1219e+00 -2.9621e+00
-6.3429e-01 -1.2048e+00 -3.9791e+00
-2.4709e-01 -1.1387e+00 -4.4662e+00
8.7249e-01 1.8034e+00 5.3788e+00
-6.1142e-01 1.3771e+00 5.6275e+00
-1.7459e+00 7.9412e-01 4.8060e+00
-2.4634e+00 1.1794e-01 3.1612e+00
-2.7356e+00 -5.4550e-01 1.0566e+00
-2.5910e+00 -1.0640e+00 -1.0188e+00
-2.1231e+00 -1.3651e+00 -2.6945e+00
-1.4703e+00 -1.4529e+00 -3.8527e+00
-7.6106e-01 -1.3628e+00 -4.4871e+00
1.3913e+00 1.2551e+00 4.5846e+00
-7.3137e-01 9.5332e-01 5.2267e+00
-2.3782e+00 5.4645e-01 4.7896e+00
-3.4436e+00 7.3953e-02 3.4933e+00
-3.8826e+00 -3.8799e-01 1.6662e+00
-3.7229e+00 -7.4756e-01 -2.4344e-01
-3.0951e+00 -9.5808e-01 -1.8846e+00
-2.1932e+00 -1.0204e+00 -3.1131e+00
-1.1961e+00 -9.5580e-01 -3.8985e+00
1.4355e+00 1.2100e-07 3.3444e+00
-1.0411e+00 4.2812e-09 4.3949e+00
-2.9369e+00 1.7961e-07 4.4303e+00
-4.1291e+00 7.9027e-08 3.6317e+00
-4.5683e+00 1.6577e-07 2.2619e+00
-4.3112e+00 3.5683e-07 6.8330e-01
-3.5207e+00 4.7839e-07 -7.9132e-01
-2.4319e+00 5.0441e-07 -2.0195e+00
-1.2547e+00 4.8992e-07 -2.9231e+00
9.1094e-01 -1.5559e+00 2.0893e+00
-1.5780e+00 -1.2230e+00 3.3976e+00
-3.4162e+00 -7.1823e-01 3.8351e+00
-4.4565e+00 -1.3031e-01 3.5284e+00
-4.6912e+00 4.4977e-01 2.6515e+00
-4.2276e+00 9.0782e-01 1.4712e+00
-3.2722e+00 1.1774e+00 2.4723e-01
-2.0586e+00 1.2724e+00 -8.6420e-01
-8.0216e-01 1.2329e+00 -1.8094e+00
-1.6478e-02 -3.1174e+00 1.1427e+00
-2.2951e+00 -2.4110e+00 2.4391e+00
-3.8046e+00 -1.4502e+00 3.1520e+00
-4.4509e+00 -3.1884e-01 3.2103e+00
-4.3172e+00 8.0729e-01 2.7296e+00
-3.5816e+00 1.7029e+00 1.9147e+00
-2.4740e+00 2.2485e+00 9.6488e-01
-1.2130e+00 2.4271e+00 4.6391e-02
6.7819e-02 2.2477e+00 -7.3285e-01
3.4430e-01 -4.7223e-01 1.1736e+00
3.8039e-01 -4.1983e-01 1.1455e+00
3.4530e-01 -3.0196e-01 9.1804e-01
2.4817e-01 -1.4200e-01 5.4440e-01
1.1319e-01 3.2983e-02 9.9060e-02
-2.5347e-02 1.8870e-01 -3.1978e-01
-1.4150e-01 2.9986e-01 -6.4044e-01
-2.2538e-01 3.6098e-01 -8.4241e-01
-2.7592e-01 3.7808e-01 -9.3453e-01
-2.6831e-01 5.2774e-01 2.3408e+00
-3.2684e-01 4.6611e-01 2.2878e+00
-3.1872e-01 3.2752e-01 1.8311e+00
-2.5444e-01 1.4107e-01 1.0824e+00
-1.5279e-01 -5.9141e-02 1.9244e-01
-3.9716e-02 -2.3093e-01 -6.4327e-01
6.3302e-02 -3.4694e-01 -1.2826e+00
1.4607e-01 -4.0387e-01 -1.6851e+00
2.0416e-01 -4.0732e-01 -1.8663e+00