<?xml version="1.0"?>
<VTKFile type="StructuredGrid" version="0.1">
  <StructuredGrid WholeExtent="0 8 0 8 0 8">
    <Piece Extent="0 8 0 8 0 8">
      <PointData Scalars="temperature" Vectors="velocity">
        <DataArray type="Float32" Name="temperature" format="ascii">
1.000000e+00
8.750000e-01
7.500000e-01
6.250000e-01
5.001738e-01
3.750000e-01
2.500000e-01
1.250000e-01
0.000000e+00
1.000000e+00
8.750000e-01
7.500000e-01
6.250000e-01
4.993471e-01
3.750000e-01
2.500000e-01
1.250000e-01
0.000000e+00
1.000000e+00
8.750000e-01
7.500000e-01
6.250000e-01
4.966767e-01
3.750000e-01
2.500000e-01
1.250000e-01
0.000000e+00
1.000000e+00
8.750000e-01
7.500000e-01
6.250000e-01
4.922142e-01
3.750000e-01
2.500000e-01
1.250000e-01
0.000000e+00
1.000000e+00
8.750000e-01
7.500000e-01
6.250000e-01
4.865757e-01
3.750000e-01
2.500000e-01
1.250000e-01
0.000000e+00
1.000000e+00
8.750000e-01
7.500000e-01
6.250000e-01
4.808345e-01
3.750000e-01
2.500000e-01
1.250000e-01
0.000000e+00
1.000000e+00
8.750000e-01
7.500000e-01
6.250000e-01
4.761229e-01
3.750000e-01
2.500000e-01
1.250000e-01
0.000000e+00
1.000000e+00
8.750000e-01
7.500000e-01
6.250000e-01
4.731971e-01
3.750000e-01
2.500000e-01
1.250000e-01
0.000000e+00
1.000000e+00
8.750000e-01
7.500000e-01
6.250000e-01
4.722520e-01
3.750000e-01
2.500000e-01
1.250000e-01
0.000000e+00
1.000000e+00
8.750000e-01
7.500000e-01
6.250000e-01
5.017325e-01
3.750000e-01
2.500000e-01
1.250000e-01
0.000000e+00
1.000000e+00
8.750000e-01
7.500000e-01
6.250000e-01
5.009268e-01
3.750000e-01
2.500000e-01
1.250000e-01
0.000000e+00
1.000000e+00
8.750000e-01
7.500000e-01
6.250000e-01
4.980773e-01
3.750000e-01
2.500000e-01
1.250000e-01
0.000000e+00
1.000000e+00
8.750000e-01
7.500000e-01
6.250000e-01
4.932282e-01
3.750000e-01
2.500000e-01
1.250000e-01
0.000000e+00
1.000000e+00
8.750000e-01
7.500000e-01
6.250000e-01
4.871241e-01
3.750000e-01
2.500000e-01
1.250000e-01
0.000000e+00
1.000000e+00
8.750000e-01
7.500000e-01
6.250000e-01
4.810690e-01
3.750000e-01
2.500000e-01
1.250000e-01
0.000000e+00
1.000000e+00
8.750000e-01
7.500000e-01
6.250000e-01
4.763880e-01
3.750000e-01
2.500000e-01
1.250000e-01
0.000000e+00
1.000000e+00
8.750000e-01
7.500000e-01
6.250000e-01
4.738692e-01
3.750000e-01
2.500000e-01
1.250000e-01
0.000000e+00
1.000000e+00
8.750000e-01
7.500000e-01
6.250000e-01
4.735857e-01
3.750000e-01
2.500000e-01
1.250000e-01
0.000000e+00
1.000000e+00
8.750000e-01
7.500000e-01
6.250000e-01
5.050757e-01
3.750000e-01
2.500000e-01
1.250000e-01
0.000000e+00
1.000000e+00
8.750000e-01
7.500000e-01
6.250000e-01
5.044651e-01
3.750000e-01
2.500000e-01
1.250000e-01
0.000000e+00
1.000000e+00
8.750000e-01
7.500000e-01
6.250000e-01
5.016104e-01
3.750000e-01
2.500000e-01
1.250000e-01
0.000000e+00
1.000000e+00
8.750000e-01
7.500000e-01
6.250000e-01
4.965206e-01
3.750000e-01
2.500000e-01
1.250000e-01
0.000000e+00
1.000000e+00
8.750000e-01
7.500000e-01
6.250000e-01
4.900409e-01
3.750000e-01
2.500000e-01
1.250000e-01
0.000000e+00
1.000000e+00
8.750000e-01
7.500000e-01
6.250000e-01
4.836883e-01
3.750000e-01
2.500000e-01
1.250000e-01
0.000000e+00
1.000000e+00
8.750000e-01
7.500000e-01
6.250000e-01
4.789700e-01
3.750000e-01
2.500000e-01
1.250000e-01
0.000000e+00
1.000000e+00
8.750000e-01
7.500000e-01
6.250000e-01
4.767017e-01
3.750000e-01
2.500000e-01
1.250000e-01
0.000000e+00
1.000000e+00
8.750000e-01
7.500000e-01
6.250000e-01
4.768444e-01
3.750000e-01
2.500000e-01
1.250000e-01
0.000000e+00
1.000000e+00
8.750000e-01
7.500000e-01
6.250000e-01
5.100092e-01
3.750000e-01
2.500000e-01
1.250000e-01
0.000000e+00
1.000000e+00
8.750000e-01
7.500000e-01
6.250000e-01
5.097493e-01
3.750000e-01
2.500000e-01
1.250000e-01
0.000000e+00
1.000000e+00
8.750000e-01
7.500000e-01
6.250000e-01
5.070784e-01
3.750000e-01
2.500000e-01
1.250000e-01
0.000000e+00
1.000000e+00
8.750000e-01
7.500000e-01
6.250000e-01
5.019479e-01
3.750000e-01
2.500000e-01
1.250000e-01
0.000000e+00
1.000000e+00
8.750000e-01
7.500000e-01
6.250000e-01
4.952506e-01
3.750000e-01
2.500000e-01
1.250000e-01
0.000000e+00
1.000000e+00
8.750000e-01
7.500000e-01
6.250000e-01
4.886509e-01
3.750000e-01
2.500000e-01
1.250000e-01
0.000000e+00
1.000000e+00
8.750000e-01
7.500000e-01
6.250000e-01
4.837961e-01
3.750000e-01
2.500000e-01
1.250000e-01
0.000000e+00
1.000000e+00
8.750000e-01
7.500000e-01
6.250000e-01
4.815353e-01
3.750000e-01
2.500000e-01
1.250000e-01
0.000000e+00
1.000000e+00
8.750000e-01
7.500000e-01
6.250000e-01
4.817667e-01
3.750000e-01
2.500000e-01
1.250000e-01
0.000000e+00
1.000000e+00
8.750000e-01
7.500000e-01
6.250000e-01
5.157881e-01
3.750000e-01
2.500000e-01
1.250000e-01
0.000000e+00
1.000000e+00
8.750000e-01
7.500000e-01
6.250000e-01
5.158879e-01
3.750000e-01
2.500000e-01
1.250000e-01
0.000000e+00
1.000000e+00
8.750000e-01
7.500000e-01
6.250000e-01
5.134787e-01
3.750000e-01
2.500000e-01
1.250000e-01
0.000000e+00
1.000000e+00
8.750000e-01
7.500000e-01
6.250000e-01
5.084652e-01
3.750000e-01
2.500000e-01
1.250000e-01
0.000000e+00
1.000000e+00
8.750000e-01
7.500000e-01
6.250000e-01
5.017369e-01
3.750000e-01
2.500000e-01
1.250000e-01
0.000000e+00
1.000000e+00
8.750000e-01
7.500000e-01
6.250000e-01
4.950042e-01
3.750000e-01
2.500000e-01
1.250000e-01
0.000000e+00
1.000000e+00
8.750000e-01
7.500000e-01
6.250000e-01
4.899723e-01
3.750000e-01
2.500000e-01
1.250000e-01
0.000000e+00
1.000000e+00
8.750000e-01
7.500000e-01
6.250000e-01
4.875203e-01
3.750000e-01
2.500000e-01
1.250000e-01
0.000000e+00
1.000000e+00
8.750000e-01
7.500000e-01
6.250000e-01
4.875461e-01
3.750000e-01
2.500000e-01
1.250000e-01
0.000000e+00
1.000000e+00
8.750000e-01
7.500000e-01
6.250000e-01
5.212836e-01
3.750000e-01
2.500000e-01
1.250000e-01
0.000000e+00
1.000000e+00
8.750000e-01
7.500000e-01
6.250000e-01
5.215293e-01
3.750000e-01
2.500000e-01
1.250000e-01
0.000000e+00
1.000000e+00
8.750000e-01
7.500000e-01
6.250000e-01
5.192613e-01
3.750000e-01
2.500000e-01
1.250000e-01
0.000000e+00
1.000000e+00
8.750000e-01
7.500000e-01
6.250000e-01
5.143939e-01
3.750000e-01
2.500000e-01
1.250000e-01
0.000000e+00
1.000000e+00
8.750000e-01
7.500000e-01
6.250000e-01
5.077933e-01
3.750000e-01
2.500000e-01
1.250000e-01
0.000000e+00
1.000000e+00
8.750000e-01
7.500000e-01
6.250000e-01
5.011116e-01
3.750000e-01
2.500000e-01
1.250000e-01
0.000000e+00
1.000000e+00
8.750000e-01
7.500000e-01
6.250000e-01
4.960004e-01
3.750000e-01
2.500000e-01
1.250000e-01
0.000000e+00
1.000000e+00
8.750000e-01
7.500000e-01
6.250000e-01
4.933319e-01
3.750000e-01
2.500000e-01
1.250000e-01
0.000000e+00
1.000000e+00
8.750000e-01
7.500000e-01
6.250000e-01
4.930420e-01
3.750000e-01
2.500000e-01
1.250000e-01
0.000000e+00
1.000000e+00
8.750000e-01
7.500000e-01
6.250000e-01
5.254102e-01
3.750000e-01
2.500000e-01
1.250000e-01
0.000000e+00
1.000000e+00
8.750000e-01
7.500000e-01
6.250000e-01
5.254314e-01
3.750000e-01
2.500000e-01
1.250000e-01
0.000000e+00
1.000000e+00
8.750000e-01
7.500000e-01
6.250000e-01
5.230398e-01
3.750000e-01
2.500000e-01
1.250000e-01
0.000000e+00
1.000000e+00
8.750000e-01
7.500000e-01
6.250000e-01
5.182342e-01
3.750000e-01
2.500000e-01
1.250000e-01
0.000000e+00
1.000000e+00
8.750000e-01
7.500000e-01
6.250000e-01
5.118637e-01
3.750000e-01
2.500000e-01
1.250000e-01
0.000000e+00
1.000000e+00
8.750000e-01
7.500000e-01
6.250000e-01
5.054435e-01
3.750000e-01
2.500000e-01
1.250000e-01
0.000000e+00
1.000000e+00
8.750000e-01
7.500000e-01
6.250000e-01
5.004661e-01
3.750000e-01
2.500000e-01
1.250000e-01
0.000000e+00
1.000000e+00
8.750000e-01
7.500000e-01
6.250000e-01
4.977344e-01
3.750000e-01
2.500000e-01
1.250000e-01
0.000000e+00
1.000000e+00
8.750000e-01
7.500000e-01
6.250000e-01
4.972207e-01
3.750000e-01
2.500000e-01
1.250000e-01
0.000000e+00
1.000000e+00
8.750000e-01
7.500000e-01
6.250000e-01
5.275364e-01
3.750000e-01
2.500000e-01
1.250000e-01
0.000000e+00
1.000000e+00
8.750000e-01
7.500000e-01
6.250000e-01
5.269760e-01
3.750000e-01
2.500000e-01
1.250000e-01
0.000000e+00
1.000000e+00
8.750000e-01
7.500000e-01
6.250000e-01
5.242080e-01
3.750000e-01
2.500000e-01
1.250000e-01
0.000000e+00
1.000000e+00
8.750000e-01
7.500000e-01
6.250000e-01
5.193641e-01
3.750000e-01
2.500000e-01
1.250000e-01
0.000000e+00
1.000000e+00
8.750000e-01
7.500000e-01
6.250000e-01
5.132802e-01
3.750000e-01
2.500000e-01
1.250000e-01
0.000000e+00
1.000000e+00
8.750000e-01
7.500000e-01
6.250000e-01
5.072914e-01
3.750000e-01
2.500000e-01
1.250000e-01
0.000000e+00
1.000000e+00
8.750000e-01
7.500000e-01
6.250000e-01
5.026658e-01
3.750000e-01
2.500000e-01
1.250000e-01
0.000000e+00
1.000000e+00
8.750000e-01
7.500000e-01
6.250000e-01
5.000855e-01
3.750000e-01
2.500000e-01
1.250000e-01
0.000000e+00
1.000000e+00
8.750000e-01
7.500000e-01
6.250000e-01
4.995353e-01
3.750000e-01
2.500000e-01
1.250000e-01
0.000000e+00
1.000000e+00
8.750000e-01
7.500000e-01
6.250000e-01
5.276118e-01
3.750000e-01
2.500000e-01
1.250000e-01
0.000000e+00
1.000000e+00
8.750000e-01
7.500000e-01
6.250000e-01
5.262658e-01
3.750000e-01
2.500000e-01
1.250000e-01
0.000000e+00
1.000000e+00
8.750000e-01
7.500000e-01
6.250000e-01
5.230003e-01
3.750000e-01
2.500000e-01
1.250000e-01
0.000000e+00
1.000000e+00
8.750000e-01
7.500000e-01
6.250000e-01
5.180810e-01
3.750000e-01
2.500000e-01
1.250000e-01
0.000000e+00
1.000000e+00
8.750000e-01
7.500000e-01
6.250000e-01
5.123167e-01
3.750000e-01
2.500000e-01
1.250000e-01
0.000000e+00
1.000000e+00
8.750000e-01
7.500000e-01
6.250000e-01
5.068483e-01
3.750000e-01
2.500000e-01
1.250000e-01
0.000000e+00
1.000000e+00
8.750000e-01
7.500000e-01
6.250000e-01
5.027058e-01
3.750000e-01
2.500000e-01
1.250000e-01
0.000000e+00
1.000000e+00
8.750000e-01
7.500000e-01
6.250000e-01
5.004314e-01
3.750000e-01
2.500000e-01
1.250000e-01
0.000000e+00
1.000000e+00
8.750000e-01
7.500000e-01
6.250000e-01
5.000030e-01
3.750000e-01
2.500000e-01
1.250000e-01
0.000000e+00
        </DataArray>
        <DataArray type="Float32" Name="velocity" NumberOfComponents="3" format="ascii">
3.3678e-01 5.4690e-08 -1.6545e-02
3.3792e-01 7.4237e-08 -7.8420e-03
2.8705e-01 5.9335e-08 8.6685e-04
1.8253e-01 4.0898e-08 9.0508e-03
3.2936e-02 3.9528e-08 1.6221e-02
-1.0686e-01 3.9473e-08 2.0163e-02
-1.9932e-01 3.3932e-08 2.0105e-02
-2.5218e-01 3.3355e-08 1.7524e-02
-2.7684e-01 3.7761e-08 1.3601e-02
3.3837e-01 7.3126e-01 6.2269e-02
3.3739e-01 7.3440e-01 3.0038e-02
2.8478e-01 6.2589e-01 -2.5757e-03
1.7902e-01 3.9964e-01 -3.1908e-02
2.8709e-02 7.4934e-02 -5.8332e-02
-1.1125e-01 -2.2932e-01 -7.4574e-02
-2.0335e-01 -4.3144e-01 -7.6292e-02
-2.5541e-01 -5.4775e-01 -6.6719e-02
-2.7894e-01 -6.0153e-01 -5.1193e-02
3.4305e-01 1.4033e+00 3.0383e-01
3.3550e-01 1.4362e+00 1.4112e-01
2.7759e-01 1.2496e+00 -1.9332e-02
1.6795e-01 8.2682e-01 -1.6719e-01
1.5302e-02 2.0066e-01 -2.9756e-01
-1.2498e-01 -3.9243e-01 -3.7202e-01
-2.1545e-01 -7.9386e-01 -3.7226e-01
-2.6477e-01 -1.0321e+00 -3.2426e-01
-2.8492e-01 -1.1489e+00 -2.4854e-01
3.4831e-01 1.8541e+00 6.5832e-01
3.3031e-01 1.9760e+00 2.8715e-01
2.6429e-01 1.7902e+00 -7.1187e-02
1.4916e-01 1.2608e+00 -3.9898e-01
-6.1306e-03 4.3076e-01 -6.8210e-01
-1.4571e-01 -3.7926e-01 -8.3452e-01
-2.3274e-01 -9.5033e-01 -8.2392e-01
-2.7711e-01 -1.3111e+00 -7.0836e-01
-2.9171e-01 -1.5077e+00 -5.3493e-01
3.4819e-01 1.9570e+00 9.9713e-01
3.1826e-01 2.2461e+00 3.8559e-01
2.4396e-01 2.1701e+00 -1.8793e-01
1.2455e-01 1.6711e+00 -6.9944e-01
-3.0952e-02 7.9029e-01 -1.1266e+00
-1.6708e-01 -1.1558e-01 -1.3389e+00
-2.4829e-01 -8.0347e-01 -1.2953e+00
-2.8607e-01 -1.2784e+00 -1.0930e+00
-2.9381e-01 -1.5735e+00 -8.0105e-01
3.3618e-01 1.6927e+00 1.1588e+00
2.9616e-01 2.2162e+00 3.4272e-01
2.1690e-01 2.3492e+00 -3.8985e-01
9.7620e-02 2.0144e+00 -1.0177e+00
-5.2735e-02 1.2481e+00 -1.5093e+00
-1.8093e-01 3.7485e-01 -1.7176e+00
-2.5404e-01 -3.6239e-01 -1.6127e+00
-2.8442e-01 -9.3458e-01 -1.3174e+00
-2.8561e-01 -1.3405e+00 -9.1671e-01
3.0929e-01 1.1753e+00 1.0398e+00
2.6369e-01 1.9453e+00 1.0778e-01
1.8491e-01 2.3360e+00 -6.7894e-01
7.2286e-02 2.2524e+00 -1.3003e+00
-6.6223e-02 1.7104e+00 -1.7321e+00
-1.8166e-01 9.7264e-01 -1.8480e+00
-2.4481e-01 2.4480e-01 -1.6508e+00
-2.6814e-01 -3.9110e-01 -1.2731e+00
-2.6418e-01 -8.9805e-01 -7.9317e-01
2.6864e-01 5.6466e-01 6.2774e-01
2.2297e-01 1.5537e+00 -3.0826e-01
1.5093e-01 2.1826e+00 -1.0228e+00
5.0688e-02 2.3557e+00 -1.5175e+00
-6.9921e-02 2.0835e+00 -1.7621e+00
-1.6847e-01 1.5213e+00 -1.6986e+00
-2.2090e-01 8.4197e-01 -1.3909e+00
-2.3870e-01 1.7019e-01 -9.6124e-01
-2.3197e-01 -4.0766e-01 -4.5132e-01
2.1893e-01 3.2778e-03 -6.1141e-03
1.7874e-01 1.1803e+00 -8.3736e-01
1.1771e-01 1.9571e+00 -1.3855e+00
3.4742e-02 2.3300e+00 -1.6479e+00
-6.4210e-02 2.2741e+00 -1.6071e+00
-1.4502e-01 1.8778e+00 -1.3260e+00
-1.8661e-01 1.2808e+00 -9.0355e-01
-1.9943e-01 6.1257e-01 -4.3121e-01
-1.9531e-01 -3.7775e-03 4.2461e-03
1.0312e+00 7.3346e-08 -1.6264e-01
1.0440e+00 8.8832e-08 -7.7222e-02
8.9734e-01 6.8185e-08 8.2746e-03
5.8172e-01 5.0058e-08 8.7118e-02
1.2362e-01 4.5761e-08 1.5702e-01
-3.0781e-01 4.1831e-08 1.9728e-01
-5.9655e-01 5.5701e-08 1.9865e-01
-7.6504e-01 6.9010e-08 1.7323e-01
-8.4523e-01 8.9818e-08 1.3331e-01
1.0623e+00 7.6976e-01 -8.5467e-02
1.0699e+00 7.6582e-01 -3.9836e-02
9.1351e-01 6.4467e-01 5.1721e-03
5.8553e-01 4.0259e-01 4.7700e-02
1.1370e-01 6.0967e-02 8.4979e-02
-3.2980e-01 -2.5762e-01 1.0513e-01
-6.2574e-01 -4.6778e-01 1.0451e-01
-7.9703e-01 -5.8680e-01 9.0814e-02
-8.7728e-01 -6.4048e-01 7.0040e-02
1.1081e+00 1.4751e+00 1.7018e-01
1.0954e+00 1.4970e+00 7.7115e-02
9.1548e-01 1.2883e+00 -1.2725e-02
5.6324e-01 8.3769e-01 -9.8761e-02
6.9845e-02 1.7839e-01 -1.7424e-01
-3.8828e-01 -4.4472e-01 -2.1356e-01
-6.8858e-01 -8.6288e-01 -2.1058e-01
-8.5683e-01 -1.1081e+00 -1.8210e-01
-9.3090e-01 -1.2257e+00 -1.3970e-01
1.1601e+00 1.9259e+00 5.4532e-01
1.1137e+00 2.0449e+00 2.2830e-01
8.9676e-01 1.8386e+00 -7.3092e-02
5.1098e-01 1.2824e+00 -3.5454e-01
-6.9293e-03 4.1783e-01 -5.9612e-01
-4.7821e-01 -4.2924e-01 -7.1492e-01
-7.7710e-01 -1.0245e+00 -6.9575e-01
-9.3495e-01 -1.3974e+00 -5.9321e-01
-9.9793e-01 -1.6020e+00 -4.4785e-01
1.1969e+00 1.9743e+00 8.8262e-01
1.1099e+00 2.2877e+00 3.1594e-01
8.5243e-01 2.2057e+00 -2.0927e-01
4.3479e-01 1.7020e+00 -6.8437e-01
-1.0066e-01 8.0963e-01 -1.0744e+00
-5.7627e-01 -1.2706e-01 -1.2491e+00
-8.6543e-01 -8.3882e-01 -1.1893e+00
-1.0059e+00 -1.3335e+00 -9.9230e-01
-1.0537e+00 -1.6530e+00 -7.2960e-01
1.1898e+00 1.6199e+00 9.9545e-01
1.0681e+00 2.1966e+00 2.3476e-01
7.8098e-01 2.3480e+00 -4.4416e-01
3.4742e-01 2.0431e+00 -1.0236e+00
-1.8583e-01 1.3053e+00 -1.4624e+00
-6.4876e-01 4.2358e-01 -1.6179e+00
-9.1837e-01 -3.3176e-01 -1.4870e+00
-1.0371e+00 -9.2414e-01 -1.1938e+00
-1.0698e+00 -1.3725e+00 -8.3173e-01
1.1256e+00 1.0129e+00 7.7437e-01
9.8070e-01 1.8592e+00 -6.4046e-02
6.8584e-01 2.2813e+00 -7.7189e-01
2.6364e-01 2.2577e+00 -1.3131e+00
-2.4109e-01 1.7844e+00 -1.6507e+00
-6.7062e-01 1.0630e+00 -1.6906e+00
-9.1045e-01 3.3409e-01 -1.4563e+00
-1.0066e+00 -3.2261e-01 -1.0831e+00
-1.0220e+00 -8.8437e-01 -6.6823e-01
9.9786e-01 3.7195e-01 2.5939e-01
8.5885e-01 1.4188e+00 -5.4525e-01
5.7713e-01 2.0721e+00 -1.1531e+00
1.8986e-01 2.3108e+00 -1.5247e+00
-2.5785e-01 2.1266e+00 -1.6281e+00
-6.3437e-01 1.6052e+00 -1.4590e+00
-8.3885e-01 9.4623e-01 -1.1041e+00
-9.1131e-01 2.7842e-01 -6.7363e-01
-9.3057e-01 -3.5069e-01 -2.4674e-01
9.0529e-01 -1.4353e-01 -4.3498e-01
7.0622e-01 9.9695e-01 -1.1153e+00
4.6388e-01 1.8028e+00 -1.5432e+00
1.3179e-01 2.2274e+00 -1.6488e+00
-2.5921e-01 2.2558e+00 -1.4411e+00
-5.6245e-01 1.9279e+00 -1.0358e+00
-7.1874e-01 1.3742e+00 -5.5567e-01
-7.6128e-01 7.4067e-01 -8.5672e-02
-6.8655e-01 9.8555e-02 3.1336e-01
1.6145e+00 7.9629e-08 -4.5290e-01
1.6773e+00 9.0235e-08 -2.0669e-01
1.4814e+00 3.6459e-08 3.4747e-02
1.0049e+00 4.6205e-08 2.5760e-01
2.8479e-01 5.0149e-08 4.5256e-01
-4.0474e-01 4.8771e-08 5.6077e-01
-8.7879e-01 6.4993e-08 5.5770e-01
-1.1669e+00 7.6050e-08 4.8334e-01
-1.3148e+00 9.0576e-08 3.6881e-01
1.6643e+00 8.1754e-01 -3.8909e-01
1.7247e+00 7.9676e-01 -1.7382e-01
1.5157e+00 6.5345e-01 3.4175e-02
1.0214e+00 3.8741e-01 2.3084e-01
2.7803e-01 2.3779e-02 4.0179e-01
-4.3545e-01 -3.1100e-01 4.9058e-01
-9.2474e-01 -5.2739e-01 4.8296e-01
-1.2211e+00 -6.4529e-01 4.1634e-01
-1.3729e+00 -6.9548e-01 3.1844e-01
1.7517e+00 1.5746e+00 -1.3208e-01
1.7759e+00 1.5588e+00 -5.5486e-02
1.5275e+00 1.3073e+00 1.7002e-02
9.9046e-01 8.0957e-01 8.4340e-02
2.0305e-01 1.0123e-01 1.4177e-01
-5.4167e-01 -5.5749e-01 1.7074e-01
-1.0411e+00 -9.8794e-01 1.6665e-01
-1.3343e+00 -1.2308e+00 1.4235e-01
-1.4733e+00 -1.3365e+00 1.0796e-01
1.8633e+00 2.0559e+00 2.5551e-01
1.8189e+00 2.1212e+00 9.5342e-02
1.5029e+00 1.8591e+00 -5.1657e-02
9.0280e-01 1.2400e+00 -1.8651e-01
6.0407e-02 3.0938e-01 -2.9805e-01
-7.1538e-01 -5.8334e-01 -3.5069e-01
-1.2151e+00 -1.1943e+00 -3.3715e-01
-1.4897e+00 -1.5625e+00 -2.8309e-01
-1.6025e+00 -1.7460e+00 -2.1053e-01
1.9531e+00 2.0904e+00 5.9626e-01
1.8244e+00 2.3469e+00 1.7037e-01
1.4312e+00 2.2084e+00 -2.0840e-01
7.6820e-01 1.6436e+00 -5.4033e-01
-1.1842e-01 6.8797e-01 -7.9898e-01
-9.1110e-01 -2.8864e-01 -9.0470e-01
-1.3945e+00 -1.0113e+00 -8.4583e-01
-1.6382e+00 -1.4976e+00 -6.9153e-01
-1.7161e+00 -1.7896e+00 -4.9545e-01
1.9650e+00 1.6853e+00 6.8066e-01
1.7597e+00 2.2089e+00 5.5369e-02
1.3082e+00 2.3126e+00 -4.7384e-01
6.1156e-01 1.9611e+00 -9.0273e-01
-2.8223e-01 1.1811e+00 -1.1960e+00
-1.0575e+00 2.8038e-01 -1.2701e+00
-1.5065e+00 -4.7356e-01 -1.1320e+00
-1.7092e+00 -1.0522e+00 -8.7731e-01
-1.7498e+00 -1.4673e+00 -5.7841e-01
1.8577e+00 1.0302e+00 4.0669e-01
1.6110e+00 1.8179e+00 -2.8924e-01
1.1409e+00 2.1940e+00 -8.3515e-01
4.5939e-01 2.1381e+00 -1.2084e+00
-3.8504e-01 1.6467e+00 -1.3772e+00
-1.1023e+00 9.3336e-01 -1.3152e+00
-1.4964e+00 2.2540e-01 -1.0616e+00
-1.6583e+00 -4.0616e-01 -7.2113e-01
-1.6696e+00 -9.2705e-01 -3.6680e-01
1.6549e+00 3.7960e-01 -1.5705e-01
1.3995e+00 1.3351e+00 -8.0798e-01
9.4735e-01 1.9302e+00 -1.2429e+00
3.2412e-01 2.1394e+00 -1.4319e+00
-4.2083e-01 1.9535e+00 -1.3473e+00
-1.0365e+00 1.4627e+00 -1.0572e+00
-1.3599e+00 8.4612e-01 -6.7179e-01
-1.4714e+00 2.2150e-01 -2.6704e-01
-1.4624e+00 -3.5606e-01 1.0917e-01
1.4342e+00 -1.1655e-01 -8.8640e-01
1.1420e+00 8.9672e-01 -1.4006e+00
7.4888e-01 1.6219e+00 -1.6488e+00
2.2423e-01 1.9986e+00 -1.5629e+00
-4.0365e-01 2.0192e+00 -1.1558e+00
-8.9767e-01 1.7295e+00 -6.2139e-01
-1.1449e+00 1.2337e+00 -1.0742e-01
-1.2036e+00 6.6149e-01 3.3314e-01
-1.1174e+00 8.3675e-02 6.7734e-01
1.9346e+00 6.0286e-08 -8.1350e-01
2.1151e+00 5.3456e-08 -3.4382e-01
1.9608e+00 3.1075e-08 1.0596e-01
1.4288e+00 2.4667e-08 5.1512e-01
5.6324e-01 2.4841e-08 8.6471e-01
-2.9755e-01 3.7701e-08 1.0477e+00
-9.2003e-01 3.6145e-08 1.0271e+00
-1.3268e+00 3.9478e-08 8.7730e-01
-1.5612e+00 6.1397e-08 6.5649e-01
1.9674e+00 8.6660e-01 -7.6140e-01
2.1609e+00 8.2110e-01 -3.1088e-01
2.0014e+00 6.4710e-01 1.1585e-01
1.4601e+00 3.5166e-01 5.1072e-01
5.7765e-01 -3.4584e-02 8.4593e-01
-3.0985e-01 -3.8388e-01 1.0088e+00
-9.5406e-01 -6.0224e-01 9.7798e-01
-1.3758e+00 -7.1417e-01 8.3026e-01
-1.6246e+00 -7.5844e-01 6.2334e-01
2.0743e+00 1.6850e+00 -5.0976e-01
2.2214e+00 1.6075e+00 -1.8797e-01
2.0142e+00 1.2931e+00 1.0765e-01
1.4194e+00 7.3540e-01 3.7645e-01
4.8034e-01 -2.6974e-02 5.9810e-01
-4.4578e-01 -7.1814e-01 7.0161e-01
-1.1032e+00 -1.1516e+00 6.7295e-01
-1.5206e+00 -1.3797e+00 5.6447e-01
-1.7497e+00 -1.4632e+00 4.1849e-01
2.2382e+00 2.2189e+00 -1.1987e-01
2.2814e+00 2.1851e+00 -3.6381e-02
1.9764e+00 1.8288e+00 3.8360e-02
1.2895e+00 1.1204e+00 1.0376e-01
2.7151e-01 1.1175e-01 1.5557e-01
-6.9755e-01 -8.2450e-01 1.7717e-01
-1.3533e+00 -1.4357e+00 1.6646e-01
-1.7408e+00 -1.7766e+00 1.3701e-01
-1.9270e+00 -1.9202e+00 9.8806e-02
2.3930e+00 2.2762e+00 2.2030e-01
2.2976e+00 2.4039e+00 3.0151e-02
1.8726e+00 2.1486e+00 -1.3185e-01
1.0868e+00 1.4776e+00 -2.6383e-01
-2.9901e-03 4.3474e-01 -3.5915e-01
-9.9644e-01 -5.8437e-01 -3.8661e-01
-1.6276e+00 -1.2976e+00 -3.4797e-01
-1.9635e+00 -1.7414e+00 -2.7413e-01
-2.0884e+00 -1.9764e+00 -1.8562e-01
2.4391e+00 1.8625e+00 2.9335e-01
2.2181e+00 2.2381e+00 -1.0472e-01
1.6974e+00 2.2116e+00 -4.2060e-01
8.5104e-01 1.7494e+00 -6.4803e-01
-2.5844e-01 8.8834e-01 -7.7179e-01
-1.2305e+00 -4.2915e-02 -7.5954e-01
-1.8104e+00 -7.7190e-01 -6.3392e-01
-2.0826e+00 -1.2928e+00 -4.5308e-01
-2.1452e+00 -1.6378e+00 -2.5776e-01
2.3162e+00 1.1932e+00 4.6298e-03
2.0201e+00 1.8120e+00 -4.7192e-01
1.4605e+00 2.0473e+00 -8.0857e-01
6.2509e-01 1.8800e+00 -9.7829e-01
-4.2386e-01 1.3188e+00 -9.7144e-01
-1.3146e+00 5.9177e-01 -8.1333e-01
-1.8146e+00 -7.4052e-02 -5.6373e-01
-2.0195e+00 -6.3050e-01 -2.8930e-01
-2.0302e+00 -1.0681e+00 -3.1721e-02
2.0385e+00 5.3527e-01 -5.6303e-01
1.7281e+00 1.3032e+00 -1.0043e+00
1.1900e+00 1.7434e+00 -1.2375e+00
4.3201e-01 1.8371e+00 -1.2279e+00
-4.8239e-01 1.5865e+00 -9.6671e-01
-1.2358e+00 1.0935e+00 -5.7921e-01
-1.6371e+00 5.3342e-01 -1.9162e-01
-1.7751e+00 -4.5854e-03 1.5327e-01
-1.7552e+00 -4.8985e-01 4.3651e-01
1.6934e+00 5.5345e-02 -1.2537e+00
1.3757e+00 8.5391e-01 -1.5907e+00
9.1591e-01 1.4056e+00 -1.6536e+00
2.9293e-01 1.6588e+00 -1.3881e+00
-4.5198e-01 1.6109e+00 -8.2148e-01
-1.0490e+00 1.3230e+00 -1.9124e-01
-1.3512e+00 8.9321e-01 3.2827e-01
-1.4323e+00 4.1721e-01 7.2229e-01
-1.3546e+00 -4.8372e-02 9.9375e-01
1.8937e+00 -2.3051e-08 -1.1013e+00
2.2694e+00 -3.5586e-09 -3.9866e-01
2.2660e+00 2.1364e-08 2.5212e-01
1.8190e+00 5.1888e-08 8.2559e-01
9.6701e-01 1.0158e-08 1.2958e+00
6.1587e-02 -2.4576e-08 1.5188e+00
-6.5254e-01 -4.5813e-08 1.4547e+00
-1.1672e+00 -5.4078e-08 1.2145e+00
-1.5055e+00 -6.8623e-08 8.7556e-01
1.8606e+00 9.0032e-01 -1.0297e+00
2.2810e+00 8.2645e-01 -3.4578e-01
2.2910e+00 6.2118e-01 2.8345e-01
1.8615e+00 2.9974e-01 8.4478e-01
1.0207e+00 -1.0216e-01 1.2972e+00
9.7723e-02 -4.5804e-01 1.4925e+00
-6.3702e-01 -6.7178e-01 1.4104e+00
-1.1749e+00 -7.7258e-01 1.1667e+00
-1.5464e+00 -8.0809e-01 8.4769e-01
1.9481e+00 1.7630e+00 -7.6990e-01
2.3220e+00 1.6153e+00 -2.0488e-01
2.2859e+00 1.2356e+00 2.9537e-01
1.8070e+00 6.2416e-01 7.2869e-01
9.1463e-01 -1.7654e-01 1.0617e+00
-3.9970e-02 -8.8351e-01 1.1925e+00
-7.8304e-01 -1.3042e+00 1.1081e+00
-1.3138e+00 -1.5072e+00 9.0010e-01
-1.6602e+00 -1.5624e+00 6.3836e-01
2.1390e+00 2.3479e+00 -3.7963e-01
2.3797e+00 2.1925e+00 -4.7442e-02
2.2226e+00 1.7323e+00 2.3538e-01
1.6335e+00 9.3936e-01 4.6515e-01
6.5108e-01 -1.2885e-01 6.2877e-01
-3.4747e-01 -1.0835e+00 6.7477e-01
-1.0807e+00 -1.6711e+00 6.0596e-01
-1.5671e+00 -1.9656e+00 4.7533e-01
-1.8543e+00 -2.0550e+00 3.1946e-01
2.3503e+00 2.4463e+00 -4.7088e-02
2.4021e+00 2.4052e+00 1.2876e-02
2.0838e+00 2.0090e+00 6.1113e-02
1.3630e+00 1.2265e+00 9.6401e-02
2.8663e-01 1.0864e-01 1.1639e-01
-7.4037e-01 -9.2750e-01 1.1612e-01
-1.4360e+00 -1.6015e+00 9.8026e-02
-1.8503e+00 -1.9777e+00 7.1105e-02
-2.0506e+00 -2.1336e+00 4.1633e-02
2.4511e+00 2.0618e+00 1.8903e-02
2.3206e+00 2.2274e+00 -1.3464e-01
1.8634e+00 2.0294e+00 -2.4225e-01
1.0495e+00 1.4360e+00 -3.0208e-01
-6.6003e-02 4.8988e-01 -3.0612e-01
-1.0710e+00 -4.5200e-01 -2.6219e-01
-1.6988e+00 -1.1263e+00 -1.8836e-01
-2.0234e+00 -1.5582e+00 -1.0418e-01
-2.1317e+00 -1.8004e+00 -2.3998e-02
2.3443e+00 1.4065e+00 -2.6282e-01
2.0991e+00 1.7879e+00 -5.1091e-01
1.5739e+00 1.8303e+00 -6.4932e-01
7.5286e-01 1.5172e+00 -6.5832e-01
-3.0625e-01 8.6638e-01 -5.3474e-01
-1.2214e+00 1.3334e-01 -3.4253e-01
-1.7513e+00 -4.6561e-01 -1.3998e-01
-1.9873e+00 -9.1805e-01 4.3739e-02
-2.0229e+00 -1.2367e+00 1.9352e-01
2.0400e+00 7.5639e-01 -7.9639e-01
1.7595e+00 1.2700e+00 -1.0384e+00
1.2484e+00 1.5031e+00 -1.0958e+00
5.0659e-01 1.4423e+00 -9.4251e-01
-4.0676e-01 1.0960e+00 -5.7944e-01
-1.1681e+00 6.0007e-01 -1.6381e-01
-1.5840e+00 1.1471e-01 1.8145e-01
-1.7404e+00 -3.0931e-01 4.4664e-01
-1.7310e+00 -6.6308e-01 6.3326e-01
1.6285e+00 2.7832e-01 -1.4249e+00
1.3518e+00 8.1390e-01 -1.6012e+00
9.2241e-01 1.1511e+00 -1.5216e+00
3.3036e-01 1.2467e+00 -1.1463e+00
-3.8898e-01 1.1066e+00 -5.0551e-01
-9.7455e-01 8.1520e-01 1.4314e-01
-1.2794e+00 4.6052e-01 6.2622e-01
-1.3726e+00 1.0342e-01 9.5193e-01
-1.3179e+00 -2.2738e-01 1.1471e+00
1.5107e+00 -2.3577e-08 -1.1614e+00
2.1362e+00 -8.6018e-08 -2.8370e-01
2.3700e+00 -8.7086e-08 4.8921e-01
2.1293e+00 4.3475e-09 1.1367e+00
1.4450e+00 2.3051e-09 1.6258e+00
6.1650e-01 -6.7019e-08 1.8111e+00
-1.2238e-01 -1.2260e-07 1.6727e+00
-7.2451e-01 -2.0041e-07 1.3409e+00
-1.1741e+00 -2.2785e-07 9.0266e-01
1.3892e+00 8.9766e-01 -1.0194e+00
2.0868e+00 8.0061e-01 -1.8210e-01
2.3570e+00 5.7413e-01 5.5489e-01
2.1673e+00 2.4059e-01 1.1682e+00
1.5333e+00 -1.6060e-01 1.6142e+00
7.0976e-01 -5.0891e-01 1.7525e+00
-4.3299e-02 -7.0991e-01 1.5865e+00
-6.6845e-01 -7.9618e-01 1.2510e+00
-1.1685e+00 -8.2254e-01 8.4768e-01
1.4318e+00 1.7610e+00 -7.2030e-01
2.0847e+00 1.5537e+00 -3.8786e-03
2.3153e+00 1.1302e+00 5.9475e-01
2.0884e+00 4.9634e-01 1.0674e+00
1.4218e+00 -3.0461e-01 1.3758e+00
5.8575e-01 -9.9287e-01 1.4353e+00
-1.6396e-01 -1.3834e+00 1.2600e+00
-7.7646e-01 -1.5522e+00 9.5838e-01
-1.2453e+00 -1.5775e+00 6.1167e-01
1.6227e+00 2.3541e+00 -3.2554e-01
2.1217e+00 2.0976e+00 1.6571e-01
2.2154e+00 1.5647e+00 5.5123e-01
1.8705e+00 7.3278e-01 8.2119e-01
1.1161e+00 -3.3673e-01 9.5742e-01
2.4505e-01 -1.2603e+00 9.2755e-01
-4.8076e-01 -1.7974e+00 7.6229e-01
-1.0341e+00 -2.0352e+00 5.3285e-01
-1.4305e+00 -2.0720e+00 2.8879e-01
1.8746e+00 2.4822e+00 -1.4993e-02
2.1422e+00 2.2893e+00 2.1768e-01
2.0417e+00 1.7846e+00 3.8012e-01
1.5416e+00 9.4006e-01 4.6676e-01
6.7811e-01 -1.8759e-01 4.6786e-01
-2.1923e-01 -1.1839e+00 3.9649e-01
-8.9438e-01 -1.7871e+00 2.8083e-01
-1.3552e+00 -2.0801e+00 1.5084e-01
-1.6411e+00 -2.1555e+00 2.7576e-02
2.0301e+00 2.1391e+00 2.8734e-02
2.0680e+00 2.1065e+00 5.5109e-02
1.7895e+00 1.7633e+00 6.9634e-02
1.1651e+00 1.0808e+00 7.0362e-02
2.4091e-01 1.0914e-01 5.7186e-02
-6.3891e-01 -7.9235e-01 3.6811e-02
-1.2343e+00 -1.3808e+00 1.5453e-02
-1.5863e+00 -1.7089e+00 -4.0094e-03
-1.7560e+00 -1.8464e+00 -2.0101e-02
1.9711e+00 1.5256e+00 -2.5110e-01
1.8509e+00 1.6727e+00 -3.2897e-01
1.4706e+00 1.5412e+00 -3.5016e-01
8.1243e-01 1.1135e+00 -3.0124e-01
-7.6057e-02 4.1965e-01 -1.8720e-01
-8.6998e-01 -2.7835e-01 -5.6312e-02
-1.3595e+00 -7.8487e-01 5.4047e-02
-1.6061e+00 -1.1176e+00 1.3812e-01
-1.6818e+00 -1.3121e+00 1.9612e-01
1.6906e+00 8.9884e-01 -7.5539e-01
1.5061e+00 1.1638e+00 -8.5111e-01
1.1193e+00 1.2077e+00 -8.1107e-01
5.2453e-01 1.0174e+00 -6.1584e-01
-2.3046e-01 6.1219e-01 -2.7513e-01
-8.7539e-01 1.4407e-01 7.2573e-02
-1.2457e+00 -2.4704e-01 3.2978e-01
-1.4038e+00 -5.4642e-01 5.0288e-01
-1.4205e+00 -7.6657e-01 6.0611e-01
1.2735e+00 4.2414e-01 -1.3278e+00
1.0893e+00 7.1326e-01 -1.3960e+00
7.7194e-01 8.5467e-01 -1.2492e+00
3.1735e-01 8.2087e-01 -8.6322e-01
-2.4582e-01 6.2299e-01 -2.6911e-01
-7.1573e-01 3.5239e-01 3.0495e-01
-9.7089e-01 8.7417e-02 7.0407e-01
-1.0617e+00 -1.4875e-01 9.5123e-01
-1.0402e+00 -3.4739e-01 1.0811e+00
9.2746e-01 -6.4623e-08 -9.1752e-01
1.7951e+00 -8.3456e-08 3.3966e-02
2.2922e+00 -1.1959e-07 8.1213e-01
2.3212e+00 -9.9908e-08 1.3991e+00
1.8905e+00 -1.0125e-07 1.7731e+00
1.2260e+00 -1.4158e-07 1.8272e+00
5.1707e-01 -2.0204e-07 1.5838e+00
-1.3568e-01 -2.3166e-07 1.1743e+00
-6.7943e-01 -2.4405e-07 6.7215e-01
7.3331e-01 8.5028e-01 -6.5786e-01
1.6877e+00 7.3765e-01 2.0582e-01
2.2279e+00 5.0763e-01 9.1526e-01
2.3303e+00 1.8416e-01 1.4285e+00
1.9830e+00 -1.9586e-01 1.7106e+00
1.3448e+00 -5.1970e-01 1.6916e+00
6.3837e-01 -6.9914e-01 1.4103e+00
-3.5965e-02 -7.6952e-01 1.0027e+00
-6.3835e-01 -7.8284e-01 5.6597e-01
7.4256e-01 1.6476e+00 -3.0159e-01
1.6411e+00 1.4134e+00 4.2876e-01
2.1374e+00 9.8387e-01 9.8416e-01
2.2106e+00 3.7326e-01 1.3368e+00
1.8484e+00 -3.7502e-01 1.4568e+00
1.2205e+00 -1.0064e+00 1.3386e+00
5.3577e-01 -1.3477e+00 1.0372e+00
-1.1357e-01 -1.4825e+00 6.5996e-01
-6.7555e-01 -1.4849e+00 2.7933e-01
9.2969e-01 2.1927e+00 9.2755e-02
1.6507e+00 1.8851e+00 6.0807e-01
1.9965e+00 1.3365e+00 9.5824e-01
1.9472e+00 5.3662e-01 1.1118e+00
1.5039e+00 -4.5492e-01 1.0602e+00
8.5441e-01 -1.2883e+00 8.4848e-01
2.0925e-01 -1.7468e+00 5.5151e-01
-3.6397e-01 -1.9245e+00 2.3920e-01
-8.3978e-01 -1.9190e+00 -4.6186e-02
1.1986e+00 2.3077e+00 3.6129e-01
1.6628e+00 2.0315e+00 6.4428e-01
1.7938e+00 1.4909e+00 7.9351e-01
1.5744e+00 6.7143e-01 7.8486e-01
1.0163e+00 -3.6959e-01 6.1661e-01
3.4333e-01 -1.2577e+00 3.7207e-01
-2.4065e-01 -1.7602e+00 1.2424e-01
-7.0782e-01 -1.9715e+00 -9.4922e-02
-1.0581e+00 -1.9861e+00 -2.7026e-01
1.3921e+00 1.9982e+00 3.5611e-01
1.5964e+00 1.8397e+00 4.5840e-01
1.5247e+00 1.4292e+00 4.8194e-01
1.1585e+00 7.4969e-01 4.0975e-01
5.2391e-01 -1.4979e-01 2.4836e-01
-1.3716e-01 -9.4149e-01 6.6041e-02
-6.3649e-01 -1.4179e+00 -8.5646e-02
-9.8137e-01 -1.6459e+00 -2.0000e-01
-1.1988e+00 -1.7010e+00 -2.7821e-01
1.3803e+00 1.4374e+00 5.3624e-02
1.3977e+00 1.4230e+00 5.9509e-02
1.1994e+00 1.1939e+00 5.6025e-02
7.7436e-01 7.4007e-01 4.1706e-02
1.5355e-01 9.4168e-02 1.7594e-02
-4.3368e-01 -5.0615e-01 -6.5796e-03
-8.2739e-01 -8.9886e-01 -2.4277e-02
-1.0586e+00 -1.1202e+00 -3.5953e-02
-1.1687e+00 -1.2159e+00 -4.2769e-02
1.1456e+00 8.5345e-01 -4.4335e-01
1.0732e+00 9.3879e-01 -4.6541e-01
8.4787e-01 8.6652e-01 -4.1560e-01
4.6472e-01 6.2951e-01 -2.8791e-01
-4.5236e-02 2.4774e-01 -8.8885e-02
-4.9877e-01 -1.3722e-01 1.0308e-01
-7.7721e-01 -4.1872e-01 2.3547e-01
-9.1578e-01 -6.0427e-01 3.1713e-01
-9.5662e-01 -7.1582e-01 3.5931e-01
7.6137e-01 3.9733e-01 -9.8919e-01
6.7757e-01 5.0722e-01 -1.0047e+00
5.0421e-01 5.2529e-01 -8.6741e-01
2.4110e-01 4.3836e-01 -5.6663e-01
-9.5589e-02 2.5748e-01 -1.2556e-01
-3.8560e-01 5.7690e-02 2.9002e-01
-5.5209e-01 -1.0718e-01 5.6910e-01
-6.2213e-01 -2.3357e-01 7.3256e-01
-6.2533e-01 -3.2664e-01 8.1050e-01
3.1164e-01 -1.3218e-07 -3.9036e-01
1.3734e+00 -1.0744e-07 5.2164e-01
2.0906e+00 -1.1127e-07 1.1803e+00
2.3693e+00 -1.8989e-07 1.5906e+00
2.2119e+00 -1.6308e-07 1.7263e+00
1.7325e+00 -1.6444e-07 1.5668e+00
1.0863e+00 -1.9349e-07 1.2036e+00
4.1388e-01 -1.9902e-07 7.4941e-01
-1.8648e-01 -1.8745e-07 2.3359e-01
1.1002e-01 7.5230e-01 -2.3674e-02
1.2299e+00 6.4783e-01 7.5907e-01
1.9750e+00 4.2964e-01 1.3179e+00
2.3221e+00 1.3426e-01 1.6078e+00
2.2557e+00 -2.0192e-01 1.6024e+00
1.8219e+00 -4.8584e-01 1.3404e+00
1.1992e+00 -6.3921e-01 9.3032e-01
5.3161e-01 -6.9204e-01 4.7354e-01
-1.1883e-01 -7.1125e-01 4.2946e-02
1.2674e-01 1.4498e+00 3.7435e-01