<?xml version="1.0"?>
<VTKFile type="StructuredGrid" version="0.1">
  <StructuredGrid WholeExtent="0 8 0 8 0 8">
    <Piece Extent="0 8 0 8 0 8">
      <PointData Scalars="temperature" Vectors="velocity">
        <DataArray type="Float32" Name="temperature" format="ascii">
1.000000e+00
8.682640e-01
7.434908e-01
6.191092e-01
4.945524e-01
3.699008e-01
2.451325e-01
1.206644e-01
0.000000e+00
1.000000e+00
8.680893e-01
7.431513e-01
6.184700e-01
4.936461e-01
3.693704e-01
2.449056e-01
1.205736e-01
0.000000e+00
1.000000e+00
8.676449e-01
7.422938e-01
6.168553e-01
4.913218e-01
3.680356e-01
2.443234e-01
1.203260e-01
0.000000e+00
1.000000e+00
8.669492e-01
7.409455e-01
6.143097e-01
4.876684e-01
3.659702e-01
2.434170e-01
1.199354e-01
0.000000e+00
1.000000e+00
8.660983e-01
7.392911e-01
6.111813e-01
4.832170e-01
3.634994e-01
2.423264e-01
1.194593e-01
0.000000e+00
1.000000e+00
8.652541e-01
7.376476e-01
6.080695e-01
4.788321e-01
3.611169e-01
2.412689e-01
1.189932e-01
0.000000e+00
1.000000e+00
8.645825e-01
7.363454e-01
6.056035e-01
4.753809e-01
3.592872e-01
2.404576e-01
1.186308e-01
0.000000e+00
1.000000e+00
8.641632e-01
7.355556e-01
6.041847e-01
4.733951e-01
3.582879e-01
2.400398e-01
1.184824e-01
0.000000e+00
1.000000e+00
8.627851e-01
7.342143e-01
6.026978e-01
4.719268e-01
3.570933e-01
2.388837e-01
1.173871e-01
0.000000e+00
1.000000e+00
8.684462e-01
7.438367e-01
6.197615e-01
4.954898e-01
3.704581e-01
2.453748e-01
1.207652e-01
0.000000e+00
1.000000e+00
8.682844e-01
7.435275e-01
6.191844e-01
4.946718e-01
3.699760e-01
2.451664e-01
1.206797e-01
0.000000e+00
1.000000e+00
8.678399e-01
7.426695e-01
6.175645e-01
4.922912e-01
3.686287e-01
2.445810e-01
1.204324e-01
0.000000e+00
1.000000e+00
8.671226e-01
7.412778e-01
6.149274e-01
4.884257e-01
3.664774e-01
2.436434e-01
1.200326e-01
0.000000e+00
1.000000e+00
8.662443e-01
7.395641e-01
6.116712e-01
4.837057e-01
3.638953e-01
2.425127e-01
1.195464e-01
0.000000e+00
1.000000e+00
8.653946e-01
7.378947e-01
6.084911e-01
4.791727e-01
3.614509e-01
2.414378e-01
1.190811e-01
0.000000e+00
1.000000e+00
8.647623e-01
7.366445e-01
6.061016e-01
4.758369e-01
3.596662e-01
2.406562e-01
1.187452e-01
0.000000e+00
1.000000e+00
8.643641e-01
7.359431e-01
6.048686e-01
4.741929e-01
3.587830e-01
2.402605e-01
1.185739e-01
0.000000e+00
1.000000e+00
8.643343e-01
7.358934e-01
6.048350e-01
4.743482e-01
3.587564e-01
2.402449e-01
1.185706e-01
0.000000e+00
1.000000e+00
8.688692e-01
7.446600e-01
6.213350e-01
4.978235e-01
3.718231e-01
2.459638e-01
1.210090e-01
0.000000e+00
1.000000e+00
8.687513e-01
7.444323e-01
6.209140e-01
4.972680e-01
3.714674e-01
2.458108e-01
1.209482e-01
0.000000e+00
1.000000e+00
8.683251e-01
7.436156e-01
6.193784e-01
4.949952e-01
3.701675e-01
2.452462e-01
1.207098e-01
0.000000e+00
1.000000e+00
8.675909e-01
7.422039e-01
6.167138e-01
4.910579e-01
3.679551e-01
2.442863e-01
1.203030e-01
0.000000e+00
1.000000e+00
8.666756e-01
7.404327e-01
6.133590e-01
4.861508e-01
3.652501e-01
2.431088e-01
1.198000e-01
0.000000e+00
1.000000e+00
8.658002e-01
7.387220e-01
6.101022e-01
4.814631e-01
3.627027e-01
2.419948e-01
1.193212e-01
0.000000e+00
1.000000e+00
8.651787e-01
7.374925e-01
6.077409e-01
4.781310e-01
3.608971e-01
2.412013e-01
1.189810e-01
0.000000e+00
1.000000e+00
8.649283e-01
7.369748e-01
6.067369e-01
4.767282e-01
3.601388e-01
2.408655e-01
1.188371e-01
0.000000e+00
1.000000e+00
8.649137e-01
7.369996e-01
6.068567e-01
4.771583e-01
3.602122e-01
2.408639e-01
1.188066e-01
0.000000e+00
1.000000e+00
8.695237e-01
7.459298e-01
6.237575e-01
5.014790e-01
3.739682e-01
2.468878e-01
1.213914e-01
0.000000e+00
1.000000e+00
8.694790e-01
7.458318e-01
6.235768e-01
5.013368e-01
3.738145e-01
2.468231e-01
1.213703e-01
0.000000e+00
1.000000e+00
8.691065e-01
7.451197e-01
6.222410e-01
4.993323e-01
3.726481e-01
2.463144e-01
1.211551e-01
0.000000e+00
1.000000e+00
8.683906e-01
7.437540e-01
6.196728e-01
4.954791e-01
3.704483e-01
2.453631e-01
1.207546e-01
0.000000e+00
1.000000e+00
8.674635e-01
7.419753e-01
6.163178e-01
4.904870e-01
3.676596e-01
2.441568e-01
1.202435e-01
0.000000e+00
1.000000e+00
8.665662e-01
7.402344e-01
6.130105e-01
4.856422e-01
3.649917e-01
2.429977e-01
1.197498e-01
0.000000e+00
1.000000e+00
8.659352e-01
7.389869e-01
6.106070e-01
4.821871e-01
3.630900e-01
2.421649e-01
1.193949e-01
0.000000e+00
1.000000e+00
8.656830e-01
7.384652e-01
6.095836e-01
4.807295e-01
3.622824e-01
2.418050e-01
1.192414e-01
0.000000e+00
1.000000e+00
8.656899e-01
7.385073e-01
6.097117e-01
4.811635e-01
3.623631e-01
2.418163e-01
1.192299e-01
0.000000e+00
1.000000e+00
8.703134e-01
7.474522e-01
6.266492e-01
5.059287e-01
3.765961e-01
2.480132e-01
1.218537e-01
0.000000e+00
1.000000e+00
8.703501e-01
7.474915e-01
6.267142e-01
5.062185e-01
3.766591e-01
2.480447e-01
1.218769e-01
0.000000e+00
1.000000e+00
8.700453e-01
7.469063e-01
6.256123e-01
5.045373e-01
3.756553e-01
2.476033e-01
1.216898e-01
0.000000e+00
1.000000e+00
8.693714e-01
7.456278e-01
6.232109e-01
5.008676e-01
3.735132e-01
2.466790e-01
1.213044e-01
0.000000e+00
1.000000e+00
8.684565e-01
7.438858e-01
6.199349e-01
4.958921e-01
3.706811e-01
2.454606e-01
1.207934e-01
0.000000e+00
1.000000e+00
8.675454e-01
7.421325e-01
6.166127e-01
4.909206e-01
3.678962e-01
2.442589e-01
1.202870e-01
0.000000e+00
1.000000e+00
8.668808e-01
7.408317e-01
6.141152e-01
4.872509e-01
3.658472e-01
2.433692e-01
1.199119e-01
0.000000e+00
1.000000e+00
8.665822e-01
7.402277e-01
6.129375e-01
4.855389e-01
3.648883e-01
2.429487e-01
1.197353e-01
0.000000e+00
1.000000e+00
8.665622e-01
7.402018e-01
6.129158e-01
4.856998e-01
3.648572e-01
2.429209e-01
1.197149e-01
0.000000e+00
1.000000e+00
8.710805e-01
7.489212e-01
6.294309e-01
5.103033e-01
3.791921e-01
2.491139e-01
1.222987e-01
0.000000e+00
1.000000e+00
8.711732e-01
7.490472e-01
6.296383e-01
5.108397e-01
3.793901e-01
2.492098e-01
1.223559e-01
0.000000e+00
1.000000e+00
8.709145e-01
7.485463e-01
6.286878e-01
5.093609e-01
3.784876e-01
2.488118e-01
1.221873e-01
0.000000e+00
1.000000e+00
8.702805e-01
7.473481e-01
6.264366e-01
5.058553e-01
3.764015e-01
2.479149e-01
1.218173e-01
0.000000e+00
1.000000e+00
8.693917e-01
7.456653e-01
6.232784e-01
5.009653e-01
3.735668e-01
2.467010e-01
1.213132e-01
0.000000e+00
1.000000e+00
8.684819e-01
7.439271e-01
6.199939e-01
4.959536e-01
3.707107e-01
2.454750e-01
1.208015e-01
0.000000e+00
1.000000e+00
8.677859e-01
7.425797e-01
6.174218e-01
4.920989e-01
3.685296e-01
2.445349e-01
1.204087e-01
0.000000e+00
1.000000e+00
8.674271e-01
7.418718e-01
6.160571e-01
4.900828e-01
3.673895e-01
2.440417e-01
1.202037e-01
0.000000e+00
1.000000e+00
8.673586e-01
7.417452e-01
6.158291e-01
4.898639e-01
3.671950e-01
2.439512e-01
1.201635e-01
0.000000e+00
1.000000e+00
8.716673e-01
7.500426e-01
6.315527e-01
5.137193e-01
3.812099e-01
2.499524e-01
1.226276e-01
0.000000e+00
1.000000e+00
8.717697e-01
7.501619e-01
6.317281e-01
5.141682e-01
3.813863e-01
2.500515e-01
1.226958e-01
0.000000e+00
1.000000e+00
8.715021e-01
7.496527e-01
6.307668e-01
5.126450e-01
3.804579e-01
2.496502e-01
1.225279e-01
0.000000e+00
1.000000e+00
8.708862e-01
7.484923e-01
6.285845e-01
5.091925e-01
3.783869e-01
2.487679e-01
1.221688e-01
0.000000e+00
1.000000e+00
8.700285e-01
7.468723e-01
6.255431e-01
5.044188e-01
3.755833e-01
2.475706e-01
1.216754e-01
0.000000e+00
1.000000e+00
8.691425e-01
7.451854e-01
6.223568e-01
4.994943e-01
3.727361e-01
2.463500e-01
1.211691e-01
0.000000e+00
1.000000e+00
8.684417e-01
7.438376e-01
6.197918e-01
4.956012e-01
3.705058e-01
2.453910e-01
1.207703e-01
0.000000e+00
1.000000e+00
8.680433e-01
7.430644e-01
6.183125e-01
4.933955e-01
3.692447e-01
2.448486e-01
1.205464e-01
0.000000e+00
1.000000e+00
8.679338e-01
7.428565e-01
6.179232e-01
4.928746e-01
3.689162e-01
2.447066e-01
1.204888e-01
0.000000e+00
1.000000e+00
8.719844e-01
7.506121e-01
6.326661e-01
5.156061e-01
3.822669e-01
2.503523e-01
1.227934e-01
0.000000e+00
1.000000e+00
8.719620e-01
7.505799e-01
6.325942e-01
5.155909e-01
3.822172e-01
2.503635e-01
1.228087e-01
0.000000e+00
1.000000e+00
8.717155e-01
7.500600e-01
6.315368e-01
5.138599e-01
3.811992e-01
2.499714e-01
1.226627e-01
0.000000e+00
1.000000e+00
8.710859e-01
7.488812e-01
6.293245e-01
5.103346e-01
3.790882e-01
2.490795e-01
1.223013e-01
0.000000e+00
1.000000e+00
8.702612e-01
7.473200e-01
6.263854e-01
5.056919e-01
3.763489e-01
2.479095e-01
1.218194e-01
0.000000e+00
1.000000e+00
8.694224e-01
7.457196e-01
6.233558e-01
5.009797e-01
3.736068e-01
2.467309e-01
1.213301e-01
0.000000e+00
1.000000e+00
8.687527e-01
7.444303e-01
6.209006e-01
4.972281e-01
3.714438e-01
2.457980e-01
1.209409e-01
0.000000e+00
1.000000e+00
8.683542e-01
7.436584e-01
6.194257e-01
4.950172e-01
3.701707e-01
2.452485e-01
1.207123e-01
0.000000e+00
1.000000e+00
8.682224e-01
7.434126e-01
6.189664e-01
4.943633e-01
3.697858e-01
2.450871e-01
1.206514e-01
0.000000e+00
1.000000e+00
8.708132e-01
7.495576e-01
6.317132e-01
5.146646e-01
3.810830e-01
2.491579e-01
1.216275e-01
0.000000e+00
1.000000e+00
8.719247e-01
7.505017e-01
6.324606e-01
5.152561e-01
3.820684e-01
2.502692e-01
1.227600e-01
0.000000e+00
1.000000e+00
8.715494e-01
7.498233e-01
6.311439e-01
5.130543e-01
3.808170e-01
2.497862e-01
1.225601e-01
0.000000e+00
1.000000e+00
8.709211e-01
7.486218e-01
6.288697e-01
5.094106e-01
3.786629e-01
2.488881e-01
1.222060e-01
0.000000e+00
1.000000e+00
8.701373e-01
7.471179e-01
6.260187e-01
5.049466e-01
3.760173e-01
2.477645e-01
1.217507e-01
0.000000e+00
1.000000e+00
8.693591e-01
7.456142e-01
6.231585e-01
5.005641e-01
3.734334e-01
2.466566e-01
1.212949e-01
0.000000e+00
1.000000e+00
8.687403e-01
7.444107e-01
6.208595e-01
4.971083e-01
3.714077e-01
2.457833e-01
1.209331e-01
0.000000e+00
1.000000e+00
8.683677e-01
7.436830e-01
6.194672e-01
4.950534e-01
3.702044e-01
2.452638e-01
1.207177e-01
0.000000e+00
1.000000e+00
8.682332e-01
7.434373e-01
6.190134e-01
4.944137e-01
3.698239e-01
2.451020e-01
1.206546e-01
0.000000e+00
        </DataArray>
        <DataArray type="Float32" Name="velocity" NumberOfComponents="3" format="ascii">
-3.710723e-01 3.702652e-01 -7.339917e-03
-3.525446e-01 3.722283e-01 -7.906553e-03
-2.731610e-01 3.069063e-01 -7.242805e-03
-1.534882e-01 1.900984e-01 -5.220118e-03
-1.535910e-02 4.719638e-02 -2.126538e-03
1.117064e-01 -8.915289e-02 1.294960e-03
2.073241e-01 -1.944374e-01 4.198552e-03
2.660138e-01 -2.616668e-01 6.141870e-03
2.927133e-01 -2.920180e-01 6.984482e-03
-1.016158e+00 1.361793e+00 1.066746e+00
-1.075251e+00 1.256314e+00 1.052731e+00
-9.341438e-01 9.386235e-01 8.519434e-01
-6.363780e-01 4.789061e-01 5.145569e-01
-2.494320e-01 -3.676280e-02 1.101051e-01
1.359196e-01 -4.994039e-01 -2.715016e-01
4.510841e-01 -8.325153e-01 -5.646238e-01
6.725699e-01 -1.019168e+00 -7.509525e-01
8.012899e-01 -1.072779e+00 -8.350672e-01
-1.333903e+00 2.508219e+00 2.003985e+00
-1.642398e+00 2.187041e+00 2.031395e+00
-1.616285e+00 1.521417e+00 1.696854e+00
-1.295047e+00 6.414480e-01 1.083380e+00
-7.757865e-01 -3.006897e-01 3.218564e-01
-1.969668e-01 -1.111405e+00 -4.115084e-01
3.301574e-01 -1.662887e+00 -9.889054e-01
7.493843e-01 -1.937327e+00 -1.368285e+00
1.048747e+00 -1.965007e+00 -1.554939e+00
-1.244919e+00 3.539787e+00 2.559241e+00
-1.987747e+00 2.958852e+00 2.740342e+00
-2.271874e+00 1.943475e+00 2.420100e+00
-2.108511e+00 6.696408e-01 1.685945e+00
-1.602594e+00 -6.501707e-01 7.098904e-01
-9.186371e-01 -1.752165e+00 -2.715248e-01
-2.066771e-01 -2.467898e+00 -1.077884e+00
4.404140e-01 -2.784543e+00 -1.643909e+00
9.765597e-01 -2.749026e+00 -1.959146e+00
-8.312549e-01 4.116028e+00 2.562199e+00
-2.132478e+00 3.332592e+00 3.035245e+00
-2.865057e+00 2.095715e+00 2.924603e+00
-2.992445e+00 5.946221e-01 2.284933e+00
-2.614874e+00 -9.289827e-01 1.298607e+00
-1.903919e+00 -2.170896e+00 2.287150e-01
-1.036479e+00 -2.951278e+00 -7.201666e-01
-1.568476e-01 -3.261094e+00 -1.446479e+00
6.561642e-01 -3.150231e+00 -1.915242e+00
-3.302239e-01 3.978170e+00 2.020158e+00
-2.189961e+00 3.148690e+00 2.898350e+00
-3.374446e+00 1.924716e+00 3.162596e+00
-3.814769e+00 4.648822e-01 2.816583e+00
-3.593665e+00 -9.941749e-01 2.021059e+00
-2.884442e+00 -2.167702e+00 1.021357e+00
-1.890524e+00 -2.884822e+00 3.368737e-02
-7.942204e-01 -3.147244e+00 -8.184646e-01
2.817935e-01 -2.988198e+00 -1.453341e+00
-1.647787e-02 3.117381e+00 1.142684e+00
-2.295099e+00 2.410976e+00 2.439142e+00
-3.804593e+00 1.450213e+00 3.152022e+00
-4.450885e+00 3.188428e-01 3.210334e+00
-4.317193e+00 -8.072907e-01 2.729601e+00
-3.581592e+00 -1.702916e+00 1.914661e+00
-2.473957e+00 -2.248488e+00 9.648830e-01
-1.212974e+00 -2.427062e+00 4.639117e-02
6.781915e-02 -2.247694e+00 -7.328508e-01
-6.378168e-02 1.702485e+00 1.855224e-01
-2.560129e+00 1.273995e+00 1.854751e+00
-4.173999e+00 7.685309e-01 2.974931e+00
-4.849961e+00 1.608856e-01 3.427956e+00
-4.677637e+00 -4.362981e-01 3.290108e+00
-3.853332e+00 -9.103470e-01 2.700946e+00
-2.631839e+00 -1.201950e+00 1.837600e+00
-1.261709e+00 -1.313740e+00 8.765192e-01
1.275156e-01 -1.155162e+00 -5.541150e-03
-5.032365e-01 3.524951e-08 -6.423437e-01
-3.003400e+00 -5.211200e-08 1.340716e+00
-4.465150e+00 1.980003e-07 2.697216e+00
-4.969815e+00 8.623508e-08 3.437724e+00
-4.613413e+00 1.477664e-07 3.566443e+00
-3.642325e+00 2.008813e-07 3.184615e+00
-2.329861e+00 7.679292e-08 2.443936e+00
-8.902877e-01 8.391920e-08 1.498285e+00
4.303808e-01 3.021770e-08 5.493489e-01
-1.301331e+00 9.461483e-01 -1.148118e+00
-1.175178e+00 1.031480e+00 -1.133295e+00
-8.590574e-01 9.225854e-01 -9.212287e-01
-4.187637e-01 6.529218e-01 -5.607321e-01
6.797174e-02 2.871610e-01 -1.244708e-01
5.015055e-01 -8.500656e-02 2.901993e-01
8.111597e-01 -3.948433e-01 6.109112e-01
9.825767e-01 -6.164210e-01 8.161331e-01
1.030841e+00 -7.490514e-01 9.125285e-01
-2.036921e+00 1.993711e+00 -6.671079e-02
-1.967057e+00 1.968962e+00 -6.884832e-02
-1.555173e+00 1.592825e+00 -6.179680e-02
-8.992684e-01 9.590599e-01 -4.370194e-02
-1.281397e-01 1.974046e-01 -1.752413e-02
5.912783e-01 -5.224223e-01 1.027360e-02
1.137541e+00 -1.076112e+00 3.367124e-02
1.477577e+00 -1.427549e+00 5.038407e-02
1.626052e+00 -1.589332e+00 6.137962e-02
-2.433741e+00 3.228655e+00 8.581517e-01
-2.596900e+00 2.962815e+00 9.142369e-01
-2.267888e+00 2.202153e+00 8.022109e-01
-1.556096e+00 1.105619e+00 5.554008e-01
-6.208622e-01 -1.209692e-01 2.293563e-01
3.197206e-01 -1.216700e+00 -9.693806e-02
1.095420e+00 -2.003944e+00 -3.627069e-01
1.643548e+00 -2.446902e+00 -5.479195e-01
1.963371e+00 -2.584316e+00 -6.470485e-01
-2.388609e+00 4.331680e+00 1.349358e+00
-2.982756e+00 3.773414e+00 1.608165e+00
-2.940680e+00 2.616406e+00 1.555009e+00
-2.365331e+00 1.081405e+00 1.224892e+00
-1.424628e+00 -5.586344e-01 7.067024e-01
-3.609578e-01 -1.965382e+00 1.393319e-01
6.149985e-01 -2.922659e+00 -3.645743e-01
1.398453e+00 -3.405005e+00 -7.519523e-01
1.961879e+00 -3.482673e+00 -1.000211e+00
-1.985889e+00 4.881196e+00 1.228822e+00
-3.138631e+00 4.114505e+00 1.865776e+00
-3.525308e+00 2.709108e+00 2.089719e+00
-3.232400e+00 9.294912e-01 1.915236e+00
-2.414253e+00 -9.163402e-01 1.428742e+00
-1.317677e+00 -2.457257e+00 7.863475e-01
-1.836139e-01 -3.465947e+00 1.356434e-01
8.382796e-01 -3.932927e+00 -4.398176e-01
1.678847e+00 -3.958078e+00 -8.805367e-01
-1.492994e+00 4.579736e+00 5.661433e-01
-3.179501e+00 3.799023e+00 1.688118e+00
-3.998059e+00 2.420164e+00 2.354942e+00
-4.006477e+00 7.188766e-01 2.533688e+00
-3.345452e+00 -1.015843e+00 2.278294e+00
-2.255775e+00 -2.440973e+00 1.723037e+00
-1.002973e+00 -3.355684e+00 1.022869e+00
2.206272e-01 -3.758513e+00 3.035632e-01
1.313300e+00 -3.768113e+00 -3.428651e-01
-1.216863e+00 3.436543e+00 -3.639468e-01
-3.256991e+00 2.852013e+00 1.234673e+00
-4.360333e+00 1.789180e+00 2.373741e+00
-4.558074e+00 4.934813e-01 2.978420e+00
-3.981349e+00 -8.153156e-01 3.051432e+00
-2.878197e+00 -1.886973e+00 2.680367e+00
-1.532079e+00 -2.572027e+00 2.013938e+00
-1.655023e-01 -2.881225e+00 1.200404e+00
1.082076e+00 -2.916201e+00 3.716737e-01
-1.296463e+00 1.751043e+00 -1.205308e+00
-3.467652e+00 1.494227e+00 7.113557e-01
-4.629484e+00 9.315656e-01 2.222718e+00
-4.829236e+00 2.545255e-01 3.184990e+00
-4.210296e+00 -4.230120e-01 3.563730e+00
-3.037779e+00 -9.790846e-01 3.394138e+00
-1.614993e+00 -1.345288e+00 2.807031e+00
-1.762569e-01 -1.521585e+00 1.972555e+00
1.154237e+00 -1.609666e+00 1.065392e+00
-1.813208e+00 -1.818384e-08 -1.862825e+00
-3.760741e+00 1.258780e-07 2.864513e-01
-4.786350e+00 -1.854483e-08 1.979086e+00
-4.806788e+00 1.867577e-07 3.144239e+00
-4.025257e+00 3.473502e-08 3.722353e+00
-2.747534e+00 4.795110e-08 3.715657e+00
-1.277640e+00 4.912265e-09 3.223545e+00
1.503719e-01 -7.659770e-08 2.421099e+00
1.318142e+00 8.033405e-08 1.354212e+00
-2.372024e+00 1.187666e+00 -2.158562e+00
-2.036230e+00 1.530390e+00 -2.182708e+00
-1.394507e+00 1.556674e+00 -1.823389e+00
-5.638318e-01 1.290958e+00 -1.164428e+00
3.207098e-01 8.218867e-01 -3.420582e-01
1.081151e+00 2.801844e-01 4.547938e-01
1.596541e+00 -2.245268e-01 1.084072e+00
1.849563e+00 -6.353258e-01 1.498464e+00
1.870309e+00 -9.357559e-01 1.705032e+00
-3.212654e+00 2.264337e+00 -1.034222e+00
-2.893955e+00 2.506545e+00 -1.104668e+00
-2.107138e+00 2.259057e+00 -9.786800e-01
-1.008927e+00 1.620391e+00 -6.862089e-01
2.046188e-01 7.410536e-01 -2.900472e-01
1.281031e+00 -1.665647e-01 1.129582e-01
2.046514e+00 -9.319716e-01 4.449552e-01
2.466717e+00 -1.487420e+00 6.782147e-01
2.579307e+00 -1.826341e+00 8.076505e-01
-3.727305e+00 3.584389e+00 -8.251224e-02
-3.588662e+00 3.554249e+00 -1.052590e-01
-2.831196e+00 2.888317e+00 -1.098303e-01
-1.622173e+00 1.748536e+00 -9.353929e-02
-1.958879e-01 3.665791e-01 -5.980195e-02
1.136108e+00 -9.472545e-01 -1.885917e-02
2.145564e+00 -1.962729e+00 1.949623e-02
2.772851e+00 -2.614839e+00 5.049720e-02
3.037938e+00 -2.918359e+00 7.282818e-02
-3.781725e+00 4.795115e+00 3.910291e-01
-4.024560e+00 4.402965e+00 5.930958e-01
-3.501795e+00 3.285826e+00 6.636795e-01
-2.378907e+00 1.655763e+00 6.084343e-01
-9.042846e-01 -1.830386e-01 4.564207e-01
5.763715e-01 -1.834164e+00 2.555776e-01
1.795278e+00 -3.027614e+00 4.936445e-02
2.652023e+00 -3.709591e+00 -1.303759e-01
3.135555e+00 -3.926610e+00 -2.637650e-01
-3.433848e+00 5.395348e+00 2.072612e-01
-4.196686e+00 4.722303e+00 8.389437e-01
-4.060505e+00 3.307619e+00 1.228523e+00
-3.182351e+00 1.397281e+00 1.362887e+00
-1.805123e+00 -6.664822e-01 1.264522e+00
-2.811927e-01 -2.454809e+00 9.968432e-01
1.091110e+00 -3.686498e+00 6.363376e-01
2.174064e+00 -4.332399e+00 2.571232e-01
2.911584e+00 -4.463000e+00 -8.272310e-02
-2.958778e+00 5.030531e+00 -5.175846e-01
-4.213638e+00 4.295855e+00 6.569224e-01
-4.474483e+00 2.893092e+00 1.531147e+00
-3.878009e+00 1.066136e+00 2.049370e+00
-2.653065e+00 -8.618121e-01 2.202657e+00
-1.146380e+00 -2.497417e+00 2.027280e+00
3.270908e-01 -3.599585e+00 1.609409e+00
1.588278e+00 -4.151498e+00 1.066221e+00
2.549161e+00 -4.231258e+00 5.015791e-01
-2.657304e+00 3.725504e+00 -1.413711e+00
-4.225074e+00 3.174601e+00 2.421027e-01
-4.742531e+00 2.100717e+00 1.588849e+00
-4.331090e+00 7.190697e-01 2.531125e+00
-3.208745e+00 -7.188184e-01 3.004281e+00
-1.718848e+00 -1.930539e+00 3.003149e+00
-1.861270e-01 -2.739482e+00 2.606172e+00
1.193403e+00 -3.155102e+00 1.961956e+00
2.293877e+00 -3.233965e+00 1.214640e+00
-2.693699e+00 1.899620e+00 -2.116756e+00
-4.317544e+00 1.637418e+00 -1.940595e-01
-4.877553e+00 1.072855e+00 1.479780e+00
-4.488476e+00 3.590653e-01 2.731308e+00
-3.364773e+00 -3.736942e-01 3.461755e+00
-1.856465e+00 -9.893410e-01 3.624174e+00
-3.012270e-01 -1.405268e+00 3.285607e+00
1.101328e+00 -1.617478e+00 2.606266e+00
2.256833e+00 -1.684829e+00 1.760169e+00
-3.101906e+00 3.320555e-07 -2.517834e+00
-4.480308e+00 8.766135e-08 -4.749151e-01
-4.908269e+00 1.790605e-07 1.299226e+00
-4.377753e+00 -1.282179e-07 2.651593e+00
-3.138767e+00 -6.446087e-08 3.492739e+00
-1.578141e+00 -8.043925e-08 3.755541e+00
-2.434248e-02 -5.752923e-08 3.488479e+00
1.305089e+00 -1.558150e-08 2.823762e+00
2.298456e+00 -1.721719e-07 1.865670e+00
-3.310658e+00 1.016538e+00 -2.797828e+00
-2.730932e+00 1.802787e+00 -2.966738e+00
-1.771151e+00 2.162158e+00 -2.601458e+00
-5.845645e-01 2.085372e+00 -1.794105e+00
6.441359e-01 1.661976e+00 -7.231861e-01
1.673821e+00 1.042312e+00 3.553476e-01
2.341952e+00 3.702952e-01 1.239857e+00
2.632190e+00 -2.588639e-01 1.854735e+00
2.590034e+00 -7.935762e-01 2.194159e+00
-4.210190e+00 2.079669e+00 -1.566164e+00
-3.610810e+00 2.790724e+00 -1.846801e+00
-2.457994e+00 2.882471e+00 -1.778388e+00
-9.619554e-01 2.438085e+00 -1.392912e+00
6.271767e-01 1.606073e+00 -7.875992e-01
1.988241e+00 6.128721e-01 -1.229855e-01
2.907310e+00 -3.339443e-01 4.653029e-01
3.356210e+00 -1.121310e+00 9.139811e-01
3.402405e+00 -1.711637e+00 1.198779e+00
-4.831749e+00 3.457683e+00 -5.239883e-01
-4.333129e+00 3.872155e+00 -8.081114e-01
-3.148476e+00 3.517097e+00 -9.167434e-01
-1.487389e+00 2.541915e+00 -8.487090e-01
3.563948e-01 1.178119e+00 -6.391424e-01
1.995265e+00 -2.426251e-01 -3.566076e-01
3.161201e+00 -1.451263e+00 -6.628557e-02
3.801956e+00 -2.336046e+00 1.869324e-01
3.969452e+00 -2.874784e+00 3.784295e-01
-5.005153e+00 4.779618e+00 -3.772052e-03
-4.798784e+00 4.755851e+00 -8.152135e-02
-3.773287e+00 3.884147e+00 -1.340937e-01
-2.136416e+00 2.362831e+00 -1.561024e-01
-2.017257e-01 5.001664e-01 -1.489293e-01
1.605196e+00 -1.281425e+00 -1.205929e-01
2.974606e+00 -2.668226e+00 -8.115924e-02
3.820133e+00 -3.563144e+00 -3.865472e-02
4.168382e+00 -3.981841e+00 1.751780e-03
-4.753069e+00 5.487968e+00 -1.932634e-01
-4.978398e+00 5.077799e+00 1.788392e-01
-4.270179e+00 3.828034e+00 4.560359e-01
-2.825568e+00 1.969714e+00 6.280920e-01
-9.575512e-01 -1.528132e-01 6.895355e-01
8.976801e-01 -2.077904e+00 6.467595e-01
2.405790e+00 -3.486101e+00 5.258788e-01
3.441995e+00 -4.307323e+00 3.603766e-01
4.000629e+00 -4.589705e+00 1.847718e-01
-4.306339e+00 5.159967e+00 -9.264136e-01
-4.961811e+00 4.596224e+00 1.793795e-02
-4.603749e+00 3.293131e+00 7.968708e-01
-3.413461e+00 1.481605e+00 1.362402e+00
-1.693462e+00 -5.106995e-01 1.677484e+00
1.302809e-01 -2.263951e+00 1.722543e+00
1.711288e+00 -3.502765e+00 1.535257e+00
2.895472e+00 -4.183417e+00 1.195529e+00
3.643903e+00 -4.369188e+00 7.824284e-01
-3.960684e+00 3.832381e+00 -1.773826e+00
-4.888085e+00 3.374231e+00 -3.432744e-01
-4.771321e+00 2.354869e+00 9.052316e-01
-3.774338e+00 9.792813e-01 1.881729e+00
-2.184543e+00 -5.039179e-01 2.499869e+00
-4.167062e-01 -1.790089e+00 2.700191e+00
1.184887e+00 -2.684082e+00 2.516964e+00
2.448544e+00 -3.168167e+00 2.061408e+00
3.309950e+00 -3.300568e+00 1.453319e+00
-3.866647e+00 1.939747e+00 -2.344958e+00
-4.853403e+00 1.725224e+00 -6.762381e-01
-4.799361e+00 1.188667e+00 8.570107e-01
-3.866885e+00 4.793057e-01 2.097172e+00
-2.331658e+00 -2.712198e-01 2.926740e+00
-6.016212e-01 -9.184425e-01 3.252940e+00
9.788816e-01 -1.369031e+00 3.102292e+00
2.240089e+00 -1.613511e+00 2.598483e+00
3.143095e+00 -1.709963e+00 1.888226e+00
-4.044283e+00 8.814413e-08 -2.520205e+00
-4.867538e+00 3.089415e-07 -8.206011e-01
-4.735587e+00 2.201182e-08 7.479857e-01
-3.736267e+00 7.005091e-08 2.023914e+00
-2.163747e+00 -2.517740e-07 2.895976e+00
-4.377586e-01 -1.307857e-07 3.275307e+00
1.102335e+00 -1.455003e-07 3.166330e+00
2.301509e+00 -3.226191e-07 2.680758e+00
3.083731e+00 -1.721805e-07 1.921634e+00
-3.782053e+00 5.202500e-01 -2.897373e+00
-3.023718e+00 1.873284e+00 -3.337299e+00
-1.881742e+00 2.704117e+00 -3.151374e+00
-5.114943e-01 2.951069e+00 -2.403828e+00
8.839000e-01 2.692390e+00 -1.286016e+00
2.030752e+00 2.076178e+00 -8.481499e-02
2.751707e+00 1.268420e+00 9.649259e-01
3.031300e+00 4.142815e-01 1.751294e+00
2.917178e+00 -3.970500e-01 2.245348e+00
-4.610301e+00 1.543703e+00 -1.495707e+00
-3.835039e+00 2.846904e+00 -2.150327e+00
-2.485340e+00 3.416464e+00 -2.348005e+00
-8.042168e-01 3.311786e+00 -2.102793e+00
9.382131e-01 2.657070e+00 -1.511296e+00
2.398595e+00 1.670538e+00 -7.537250e-01
3.350009e+00 5.852339e-01 -3.858270e-03
3.774505e+00 -4.383091e-01 6.416295e-01
3.766587e+00 -1.316917e+00 1.121171e+00
-5.243008e+00 2.939952e+00 -3.174593e-01
-4.502147e+00 3.930515e+00 -1.055167e+00
-3.081741e+00 4.032663e+00 -1.501569e+00
-1.214066e+00 3.378498e+00 -1.637323e+00
7.871426e-01 2.178244e+00 -1.490544e+00
2.516216e+00 7.561300e-01 -1.144303e+00
3.693318e+00 -5.904610e-01 -6.962536e-01
4.285675e+00 -1.705681e+00 -2.350229e-01
4.365867e+00 -2.516366e+00 1.739006e-01
-5.490953e+00 4.350098e+00 2.996172e-01
-4.941703e+00 4.826469e+00 -2.878030e-01
-3.608102e+00 4.352603e+00 -7.256167e-01
-1.719452e+00 3.105727e+00 -9.914594e-01
3.942850e-01 1.375444e+00 -1.079199e+00
2.286004e+00 -4.185953e-01 -1.005461e+00
3.642140e+00 -1.935477e+00 -8.135998e-01
4.398330e+00 -3.031063e+00 -5.550940e-01
4.610473e+00 -3.681254e+00 -2.792366e-01
-5.333484e+00 5.180053e+00 1.526394e-01
-5.108059e+00 5.160172e+00 -8.100726e-04
-4.008839e+00 4.219873e+00 -1.257610e-01
-2.256292e+00 2.570690e+00 -2.141844e-01
-1.842762e-01 5.431995e-01 -2.616782e-01
1.751695e+00 -1.402436e+00 -2.686489e-01
3.216001e+00 -2.918286e+00 -2.414858e-01
4.120591e+00 -3.900328e+00 -1.911656e-01
4.490902e+00 -4.360545e+00 -1.277285e-01
-4.950511e+00 4.976986e+00 -5.639556e-01
-5.063726e+00 4.674071e+00 -1.353091e-01
-4.249480e+00 3.583590e+00 2.427817e-01
-2.713410e+00 1.915166e+00 5.448175e-01
-7.767181e-01 -1.604246e-02 7.443706e-01
1.113641e+00 -1.787654e+00 8.179356e-01
2.619987e+00 -3.103914e+00 7.709221e-01
3.628122e+00 -3.891116e+00 6.387504e-01
4.138965e+00 -4.189872e+00 4.582367e-01
-4.577087e+00 3.735859e+00 -1.382640e+00
-4.928062e+00 3.427957e+00 -4.531209e-01
-4.334829e+00 2.536301e+00 3.965243e-01
-2.989674e+00 1.246220e+00 1.102586e+00
-1.198696e+00 -2.002035e-01 1.593001e+00
6.103023e-01 -1.498454e+00 1.808106e+00
2.105493e+00 -2.437003e+00 1.751262e+00
3.164060e+00 -2.983994e+00 1.490272e+00
3.764355e+00 -3.178110e+00 1.107649e+00
-4.360008e+00 1.905385e+00 -1.894326e+00
-4.792903e+00 1.746507e+00 -7.157818e-01
-4.294279e+00 1.269898e+00 4.070443e-01
-3.052465e+00 6.008066e-01 1.358844e+00
-1.359732e+00 -1.339501e-01 2.037762e+00
3.730645e-01 -7.862347e-01 2.356961e+00
1.823767e+00 -1.257071e+00 2.316587e+00
2.872054e+00 -1.526849e+00 1.999554e+00
3.504894e+00 -1.638346e+00 1.509164e+00
-4.330292e+00 4.043331e-07 -1.978496e+00
-4.683598e+00 1.231881e-07 -7.882541e-01
-4.175757e+00 1.754217e-07 3.598129e-01
-2.942919e+00 -1.104317e-07 1.326050e+00
-1.280384e+00 -8.605750e-08 2.024369e+00
4.019030e-01 -2.457707e-07 2.370332e+00
1.800167e+00 -3.528082e-07 2.353442e+00
2.788571e+00 -2.889837e-07 2.048620e+00
3.347917e+00 -4.846922e-07 1.529652e+00
-3.541288e+00 -5.403284e-02 -2.455956e+00
-2.766038e+00 1.861350e+00 -3.267567e+00
-1.675749e+00 3.161949e+00 -3.415296e+00
-3.880023e-01 3.752490e+00 -2.921458e+00
9.066228e-01 3.687091e+00 -1.959336e+00
1.959101e+00 3.104730e+00 -8.028203e-01
2.603465e+00 2.189317e+00 3.014620e-01
2.830983e+00 1.125881e+00 1.216584e+00
2.672023e+00 4.977149e-02 1.871797e+00
-4.142743e+00 9.477965e-01 -8.986398e-01
-3.398923e+00 2.802589e+00 -2.015708e+00
-2.135676e+00 3.837915e+00 -2.629144e+00
-5.980881e-01 4.079772e+00 -2.711594e+00
9.743563e-01 3.630173e+00 -2.331767e+00
2.276177e+00 2.688219e+00 -1.649389e+00
3.108981e+00 1.503042e+00 -8.438256e-01
3.461135e+00 2.799726e-01 -5.076692e-02
3.441801e+00 -8.602956e-01 6.325876e-01
-4.648079e+00 2.344296e+00 3.938330e-01
-3.909814e+00 3.857690e+00 -8.844095e-01
-2.583616e+00 4.403743e+00 -1.809846e+00
-8.892585e-01 4.086713e+00 -2.324702e+00
8.945144e-01 3.091106e+00 -2.429403e+00
2.412083e+00 1.721918e+00 -2.178273e+00
3.426588e+00 2.888521e-01 -1.674057e+00
3.914026e+00 -1.007748e+00 -1.046619e+00
3.951843e+00 -2.055813e+00 -4.086324e-01
-4.873208e+00 3.785870e+00 1.080416e+00
-4.252569e+00 4.731620e+00 -9.928156e-02
-2.969422e+00 4.660432e+00 -1.058152e+00
-1.241093e+00 3.724825e+00 -1.737258e+00
6.393421e-01 2.190108e+00 -2.099710e+00
2.285960e+00 4.540986e-01 -2.131347e+00
3.433690e+00 -1.129616e+00 -1.880914e+00
4.038732e+00 -2.379945e+00 -1.445572e+00
4.166876e+00 -3.235037e+00 -9.219810e-01
-4.790109e+00 4.702476e+00 9.729751e-01
-4.377150e+00 5.060779e+00 1.989774e-01
-3.248641e+00 4.454742e+00 -4.697194e-01
-1.610436e+00 3.071549e+00 -9.895508e-01
2.432029e-01 1.215383e+00 -1.322727e+00
1.918290e+00 -6.707871e-01 -1.438949e+00
3.137426e+00 -2.231586e+00 -1.351280e+00
3.836379e+00 -3.328242e+00 -1.116820e+00
4.062432e+00 -3.943247e+00 -7.968574e-01
-4.499397e+00 4.623270e+00 2.720910e-01
-4.321784e+00 4.590638e+00 7.687360e-02
-3.399226e+00 3.746061e+00 -9.413949e-02
-1.923623e+00 2.277296e+00 -2.292768e-01
-1.803304e-01 4.790282e-01 -3.196914e-01
1.447172e+00 -1.241904e+00 -3.578473e-01
2.680620e+00 -2.581650e+00 -3.458612e-01
3.443077e+00 -3.445322e+00 -2.957024e-01
3.759408e+00 -3.847225e+00 -2.205825e-01
-4.173905e+00 3.528820e+00 -5.467300e-01
-4.173811e+00 3.372633e+00 -2.235742e-01
-3.427684e+00 2.632036e+00 8.632242e-02
-2.113156e+00 1.468321e+00 3.565522e-01
-5.005333e-01 1.058692e-01 5.560010e-01
1.043858e+00 -1.157177e+00 6.553673e-01
2.251734e+00 -2.107460e+00 6.513122e-01
3.037879e+00 -2.691963e+00 5.674090e-01
3.411474e+00 -2.935728e+00 4.332759e-01
-3.925307e+00 1.819593e+00 -1.073170e+00
-4.007997e+00 1.720022e+00 -4.632083e-01
-3.361400e+00 1.313311e+00 1.366674e-01
-2.156571e+00 7.012378e-01 6.601091e-01
-6.497204e-01 2.837611e-03 1.049183e+00
8.117581e-01 -6.357386e-01 1.249084e+00
1.970516e+00 -1.110598e+00 1.253562e+00
2.742072e+00 -1.397306e+00 1.103491e+00
3.138096e+00 -1.521914e+00 8.497526e-01
-3.780761e+00 -7.443722e-08 -1.169025e+00
-3.853024e+00 1.759697e-07 -5.199314e-01
-3.236476e+00 4.567246e-09 1.277155e-01
-2.082169e+00 6.286151e-08 6.879552e-01
-6.389999e-01 -1.526469e-07 1.105813e+00
7.586581e-01 -2.651568e-07 1.329741e+00
1.862636e+00 -2.972050e-07 1.346546e+00
2.595128e+00 -4.492940e-07 1.192960e+00
2.959430e+00 -3.941045e-07 9.150664e-01
-2.603208e+00 -4.216369e-01 -1.670724e+00
-1.976558e+00 1.903143e+00 -2.855637e+00
-1.178427e+00 3.533914e+00 -3.402943e+00
-2.466065e-01 4.350234e+00 -3.269521e+00
6.887955e-01 4.403068e+00 -2.592079e+00
1.438701e+00 3.826022e+00 -1.608040e+00
1.889692e+00 2.817934e+00 -5.450456e-01
2.025514e+00 1.597108e+00 4.310604e-01
1.853134e+00 3.182652e-01 1.221738e+00
-2.863016e+00 6.134103e-01 -4.566815e-02
-2.360392e+00 2.811911e+00 -1.596946e+00