<?xml version="1.0"?>
<VTKFile type="StructuredGrid" version="0.1">
  <StructuredGrid WholeExtent="0 32 0 180 0 0">
    <Piece Extent="0 32 0 180 0 0">
      <PointData Scalars="temperature" Vectors="velocity">
        <DataArray type="Float32" Name="density" NumberOfComponents="2" format="ascii">
1.0132e+00
1.0557e+00
1.0132e+00
1.0557e+00
1.0349e+00
1.0712e+00
1.0560e+00
1.0957e+00
1.0696e+00
1.1391e+00
1.1362e+00
1.1724e+00
1.1834e+00
1.1954e+00
1.1984e+00
1.2131e+00
1.2247e+00
1.2502e+00
1.3241e+00
1.3730e+00
1.3418e+00
1.3898e+00
1.3823e+00
1.4159e+00
1.4001e+00
1.4369e+00
1.4192e+00
1.4555e+00
1.4381e+00
1.4735e+00
1.4576e+00
1.4927e+00
1.4750e+00
1.5144e+00
1.4934e+00
1.5333e+00
1.5111e+00
1.5513e+00
1.5284e+00
1.5687e+00
1.5437e+00
1.5842e+00
1.5600e+00
1.6008e+00
1.5755e+00
1.6155e+00
1.6084e+00
1.6365e+00
1.6230e+00
1.6508e+00
1.6359e+00
1.6681e+00
1.6486e+00
1.6804e+00
1.6611e+00
1.6926e+00
1.6720e+00
1.7032e+00
1.6828e+00
1.7137e+00
1.6920e+00
1.7228e+00
1.7025e+00
1.7330e+00
1.7115e+00
1.7418e+00
1.0127e+00
1.0552e+00
1.0127e+00
1.0552e+00
1.0344e+00
1.0708e+00
1.0556e+00
1.0953e+00
1.0691e+00
1.1387e+00
1.1358e+00
1.1720e+00
1.1831e+00
1.1950e+00
1.1980e+00
1.2128e+00
1.2244e+00
1.2499e+00
1.3237e+00
1.3725e+00
1.3414e+00
1.3894e+00
1.3819e+00
1.4155e+00
1.3997e+00
1.4365e+00
1.4188e+00
1.4551e+00
1.4377e+00
1.4732e+00
1.4573e+00
1.4923e+00
1.4745e+00
1.5141e+00
1.4930e+00
1.5330e+00
1.5108e+00
1.5510e+00
1.5281e+00
1.5684e+00
1.5434e+00
1.5839e+00
1.5597e+00
1.6005e+00
1.5743e+00
1.6152e+00
1.6080e+00
1.6362e+00
1.6227e+00
1.6505e+00
1.6356e+00
1.6678e+00
1.6483e+00
1.6802e+00
1.6608e+00
1.6923e+00
1.6717e+00
1.7030e+00
1.6825e+00
1.7135e+00
1.6918e+00
1.7225e+00
1.7022e+00
1.7327e+00
1.7113e+00
1.7416e+00
1.0122e+00
1.0547e+00
1.0122e+00
1.0547e+00
1.0339e+00
1.0703e+00
1.0551e+00
1.0948e+00
1.0687e+00
1.1382e+00
1.1353e+00
1.1716e+00
1.1827e+00
1.1947e+00
1.1977e+00
1.2125e+00
1.2241e+00
1.2495e+00
1.3233e+00
1.3721e+00
1.3410e+00
1.3890e+00
1.3815e+00
1.4151e+00
1.3993e+00
1.4325e+00
1.4184e+00
1.4548e+00
1.4373e+00
1.4728e+00
1.4569e+00
1.4920e+00
1.4741e+00
1.5137e+00
1.4927e+00
1.5327e+00
1.5105e+00
1.5507e+00
1.5278e+00
1.5681e+00
1.5431e+00
1.5836e+00
1.5594e+00
1.6002e+00
1.5740e+00
1.6149e+00
1.6077e+00
1.6359e+00
1.6224e+00
1.6503e+00
1.6353e+00
1.6675e+00
1.6480e+00
1.6799e+00
1.6605e+00
1.6921e+00
1.6714e+00
1.7027e+00
1.6822e+00
1.7132e+00
1.6915e+00
1.7223e+00
1.7019e+00
1.7325e+00
1.7110e+00
1.7413e+00
1.0117e+00
1.0519e+00
1.0117e+00
1.0519e+00
1.0335e+00
1.0698e+00
1.0547e+00
1.0887e+00
1.0683e+00
1.1378e+00
1.1343e+00
1.1697e+00
1.1824e+00
1.1943e+00
1.1974e+00
1.2121e+00
1.2237e+00
1.2492e+00
1.3228e+00
1.3717e+00
1.3406e+00
1.3886e+00
1.3810e+00
1.4147e+00
1.3989e+00
1.4321e+00
1.4180e+00
1.4544e+00
1.4369e+00
1.4724e+00
1.4565e+00
1.4916e+00
1.4738e+00
1.5134e+00
1.4923e+00
1.5323e+00
1.5101e+00
1.5503e+00
1.5274e+00
1.5678e+00
1.5427e+00
1.5833e+00
1.5591e+00
1.5999e+00
1.5737e+00
1.6146e+00
1.6073e+00
1.6356e+00
1.6220e+00
1.6500e+00
1.6350e+00
1.6672e+00
1.6477e+00
1.6796e+00
1.6602e+00
1.6918e+00
1.6711e+00
1.7025e+00
1.6819e+00
1.7130e+00
1.6912e+00
1.7220e+00
1.7016e+00
1.7323e+00
1.7107e+00
1.7411e+00
1.0111e+00
1.0514e+00
1.0111e+00
1.0514e+00
1.0330e+00
1.0694e+00
1.0542e+00
1.0882e+00
1.0678e+00
1.1374e+00
1.1338e+00
1.1693e+00
1.1820e+00
1.1939e+00
1.1970e+00
1.2118e+00
1.2234e+00
1.2488e+00
1.3224e+00
1.3712e+00
1.3402e+00
1.3882e+00
1.3805e+00
1.4142e+00
1.3984e+00
1.4317e+00
1.4176e+00
1.4540e+00
1.4365e+00
1.4720e+00
1.4561e+00
1.4912e+00
1.4734e+00
1.5130e+00
1.4920e+00
1.5320e+00
1.5098e+00
1.5500e+00
1.5271e+00
1.5675e+00
1.5424e+00
1.5830e+00
1.5588e+00
1.5996e+00
1.5734e+00
1.6144e+00
1.6070e+00
1.6353e+00
1.6217e+00
1.6497e+00
1.6346e+00
1.6669e+00
1.6473e+00
1.6793e+00
1.6598e+00
1.6915e+00
1.6708e+00
1.7022e+00
1.6816e+00
1.7127e+00
1.6909e+00
1.7218e+00
1.7013e+00
1.7320e+00
1.7104e+00
1.7408e+00
1.0106e+00
1.0509e+00
1.0106e+00
1.0509e+00
1.0325e+00
1.0689e+00
1.0537e+00
1.0878e+00
1.0674e+00
1.1370e+00
1.1334e+00
1.1689e+00
1.1816e+00
1.1935e+00
1.1966e+00
1.2114e+00
1.2231e+00
1.2485e+00
1.3220e+00
1.3708e+00
1.3398e+00
1.3878e+00
1.3801e+00
1.4138e+00
1.3980e+00
1.4313e+00
1.4176e+00
1.4535e+00
1.4361e+00
1.4716e+00
1.4557e+00
1.4908e+00
1.4730e+00
1.5127e+00
1.4914e+00
1.5316e+00
1.5094e+00
1.5497e+00
1.5267e+00
1.5672e+00
1.5421e+00
1.5827e+00
1.5585e+00
1.5993e+00
1.5730e+00
1.6141e+00
1.6066e+00
1.6350e+00
1.6213e+00
1.6494e+00
1.6343e+00
1.6666e+00
1.6470e+00
1.6790e+00
1.6595e+00
1.6912e+00
1.6704e+00
1.7019e+00
1.6812e+00
1.7124e+00
1.6905e+00
1.7215e+00
1.7010e+00
1.7317e+00
1.7101e+00
1.7406e+00
1.0101e+00
1.0504e+00
1.0101e+00
1.0504e+00
1.0320e+00
1.0684e+00
1.0533e+00
1.0873e+00
1.0669e+00
1.1365e+00
1.1329e+00
1.1546e+00
1.1812e+00
1.1931e+00
1.1960e+00
1.2086e+00
1.2227e+00
1.2481e+00
1.3215e+00
1.3703e+00
1.3394e+00
1.3873e+00
1.3796e+00
1.4133e+00
1.3975e+00
1.4309e+00
1.4172e+00
1.4531e+00
1.4357e+00
1.4712e+00
1.4553e+00
1.4905e+00
1.4726e+00
1.5123e+00
1.4910e+00
1.5313e+00
1.5091e+00
1.5493e+00
1.5264e+00
1.5668e+00
1.5417e+00
1.5823e+00
1.5581e+00
1.5990e+00
1.5727e+00
1.6137e+00
1.6062e+00
1.6346e+00
1.6209e+00
1.6491e+00
1.6339e+00
1.6663e+00
1.6466e+00
1.6787e+00
1.6592e+00
1.6909e+00
1.6701e+00
1.7016e+00
1.6809e+00
1.7121e+00
1.6902e+00
1.7212e+00
1.7007e+00
1.7314e+00
1.7098e+00
1.7403e+00
1.0095e+00
1.0498e+00
1.0095e+00
1.0498e+00
1.0315e+00
1.0679e+00
1.0528e+00
1.0869e+00
1.0665e+00
1.1361e+00
1.1325e+00
1.1542e+00
1.1808e+00
1.1927e+00
1.1956e+00
1.2083e+00
1.2224e+00
1.2477e+00
1.3211e+00
1.3699e+00
1.3389e+00
1.3869e+00
1.3791e+00
1.4129e+00
1.3970e+00
1.4304e+00
1.4167e+00
1.4527e+00
1.4353e+00
1.4708e+00
1.4549e+00
1.4901e+00
1.4722e+00
1.5119e+00
1.4906e+00
1.5309e+00
1.5087e+00
1.5490e+00
1.5260e+00
1.5665e+00
1.5414e+00
1.5820e+00
1.5578e+00
1.5986e+00
1.5724e+00
1.6134e+00
1.6058e+00
1.6343e+00
1.6206e+00
1.6487e+00
1.6335e+00
1.6660e+00
1.6463e+00
1.6784e+00
1.6588e+00
1.6906e+00
1.6698e+00
1.7013e+00
1.6806e+00
1.7118e+00
1.6899e+00
1.7209e+00
1.7004e+00
1.7312e+00
1.7094e+00
1.7400e+00
1.0090e+00
1.0493e+00
1.0090e+00
1.0493e+00
1.0310e+00
1.0674e+00
1.0523e+00
1.0866e+00
1.0660e+00
1.1357e+00
1.1320e+00
1.1538e+00
1.1805e+00
1.1924e+00
1.1952e+00
1.2079e+00
1.2220e+00
1.2474e+00
1.3206e+00
1.3694e+00
1.3385e+00
1.3864e+00
1.3786e+00
1.4124e+00
1.3966e+00
1.4300e+00
1.4163e+00
1.4523e+00
1.4348e+00
1.4704e+00
1.4545e+00
1.4897e+00
1.4718e+00
1.5115e+00
1.4902e+00
1.5305e+00
1.5083e+00
1.5486e+00
1.5257e+00
1.5661e+00
1.5410e+00
1.5817e+00
1.5575e+00
1.5983e+00
1.5720e+00
1.6131e+00
1.6055e+00
1.6340e+00
1.6202e+00
1.6484e+00
1.6332e+00
1.6657e+00
1.6459e+00
1.6781e+00
1.6584e+00
1.6903e+00
1.6694e+00
1.7010e+00
1.6802e+00
1.7115e+00
1.6895e+00
1.7206e+00
1.7000e+00
1.7309e+00
1.7091e+00
1.7397e+00
1.0085e+00
1.0488e+00
1.0085e+00
1.0488e+00
1.0305e+00
1.0669e+00
1.0518e+00
1.0861e+00
1.0655e+00
1.1352e+00
1.1315e+00
1.1534e+00
1.1801e+00
1.1919e+00
1.1948e+00
1.2075e+00
1.2216e+00
1.2470e+00
1.3201e+00
1.3689e+00
1.3380e+00
1.3860e+00
1.3781e+00
1.4120e+00
1.3961e+00
1.4295e+00
1.4158e+00
1.4484e+00
1.4344e+00
1.4700e+00
1.4541e+00
1.4893e+00
1.4714e+00
1.5111e+00
1.4898e+00
1.5302e+00
1.5077e+00
1.5482e+00
1.5253e+00
1.5658e+00
1.5406e+00
1.5813e+00
1.5571e+00
1.5980e+00
1.5717e+00
1.6128e+00
1.6051e+00
1.6336e+00
1.6198e+00
1.6481e+00
1.6328e+00
1.6654e+00
1.6455e+00
1.6778e+00
1.6581e+00
1.6900e+00
1.6690e+00
1.7007e+00
1.6798e+00
1.7112e+00
1.6892e+00
1.7203e+00
1.6997e+00
1.7306e+00
1.7088e+00
1.7395e+00
1.0079e+00
1.0482e+00
1.0079e+00
1.0482e+00
1.0300e+00
1.0664e+00
1.0513e+00
1.0857e+00
1.0651e+00
1.1348e+00
1.1310e+00
1.1530e+00
1.1796e+00
1.1915e+00
1.1945e+00
1.2071e+00
1.2213e+00
1.2466e+00
1.3197e+00
1.3684e+00
1.3376e+00
1.3855e+00
1.3776e+00
1.4115e+00
1.3956e+00
1.4291e+00
1.4153e+00
1.4479e+00
1.4339e+00
1.4695e+00
1.4536e+00
1.4888e+00
1.4710e+00
1.5112e+00
1.4894e+00
1.5298e+00
1.5073e+00
1.5479e+00
1.5249e+00
1.5654e+00
1.5403e+00
1.5810e+00
1.5568e+00
1.5976e+00
1.5714e+00
1.6125e+00
1.6046e+00
1.6333e+00
1.6194e+00
1.6477e+00
1.6324e+00
1.6651e+00
1.6452e+00
1.6775e+00
1.6577e+00
1.6897e+00
1.6687e+00
1.7004e+00
1.6795e+00
1.7109e+00
1.6888e+00
1.7200e+00
1.6993e+00
1.7303e+00
1.7084e+00
1.7392e+00
1.0073e+00
1.0477e+00
1.0073e+00
1.0477e+00
1.0295e+00
1.0659e+00
1.0508e+00
1.0852e+00
1.0646e+00
1.1343e+00
1.1306e+00
1.1525e+00
1.1792e+00
1.1911e+00
1.1941e+00
1.2067e+00
1.2209e+00
1.2462e+00
1.3192e+00
1.3679e+00
1.3371e+00
1.3850e+00
1.3771e+00
1.4110e+00
1.3951e+00
1.4286e+00
1.4149e+00
1.4475e+00
1.4335e+00
1.4691e+00
1.4532e+00
1.4884e+00
1.4705e+00
1.5108e+00
1.4890e+00
1.5294e+00
1.5069e+00
1.5475e+00
1.5245e+00
1.5651e+00
1.5399e+00
1.5806e+00
1.5564e+00
1.5973e+00
1.5710e+00
1.6121e+00
1.6042e+00
1.6329e+00
1.6190e+00
1.6474e+00
1.6320e+00
1.6647e+00
1.6448e+00
1.6772e+00
1.6573e+00
1.6894e+00
1.6683e+00
1.7001e+00
1.6791e+00
1.7106e+00
1.6885e+00
1.7197e+00
1.6990e+00
1.7300e+00
1.7081e+00
1.7389e+00
1.0068e+00
1.0471e+00
1.0068e+00
1.0471e+00
1.0290e+00
1.0653e+00
1.0503e+00
1.0847e+00
1.0641e+00
1.1338e+00
1.1301e+00
1.1521e+00
1.1788e+00
1.1907e+00
1.1937e+00
1.2063e+00
1.2205e+00
1.2459e+00
1.3187e+00
1.3674e+00
1.3367e+00
1.3846e+00
1.3766e+00
1.4105e+00
1.3946e+00
1.4282e+00
1.4144e+00
1.4471e+00
1.4330e+00
1.4687e+00
1.4528e+00
1.4880e+00
1.4701e+00
1.5104e+00
1.4886e+00
1.5290e+00
1.5065e+00
1.5471e+00
1.5241e+00
1.5647e+00
1.5395e+00
1.5803e+00
1.5560e+00
1.5970e+00
1.5706e+00
1.6118e+00
1.6038e+00
1.6326e+00
1.6186e+00
1.6471e+00
1.6316e+00
1.6644e+00
1.6444e+00
1.6768e+00
1.6569e+00
1.6891e+00
1.6679e+00
1.6998e+00
1.6787e+00
1.7103e+00
1.6881e+00
1.7194e+00
1.6986e+00
1.7297e+00
1.7077e+00
1.7386e+00
1.0062e+00
1.0466e+00
1.0062e+00
1.0466e+00
1.0284e+00
1.0648e+00
1.0498e+00
1.0842e+00
1.0636e+00
1.1334e+00
1.0847e+00
1.1517e+00
1.1784e+00
1.1903e+00
1.1933e+00
1.2059e+00
1.2201e+00
1.2455e+00
1.3182e+00
1.3670e+00
1.3362e+00
1.3841e+00
1.3761e+00
1.4101e+00
1.3941e+00
1.4277e+00
1.4139e+00
1.4466e+00
1.4326e+00
1.4682e+00
1.4523e+00
1.4876e+00
1.4697e+00
1.5100e+00
1.4882e+00
1.5286e+00
1.5061e+00
1.5467e+00
1.5238e+00
1.5643e+00
1.5392e+00
1.5799e+00
1.5557e+00
1.5966e+00
1.5703e+00
1.6114e+00
1.6034e+00
1.6322e+00
1.6182e+00
1.6467e+00
1.6312e+00
1.6640e+00
1.6440e+00
1.6765e+00
1.6566e+00
1.6887e+00
1.6675e+00
1.6994e+00
1.6784e+00
1.7100e+00
1.6877e+00
1.7191e+00
1.6983e+00
1.7294e+00
1.7074e+00
1.7383e+00
1.0056e+00
1.0460e+00
1.0056e+00
1.0460e+00
1.0279e+00
1.0643e+00
1.0493e+00
1.0837e+00
1.0631e+00
1.1329e+00
1.0843e+00
1.1512e+00
1.1780e+00
1.1899e+00
1.1929e+00
1.2055e+00
1.2197e+00
1.2451e+00
1.3177e+00
1.3665e+00
1.3358e+00
1.3836e+00
1.3756e+00
1.4096e+00
1.3936e+00
1.4272e+00
1.4134e+00
1.4462e+00
1.4321e+00
1.4678e+00
1.4519e+00
1.4872e+00
1.4693e+00
1.5095e+00
1.4878e+00
1.5282e+00
1.5057e+00
1.5463e+00
1.5231e+00
1.5639e+00
1.5388e+00
1.5795e+00
1.5553e+00
1.5963e+00
1.5699e+00
1.6111e+00
1.6030e+00
1.6319e+00
1.6177e+00
1.6464e+00
1.6308e+00
1.6637e+00
1.6436e+00
1.6762e+00
1.6562e+00
1.6884e+00
1.6672e+00
1.6991e+00
1.6780e+00
1.7097e+00
1.6873e+00
1.7188e+00
1.6979e+00
1.7291e+00
1.7070e+00
1.7379e+00
1.0050e+00
1.0454e+00
1.0050e+00
1.0454e+00
1.0274e+00
1.0638e+00
1.0487e+00
1.0832e+00
1.0627e+00
1.1324e+00
1.0838e+00
1.1508e+00
1.1776e+00
1.1895e+00
1.1925e+00
1.2051e+00
1.2194e+00
1.2447e+00
1.3172e+00
1.3659e+00
1.3353e+00
1.3831e+00
1.3750e+00
1.4091e+00
1.3931e+00
1.4268e+00
1.4129e+00
1.4457e+00
1.4316e+00
1.4673e+00
1.4514e+00
1.4912e+00
1.4688e+00
1.5091e+00
1.4874e+00
1.5278e+00
1.5053e+00
1.5459e+00
1.5227e+00
1.5636e+00
1.5384e+00
1.5792e+00
1.5549e+00
1.5959e+00
1.5696e+00
1.6107e+00
1.6025e+00
1.6315e+00
1.6173e+00
1.6460e+00
1.6304e+00
1.6633e+00
1.6432e+00
1.6758e+00
1.6558e+00
1.6881e+00
1.6668e+00
1.6988e+00
1.6776e+00
1.7093e+00
1.6870e+00
1.7185e+00
1.6975e+00
1.7288e+00
1.7066e+00
1.7376e+00
1.0045e+00
1.0449e+00
1.0045e+00
1.0449e+00
1.0268e+00
1.0632e+00
1.0482e+00
1.0827e+00
1.0622e+00
1.1320e+00
1.0834e+00
1.1503e+00
1.1772e+00
1.1890e+00
1.1921e+00
1.2047e+00
1.2177e+00
1.2308e+00
1.3167e+00
1.3654e+00
1.3348e+00
1.3826e+00
1.3745e+00
1.4086e+00
1.3926e+00
1.4263e+00
1.4125e+00
1.4453e+00
1.4311e+00
1.4636e+00
1.4510e+00
1.4908e+00
1.4684e+00
1.5087e+00
1.4869e+00
1.5274e+00
1.5049e+00
1.5456e+00
1.5223e+00
1.5632e+00
1.5380e+00
1.5788e+00
1.5545e+00
1.5955e+00
1.5692e+00
1.6104e+00
1.6021e+00
1.6311e+00
1.6169e+00
1.6456e+00
1.6300e+00
1.6630e+00
1.6428e+00
1.6755e+00
1.6554e+00
1.6877e+00
1.6664e+00
1.6985e+00
1.6772e+00
1.7090e+00
1.6866e+00
1.7181e+00
1.6971e+00
1.7284e+00
1.7062e+00
1.7373e+00
1.0039e+00
1.0443e+00
1.0039e+00
1.0443e+00
1.0263e+00
1.0627e+00
1.0477e+00
1.0822e+00
1.0617e+00
1.1315e+00
1.0829e+00
1.1499e+00
1.1561e+00
1.1871e+00
1.1917e+00
1.2043e+00
1.2173e+00
1.2304e+00
1.3162e+00
1.3649e+00
1.3343e+00
1.3822e+00
1.3740e+00
1.4081e+00
1.3921e+00
1.4258e+00
1.4120e+00
1.4448e+00
1.4307e+00
1.4631e+00
1.4505e+00
1.4903e+00
1.4679e+00
1.5083e+00
1.4865e+00
1.5270e+00
1.5045e+00
1.5452e+00
1.5219e+00
1.5628e+00
1.5376e+00
1.5784e+00
1.5541e+00
1.5952e+00
1.5688e+00
1.6100e+00
1.6017e+00
1.6308e+00
1.6165e+00
1.6453e+00
1.6295e+00
1.6626e+00
1.6424e+00
1.6751e+00
1.6550e+00
1.6874e+00
1.6660e+00
1.6981e+00
1.6768e+00
1.7087e+00
1.6862e+00
1.7178e+00
1.6967e+00
1.7281e+00
1.7059e+00
1.7370e+00
1.0033e+00
1.0437e+00
1.0033e+00
1.0437e+00
1.0244e+00
1.0621e+00
1.0472e+00
1.0817e+00
1.0612e+00
1.1310e+00
1.0825e+00
1.1494e+00
1.1556e+00
1.1867e+00
1.1913e+00
1.2039e+00
1.2169e+00
1.2300e+00
1.3157e+00
1.3644e+00
1.3339e+00
1.3817e+00
1.3734e+00
1.4076e+00
1.3916e+00
1.4253e+00
1.4115e+00
1.4443e+00
1.4302e+00
1.4627e+00
1.4501e+00
1.4899e+00
1.4675e+00
1.5079e+00
1.4861e+00
1.5266e+00
1.5041e+00
1.5448e+00
1.5215e+00
1.5624e+00
1.5369e+00
1.5780e+00
1.5538e+00
1.5948e+00
1.5684e+00
1.6097e+00
1.6012e+00
1.6304e+00
1.6160e+00
1.6449e+00
1.6291e+00
1.6623e+00
1.6419e+00
1.6748e+00
1.6545e+00
1.6870e+00
1.6656e+00
1.6978e+00
1.6764e+00
1.7084e+00
1.6858e+00
1.7175e+00
1.6964e+00
1.7278e+00
1.7055e+00
1.7367e+00
1.0027e+00
1.0432e+00
1.0027e+00
1.0432e+00
1.0239e+00
1.0616e+00
1.0466e+00
1.0812e+00
1.0607e+00
1.1305e+00
1.0820e+00
1.1490e+00
1.1552e+00
1.1863e+00
1.1909e+00
1.2035e+00
1.2166e+00
1.2296e+00
1.3152e+00
1.3639e+00
1.3540e+00
1.3887e+00
1.3729e+00
1.4071e+00
1.3911e+00
1.4248e+00
1.4110e+00
1.4439e+00
1.4297e+00
1.4622e+00
1.4496e+00
1.4895e+00
1.4670e+00
1.5074e+00
1.4856e+00
1.5262e+00
1.5036e+00
1.5444e+00
1.5211e+00
1.5620e+00
1.5365e+00
1.5777e+00
1.5534e+00
1.5944e+00
1.5681e+00
1.6093e+00
1.6008e+00
1.6300e+00
1.6156e+00
1.6445e+00
1.6287e+00
1.6619e+00
1.6415e+00
1.6744e+00
1.6541e+00
1.6867e+00
1.6652e+00
1.6974e+00
1.6760e+00
1.7080e+00
1.6854e+00
1.7172e+00
1.6960e+00
1.7275e+00
1.7051e+00
1.7364e+00
1.0021e+00
1.0289e+00
1.0021e+00
1.0289e+00
1.0233e+00
1.0611e+00
1.0461e+00
1.0807e+00
1.0602e+00
1.1301e+00
1.0815e+00
1.1485e+00
1.1547e+00
1.1858e+00
1.1905e+00
1.2031e+00
1.2162e+00
1.2292e+00
1.3147e+00
1.3634e+00
1.3534e+00
1.3881e+00
1.3723e+00
1.4066e+00
1.3905e+00
1.4244e+00
1.4105e+00
1.4434e+00
1.4292e+00
1.4618e+00
1.4491e+00
1.4890e+00
1.4666e+00
1.5070e+00
1.4852e+00
1.5258e+00
1.5032e+00
1.5440e+00
1.5207e+00
1.5616e+00
1.5361e+00
1.5773e+00
1.5530e+00
1.5941e+00
1.5677e+00
1.6090e+00
1.6003e+00
1.6296e+00
1.6152e+00
1.6442e+00
1.6282e+00
1.6616e+00
1.6411e+00
1.6741e+00
1.6537e+00
1.6863e+00
1.6647e+00
1.6971e+00
1.6756e+00
1.7077e+00
1.6850e+00
1.7168e+00
1.6956e+00
1.7271e+00
1.7047e+00
1.7360e+00
1.0015e+00
1.0283e+00
1.0015e+00
1.0283e+00
1.0228e+00
1.0605e+00
1.0455e+00
1.0802e+00
1.0596e+00
1.1296e+00
1.0810e+00
1.1481e+00
1.1505e+00
1.1761e+00
1.1901e+00
1.2027e+00
1.2158e+00
1.2288e+00
1.3142e+00
1.3629e+00
1.3529e+00
1.3876e+00
1.3718e+00
1.4061e+00
1.3900e+00
1.4239e+00
1.4100e+00
1.4429e+00
1.4287e+00
1.4613e+00
1.4487e+00
1.4886e+00
1.4661e+00
1.5066e+00
1.4848e+00
1.5253e+00
1.5028e+00
1.5436e+00
1.5203e+00
1.5612e+00
1.5357e+00
1.5769e+00
1.5526e+00
1.5937e+00
1.5673e+00
1.6086e+00
1.5999e+00
1.6293e+00
1.6147e+00
1.6438e+00
1.6278e+00
1.6612e+00
1.6407e+00
1.6737e+00
1.6533e+00
1.6860e+00
1.6643e+00
1.6967e+00
1.6752e+00
1.7073e+00
1.6846e+00
1.7165e+00
1.6952e+00
1.7268e+00
1.7043e+00
1.7357e+00
1.0009e+00
1.0277e+00
1.0009e+00
1.0277e+00
1.0172e+00
1.0600e+00
1.0450e+00
1.0797e+00
1.0591e+00
1.1291e+00
1.0806e+00
1.1476e+00
1.1500e+00
1.1756e+00
1.1897e+00
1.2023e+00
1.2154e+00
1.2284e+00
1.3137e+00
1.3623e+00
1.3523e+00
1.3871e+00
1.3713e+00
1.4056e+00
1.3895e+00
1.4234e+00
1.4095e+00
1.4425e+00
1.4283e+00
1.4609e+00
1.4482e+00
1.4881e+00
1.4657e+00
1.5061e+00
1.4843e+00
1.5249e+00
1.5024e+00
1.5431e+00
1.5199e+00
1.5608e+00
1.5353e+00
1.5765e+00
1.5522e+00
1.5933e+00
1.5669e+00
1.6082e+00
1.5994e+00
1.6289e+00
1.6143e+00
1.6434e+00
1.6274e+00
1.6563e+00
1.6402e+00
1.6733e+00
1.6529e+00
1.6856e+00
1.6639e+00
1.6964e+00
1.6748e+00
1.7070e+00
1.6842e+00
1.7161e+00
1.6948e+00
1.7265e+00
1.7039e+00
1.7354e+00
1.0003e+00
1.0271e+00
1.0003e+00
1.0271e+00
1.0166e+00
1.0594e+00
1.0418e+00
1.0792e+00
1.0586e+00
1.1286e+00
1.0801e+00
1.1472e+00
1.1495e+00
1.1752e+00
1.1892e+00
1.2019e+00
1.2150e+00
1.2280e+00
1.3132e+00
1.3618e+00
1.3517e+00
1.3865e+00
1.3707e+00
1.4050e+00
1.3890e+00
1.4229e+00
1.4089e+00
1.4420e+00
1.4278e+00
1.4604e+00
1.4477e+00
1.4877e+00
1.4652e+00
1.5057e+00
1.4839e+00
1.5245e+00
1.5019e+00
1.5427e+00
1.5194e+00
1.5604e+00
1.5349e+00
1.5761e+00
1.5515e+00
1.5929e+00
1.5665e+00
1.6079e+00
1.5989e+00
1.6285e+00
1.6138e+00
1.6430e+00
1.6269e+00
1.6559e+00
1.6398e+00
1.6730e+00
1.6524e+00
1.6853e+00
1.6635e+00
1.6960e+00
1.6744e+00
1.7066e+00
1.6838e+00
1.7158e+00
1.6944e+00
1.7261e+00
1.7035e+00
1.7350e+00
9.9965e-01
1.0265e+00
9.9965e-01
1.0265e+00
1.0160e+00
1.0596e+00
1.0412e+00
1.0787e+00
1.0581e+00
1.1281e+00
1.0796e+00
1.1467e+00
1.1490e+00
1.1748e+00
1.1888e+00
1.2014e+00
1.2166e+00
1.2377e+00
1.3127e+00
1.3613e+00
1.3512e+00
1.3860e+00
1.3702e+00
1.4045e+00
1.3884e+00
1.4224e+00
1.4084e+00
1.4415e+00
1.4273e+00
1.4600e+00
1.4472e+00
1.4872e+00
1.4648e+00
1.5053e+00
1.4834e+00
1.5241e+00
1.5015e+00
1.5423e+00
1.5190e+00
1.5601e+00
1.5345e+00
1.5757e+00
1.5511e+00
1.5926e+00
1.5661e+00
1.6075e+00
1.5805e+00
1.6221e+00
1.6134e+00
1.6427e+00
1.6265e+00
1.6555e+00
1.6394e+00
1.6726e+00
1.6520e+00
1.6849e+00
1.6631e+00
1.6957e+00
1.6740e+00
1.7063e+00
1.6834e+00
1.7155e+00
1.6940e+00
1.7258e+00
1.7031e+00
1.7347e+00
9.9903e-01
1.0259e+00
9.9903e-01
1.0259e+00
1.0155e+00
1.0591e+00
1.0407e+00
1.0782e+00
1.0576e+00
1.1276e+00
1.0791e+00
1.1462e+00
1.1485e+00
1.1743e+00
1.1884e+00
1.2010e+00
1.2162e+00
1.2372e+00
1.3121e+00
1.3607e+00
1.3506e+00
1.3855e+00
1.3696e+00
1.4040e+00
1.3879e+00
1.4219e+00
1.4079e+00
1.4410e+00
1.4268e+00
1.4595e+00
1.4468e+00
1.4791e+00
1.4643e+00
1.5048e+00
1.4830e+00
1.5237e+00
1.5011e+00
1.5419e+00
1.5186e+00
1.5596e+00
1.5341e+00
1.5753e+00
1.5507e+00
1.5922e+00
1.5657e+00
1.6071e+00
1.5801e+00
1.6217e+00
1.6129e+00
1.6423e+00
1.6260e+00
1.6551e+00
1.6389e+00
1.6722e+00
1.6516e+00
1.6846e+00
1.6627e+00
1.6953e+00
1.6736e+00
1.7059e+00
1.6830e+00
1.7151e+00
1.6936e+00
1.7254e+00
1.7027e+00
1.7344e+00
9.9841e-01
9.9324e-01
9.9841e-01
9.9324e-01
1.0149e+00
1.0585e+00
1.0402e+00
1.0777e+00
1.0571e+00
1.1271e+00
1.0787e+00
1.1458e+00
1.1480e+00
1.1739e+00
1.1880e+00
1.2006e+00
1.2158e+00
1.2368e+00
1.3116e+00
1.3602e+00
1.3500e+00
1.3849e+00
1.3690e+00
1.4035e+00
1.3874e+00
1.4214e+00
1.4074e+00
1.4406e+00
1.4263e+00
1.4590e+00
1.4463e+00
1.4787e+00
1.4638e+00
1.5044e+00
1.4825e+00
1.5232e+00
1.5006e+00
1.5415e+00
1.5182e+00
1.5592e+00
1.5337e+00
1.5750e+00
1.5503e+00
1.5918e+00
1.5654e+00
1.6067e+00
1.5798e+00
1.6214e+00
1.6125e+00
1.6419e+00
1.6256e+00
1.6548e+00
1.6385e+00
1.6719e+00
1.6512e+00
1.6842e+00
1.6622e+00
1.6950e+00
1.6731e+00
1.7056e+00
1.6826e+00
1.7148e+00
1.6932e+00
1.7251e+00
1.7023e+00
1.7340e+00
9.9778e-01
9.9264e-01
9.9778e-01
9.9264e-01
1.0143e+00
1.0580e+00
1.0397e+00
1.0771e+00
1.0565e+00
1.1266e+00
1.0782e+00
1.1453e+00
1.1475e+00
1.1734e+00
1.1876e+00
1.2002e+00
1.2154e+00
1.2363e+00
1.3111e+00
1.3597e+00
1.3494e+00
1.3844e+00
1.3685e+00
1.4030e+00
1.3868e+00
1.4209e+00
1.4069e+00
1.4401e+00
1.4258e+00
1.4586e+00
1.4458e+00
1.4782e+00
1.4634e+00
1.5039e+00
1.4821e+00
1.5228e+00
1.5002e+00
1.5411e+00
1.5178e+00
1.5588e+00
1.5333e+00
1.5746e+00
1.5499e+00
1.5914e+00
1.5650e+00
1.6064e+00
1.5794e+00
1.6210e+00
1.6120e+00
1.6415e+00
1.6251e+00
1.6544e+00
1.6381e+00
1.6715e+00
1.6507e+00
1.6838e+00
1.6618e+00
1.6946e+00
1.6727e+00
1.7052e+00
1.6821e+00
1.7144e+00
1.6928e+00
1.7248e+00
1.7019e+00
1.7337e+00
9.9715e-01
9.9204e-01
9.9715e-01
9.9204e-01
1.0137e+00
1.0574e+00
1.0392e+00
1.0766e+00
1.0560e+00
1.1261e+00
1.0777e+00
1.1449e+00
1.1470e+00
1.1730e+00
1.1871e+00
1.1997e+00
1.2149e+00
1.2359e+00
1.3106e+00
1.3591e+00
1.3488e+00
1.3838e+00
1.3679e+00
1.4024e+00
1.3863e+00
1.4204e+00
1.4064e+00
1.4396e+00
1.4253e+00
1.4581e+00
1.4453e+00
1.4778e+00
1.4629e+00
1.5035e+00
1.4816e+00
1.5224e+00
1.4998e+00
1.5407e+00
1.5173e+00
1.5584e+00
1.5329e+00
1.5742e+00
1.5495e+00
1.5910e+00
1.5643e+00
1.6060e+00
1.5790e+00
1.6206e+00
1.6115e+00
1.6411e+00
1.6247e+00
1.6540e+00
1.6376e+00
1.6711e+00
1.6503e+00
1.6835e+00
1.6614e+00
1.6943e+00
1.6723e+00
1.7049e+00
1.6817e+00
1.7141e+00
1.6924e+00
1.7244e+00
1.7015e+00
1.7334e+00
9.9652e-01
9.9144e-01
9.9652e-01
9.9144e-01
1.0131e+00
1.0568e+00
1.0386e+00
1.0761e+00
1.0555e+00
1.1256e+00
1.0772e+00
1.1444e+00
1.1356e+00
1.1725e+00
1.1867e+00
1.1993e+00
1.2145e+00
1.2354e+00
1.3100e+00
1.3586e+00
1.3482e+00
1.3833e+00
1.3674e+00
1.4019e+00
1.3857e+00
1.4199e+00
1.4058e+00
1.4391e+00
1.4248e+00
1.4576e+00
1.4448e+00
1.4773e+00
1.4624e+00
1.5030e+00
1.4812e+00
1.5219e+00
1.4993e+00
1.5402e+00
1.5169e+00
1.5580e+00
1.5325e+00
1.5738e+00
1.5491e+00
1.5906e+00
1.5639e+00
1.6056e+00
1.5786e+00
1.6203e+00
1.6111e+00
1.6407e+00
1.6242e+00
1.6536e+00
1.6372e+00
1.6708e+00
1.6499e+00
1.6831e+00
1.6610e+00
1.6939e+00
1.6719e+00
1.7045e+00
1.6813e+00
1.7137e+00
1.6919e+00
1.7241e+00
1.7011e+00
1.7330e+00
9.9588e-01
9.9202e-01
9.9588e-01
9.9202e-01
1.0126e+00
1.0563e+00
1.0381e+00
1.0756e+00
1.0550e+00
1.1251e+00
1.0767e+00
1.1439e+00
1.1351e+00
1.1588e+00
1.1863e+00
1.1989e+00
1.2141e+00
1.2350e+00
1.3095e+00
1.3580e+00
1.3477e+00
1.3827e+00
1.3668e+00
1.4014e+00
1.3856e+00
1.4194e+00
1.4053e+00
1.4386e+00
1.4243e+00
1.4572e+00
1.4443e+00
1.4769e+00
1.4620e+00
1.5026e+00
1.4807e+00
1.5215e+00
1.4989e+00
1.5398e+00
1.5165e+00
1.5576e+00
1.5320e+00
1.5734e+00
1.5487e+00
1.5903e+00
1.5635e+00
1.6052e+00
1.5782e+00
1.6199e+00
1.6106e+00
1.6403e+00
1.6238e+00
1.6532e+00
1.6367e+00
1.6704e+00
1.6494e+00
1.6827e+00
1.6605e+00
1.6935e+00
1.6715e+00
1.7042e+00
1.6809e+00
1.7134e+00
1.6915e+00
1.7237e+00
1.7007e+00
1.7327e+00
9.9524e-01
9.9141e-01
9.9524e-01
9.9141e-01
1.0120e+00
1.0557e+00
1.0376e+00
1.0750e+00
1.0544e+00
1.1246e+00
1.0762e+00
1.1434e+00
1.1346e+00
1.1583e+00
1.1859e+00
1.1985e+00
1.2137e+00
1.2346e+00
1.3090e+00
1.3575e+00
1.3471e+00
1.3822e+00
1.3662e+00
1.4009e+00
1.3851e+00
1.4189e+00
1.4048e+00
1.4381e+00
1.4238e+00
1.4567e+00
1.4439e+00
1.4764e+00
1.4615e+00
1.5021e+00
1.4803e+00
1.5211e+00
1.4984e+00
1.5394e+00
1.5160e+00
1.5572e+00
1.5316e+00
1.5730e+00
1.5483e+00
1.5899e+00
1.5631e+00
1.6049e+00
1.5778e+00
1.6195e+00
1.6101e+00
1.6400e+00
1.6233e+00
1.6529e+00
1.6363e+00
1.6700e+00
1.6490e+00
1.6824e+00
1.6601e+00
1.6932e+00
1.6710e+00
1.7038e+00
1.6805e+00
1.7130e+00
1.6911e+00
1.7234e+00
1.7003e+00
1.7323e+00
9.9460e-01
9.9080e-01
9.9460e-01
9.9080e-01
1.0114e+00
1.0551e+00
1.0370e+00
1.0745e+00
1.0539e+00
1.1241e+00
1.0757e+00
1.1430e+00
1.1341e+00
1.1579e+00
1.1854e+00
1.1980e+00
1.2133e+00
1.2341e+00
1.3084e+00
1.3570e+00
1.3465e+00
1.3816e+00
1.3657e+00
1.4003e+00
1.3845e+00
1.4183e+00
1.4043e+00
1.4376e+00
1.4233e+00
1.4562e+00
1.4434e+00
1.4759e+00
1.4610e+00
1.5017e+00
1.4798e+00
1.5206e+00
1.4980e+00
1.5390e+00
1.5156e+00
1.5568e+00
1.5312e+00
1.5726e+00
1.5479e+00
1.5895e+00
1.5627e+00
1.6045e+00
1.5774e+00
1.6191e+00
1.6097e+00
1.6396e+00
1.6229e+00
1.6525e+00
1.6358e+00
1.6696e+00
1.6485e+00
1.6820e+00
1.6597e+00
1.6928e+00
1.6706e+00
1.7035e+00
1.6800e+00
1.7126e+00
1.6907e+00
1.7230e+00
1.6999e+00
1.7320e+00
9.9395e-01
9.9019e-01
9.9395e-01
9.9019e-01
1.0108e+00
1.0545e+00
1.0365e+00
1.0740e+00
1.0534e+00
1.1236e+00
1.0753e+00
1.1425e+00
1.1335e+00
1.1574e+00
1.1850e+00
1.1976e+00
1.2128e+00
1.2336e+00
1.3079e+00
1.3564e+00
1.3459e+00
1.3811e+00
1.3651e+00
1.3998e+00
1.3840e+00
1.4178e+00
1.4037e+00
1.4371e+00
1.4227e+00
1.4557e+00
1.4429e+00
1.4755e+00
1.4605e+00
1.5012e+00
1.4794e+00
1.5202e+00
1.4975e+00
1.5386e+00
1.5152e+00
1.5564e+00
1.5308e+00
1.5722e+00
1.5475e+00
1.5891e+00
1.5623e+00
1.6041e+00
1.5767e+00
1.6188e+00
1.6092e+00
1.6392e+00
1.6224e+00
1.6521e+00
1.6354e+00
1.6692e+00
1.6481e+00
1.6816e+00
1.6592e+00
1.6924e+00
1.6702e+00
1.7031e+00
1.6796e+00
1.7123e+00
1.6903e+00
1.7227e+00
1.6995e+00
1.7316e+00
9.9330e-01
9.8958e-01
9.9330e-01
9.8958e-01
1.0102e+00
1.0540e+00
1.0360e+00
1.0734e+00
1.0528e+00
1.1231e+00
1.0748e+00
1.1420e+00
1.1330e+00
1.1569e+00
1.1846e+00
1.1972e+00
1.2124e+00
1.2332e+00
1.3074e+00
1.3559e+00
1.3453e+00
1.3805e+00
1.3645e+00
1.3993e+00
1.3834e+00
1.4173e+00
1.4032e+00
1.4366e+00
1.4222e+00
1.4553e+00
1.4424e+00
1.4750e+00
1.4601e+00
1.5008e+00
1.4789e+00
1.5197e+00
1.4971e+00
1.5381e+00
1.5148e+00
1.5560e+00
1.5304e+00
1.5718e+00
1.5471e+00
1.5887e+00
1.5619e+00
1.6037e+00
1.5763e+00
1.6184e+00
1.6087e+00
1.6388e+00
1.6220e+00
1.6517e+00
1.6349e+00
1.6689e+00
1.6476e+00
1.6812e+00
1.6588e+00
1.6921e+00
1.6697e+00
1.7027e+00
1.6792e+00
1.7119e+00
1.6899e+00
1.7223e+00
1.6991e+00
1.7313e+00
9.9265e-01
9.8896e-01
9.9265e-01
9.8896e-01
1.0096e+00
1.0534e+00
1.0354e+00
1.0729e+00
1.0523e+00
1.1226e+00
1.0743e+00
1.1415e+00
1.1325e+00
1.1565e+00
1.1841e+00
1.1967e+00
1.2120e+00
1.2327e+00
1.3019e+00
1.3163e+00
1.3447e+00
1.3799e+00
1.3639e+00
1.3987e+00
1.3829e+00
1.4168e+00
1.4027e+00
1.4361e+00
1.4217e+00
1.4548e+00
1.4419e+00
1.4779e+00
1.4596e+00
1.5003e+00
1.4784e+00
1.5193e+00
1.4967e+00
1.5377e+00
1.5143e+00
1.5556e+00
1.5299e+00
1.5714e+00
1.5466e+00
1.5883e+00
1.5615e+00
1.6033e+00
1.5759e+00
1.6180e+00
1.6083e+00
1.6384e+00
1.6215e+00
1.6513e+00
1.6345e+00
1.6685e+00
1.6472e+00
1.6809e+00
1.6583e+00
1.6917e+00
1.6693e+00
1.7024e+00
1.6788e+00
1.7116e+00
1.6894e+00
1.7220e+00
1.6986e+00
1.7309e+00
9.9199e-01
9.8834e-01
9.9199e-01
9.8834e-01
1.0090e+00
1.0528e+00
1.0349e+00
1.0724e+00
1.0518e+00
1.0952e+00
1.0738e+00
1.1411e+00
1.1320e+00
1.1560e+00
1.1837e+00
1.1963e+00
1.2116e+00
1.2323e+00
1.3014e+00
1.3158e+00
1.3441e+00
1.3794e+00
1.3634e+00
1.3982e+00
1.3823e+00
1.4163e+00
1.4022e+00
1.4356e+00
1.4212e+00
1.4543e+00
1.4414e+00
1.4775e+00
1.4591e+00
1.4999e+00
1.4780e+00
1.5189e+00
1.4962e+00
1.5373e+00
1.5139e+00
1.5551e+00
1.5295e+00
1.5710e+00
1.5462e+00
1.5879e+00
1.5611e+00
1.6029e+00
1.5755e+00
1.6176e+00
1.6078e+00
1.6380e+00
1.6210e+00
1.6509e+00
1.6340e+00
1.6681e+00
1.6468e+00
1.6805e+00
1.6579e+00
1.6913e+00
1.6689e+00
1.7020e+00
1.6783e+00
1.7112e+00
1.6890e+00
1.7216e+00
1.6982e+00
1.7306e+00
9.9133e-01
9.8772e-01
9.9133e-01
9.8772e-01
1.0084e+00
1.0522e+00
1.0343e+00
1.0718e+00
1.0512e+00
1.0947e+00
1.0733e+00
1.1406e+00
1.1315e+00
1.1556e+00
1.1832e+00
1.1959e+00
1.2111e+00
1.2318e+00
1.3197e+00
1.3153e+00
1.3435e+00
1.3788e+00
1.3628e+00
1.3976e+00
1.3818e+00
1.4158e+00
1.4016e+00
1.4352e+00
1.4207e+00
1.4538e+00
1.4409e+00
1.4770e+00
1.4586e+00
1.4948e+00
1.4775e+00
1.5184e+00
1.4958e+00
1.5368e+00
1.5134e+00
1.5547e+00
1.5291e+00
1.5705e+00
1.5458e+00
1.5875e+00
1.5606e+00
1.6026e+00
1.5751e+00
1.6173e+00
1.6073e+00
1.6376e+00
1.6206e+00
1.6505e+00
1.6336e+00
1.6677e+00
1.6463e+00
1.6801e+00
1.6575e+00
1.6909e+00
1.6684e+00
1.7016e+00
1.6779e+00
1.7108e+00
1.6886e+00
1.7212e+00
1.6978e+00
1.7302e+00
9.9066e-01
9.8709e-01
9.9066e-01
9.8709e-01
1.0078e+00
1.0516e+00
1.0338e+00
1.0713e+00
1.0507e+00
1.0942e+00
1.0728e+00
1.1401e+00
1.1309e+00
1.1551e+00
1.1828e+00
1.1954e+00
1.2107e+00
1.2314e+00
1.3190e+00
1.3147e+00
1.3429e+00
1.3783e+00
1.3622e+00
1.3971e+00
1.3812e+00
1.4152e+00
1.4011e+00
1.4347e+00
1.4202e+00
1.4534e+00
1.4404e+00
1.4766e+00
1.4582e+00
1.4943e+00
1.4770e+00
1.5180e+00
1.4953e+00
1.5364e+00
1.5130e+00
1.5543e+00
1.5286e+00
1.5701e+00
1.5454e+00
1.5871e+00
1.5602e+00
1.6022e+00
1.5747e+00
1.6169e+00
1.6065e+00
1.6372e+00
1.6201e+00
1.6501e+00
1.6331e+00
1.6673e+00
1.6459e+00
1.6797e+00
1.6570e+00
1.6906e+00
1.6680e+00
1.7013e+00
1.6775e+00
1.7105e+00
1.6882e+00
1.7209e+00
1.6974e+00
1.7299e+00
9.8999e-01
9.8647e-01
9.8999e-01
9.8647e-01
1.0072e+00
1.0510e+00
1.0332e+00
1.0707e+00
1.0501e+00
1.0937e+00
1.0723e+00
1.1396e+00
1.1304e+00
1.1547e+00
1.1824e+00
1.1950e+00
1.2103e+00
1.2309e+00
1.3184e+00
1.3142e+00
1.3423e+00
1.3777e+00
1.3616e+00
1.3966e+00
1.3807e+00
1.4147e+00
1.4005e+00
1.4341e+00
1.4197e+00
1.4529e+00
1.4399e+00
1.4761e+00
1.4577e+00
1.4939e+00
1.4766e+00
1.5175e+00
1.4948e+00
1.5360e+00
1.5126e+00
1.5539e+00
1.5282e+00
1.5697e+00
1.5450e+00
1.5867e+00
1.5598e+00
1.6018e+00
1.5743e+00
1.6165e+00
1.6060e+00
1.6368e+00
1.6196e+00
1.6497e+00
1.6326e+00
1.6669e+00
1.6454e+00
1.6793e+00
1.6566e+00
1.6902e+00
1.6676e+00
1.7009e+00
1.6770e+00
1.7101e+00
1.6877e+00
1.7205e+00
1.6970e+00
1.7295e+00
9.8932e-01
9.6027e-01
9.8932e-01
9.6027e-01
1.0066e+00
1.0504e+00
1.0327e+00
1.0702e+00
1.0496e+00
1.0933e+00
1.0718e+00
1.1391e+00
1.1299e+00
1.1542e+00
1.1819e+00
1.1945e+00
1.2098e+00
1.2304e+00
1.3178e+00
1.3137e+00
1.3417e+00
1.3771e+00
1.3611e+00
1.3960e+00
1.3801e+00
1.4142e+00
1.4000e+00
1.4336e+00
1.4191e+00
1.4524e+00
1.4394e+00
1.4756e+00
1.4572e+00
1.4934e+00
1.4761e+00
1.5171e+00
1.4944e+00
1.5355e+00
1.5121e+00
1.5535e+00
1.5278e+00
1.5693e+00
1.5446e+00
1.5863e+00
1.5594e+00
1.6014e+00
1.5739e+00
1.6161e+00
1.6056e+00
1.6364e+00
1.6192e+00
1.6493e+00
1.6322e+00
1.6666e+00
1.6449e+00
1.6790e+00
1.6561e+00
1.6898e+00
1.6671e+00
1.7005e+00