<?xml version="1.0"?>
<VTKFile type="StructuredGrid" version="0.1">
  <StructuredGrid WholeExtent="0 16 0 16 0 16">
    <Piece Extent="0 16 0 16 0 16">
      <PointData Scalars="temperature" Vectors="velocity">
        <DataArray type="Float32" Name="temperature" format="ascii">
1.000000e+00
5.062175e-01
4.984702e-01
4.999767e-01
5.000027e-01
5.000000e-01
5.000000e-01
5.000000e-01
5.000000e-01
5.000000e-01
5.000000e-01
5.000000e-01
4.999994e-01
4.999929e-01
4.992638e-01
4.925292e-01
0.000000e+00
1.000000e+00
5.017436e-01
4.985026e-01
4.999825e-01
5.000034e-01
5.000000e-01
5.000000e-01
5.000000e-01
5.000000e-01
5.000000e-01
5.000000e-01
5.000000e-01
4.999997e-01
4.999987e-01
5.000854e-01
5.020582e-01
0.000000e+00
1.000000e+00
5.022345e-01
4.989072e-01
4.999873e-01
5.000035e-01
5.000000e-01
5.000000e-01
5.000000e-01
5.000000e-01
5.000000e-01
5.000000e-01
5.000000e-01
5.000000e-01
5.000002e-01
5.000777e-01
5.008895e-01
0.000000e+00
1.000000e+00
5.034833e-01
4.989334e-01
4.999830e-01
5.000034e-01
5.000001e-01
5.000000e-01
5.000000e-01
5.000000e-01
5.000000e-01
5.000000e-01
5.000000e-01
5.000000e-01
5.000000e-01
4.999898e-01
5.001669e-01
0.000000e+00
1.000000e+00
5.049198e-01
4.986190e-01
4.999696e-01
5.000046e-01
5.000002e-01
5.000000e-01
5.000000e-01
5.000000e-01
5.000000e-01
5.000000e-01
5.000000e-01
5.000000e-01
5.000000e-01
4.999940e-01
5.001474e-01
0.000000e+00
1.000000e+00
5.067679e-01
4.979098e-01
4.999279e-01
5.000101e-01
5.000005e-01
5.000000e-01
5.000000e-01
5.000000e-01
5.000000e-01
5.000000e-01
5.000000e-01
5.000000e-01
5.000000e-01
5.000037e-01
5.000833e-01
0.000000e+00
1.000000e+00
5.094848e-01
4.964404e-01
4.998161e-01
5.000271e-01
5.000020e-01
4.999998e-01
5.000000e-01
5.000000e-01
5.000000e-01
5.000000e-01
5.000000e-01
5.000000e-01
5.000000e-01
5.000066e-01
5.001541e-01
0.000000e+00
1.000000e+00
5.117836e-01
4.952402e-01
4.996749e-01
5.000473e-01
5.000050e-01
4.999996e-01
4.999999e-01
5.000000e-01
5.000000e-01
5.000000e-01
5.000000e-01
5.000000e-01
5.000000e-01
4.999963e-01
5.002948e-01
0.000000e+00
1.000000e+00
5.112553e-01
4.959355e-01
4.996681e-01
5.000478e-01
5.000056e-01
4.999996e-01
4.999999e-01
5.000000e-01
5.000000e-01
5.000000e-01
5.000000e-01
5.000000e-01
4.999999e-01
4.999846e-01
5.004435e-01
0.000000e+00
1.000000e+00
5.105751e-01
4.972124e-01
4.998014e-01
5.000287e-01
5.000033e-01
4.999998e-01
5.000000e-01
5.000000e-01
5.000000e-01
5.000000e-01
5.000000e-01
5.000000e-01
4.999997e-01
5.000001e-01
5.003282e-01
0.000000e+00
1.000000e+00
5.076767e-01
4.976504e-01
4.998994e-01
5.000156e-01
5.000013e-01
4.999999e-01
5.000000e-01
5.000000e-01
5.000000e-01
5.000000e-01
5.000000e-01
5.000000e-01
4.999997e-01
5.000628e-01
4.999784e-01
0.000000e+00
1.000000e+00
5.047557e-01
4.978893e-01
4.999361e-01
5.000108e-01
5.000005e-01
5.000000e-01
5.000000e-01
5.000000e-01
5.000000e-01
5.000000e-01
5.000000e-01
4.999998e-01
5.000007e-01
5.001392e-01
4.994830e-01
0.000000e+00
1.000000e+00
5.032360e-01
4.983792e-01
4.999613e-01
5.000084e-01
5.000003e-01
5.000000e-01
5.000000e-01
5.000000e-01
5.000000e-01
5.000000e-01
5.000000e-01
4.999997e-01
5.000019e-01
5.001539e-01
4.994100e-01
0.000000e+00
1.000000e+00
5.026010e-01
4.987998e-01
4.999773e-01
5.000044e-01
5.000001e-01
5.000000e-01
5.000000e-01
5.000000e-01
5.000000e-01
5.000000e-01
5.000000e-01
4.999993e-01
5.000011e-01
5.001552e-01
4.992035e-01
0.000000e+00
1.000000e+00
5.027302e-01
4.988466e-01
4.999835e-01
5.000024e-01
5.000001e-01
5.000000e-01
5.000000e-01
5.000000e-01
5.000000e-01
5.000000e-01
4.999996e-01
4.999947e-01
5.000141e-01
5.002467e-01
4.993997e-01
0.000000e+00
1.000000e+00
5.040066e-01
4.985195e-01
4.999732e-01
5.000039e-01
5.000001e-01
5.000000e-01
5.000000e-01
5.000000e-01
5.000000e-01
5.000002e-01
4.999982e-01
4.999747e-01
5.001492e-01
5.022770e-01
4.951077e-01
0.000000e+00
1.000000e+00
5.065742e-01
4.981150e-01
4.999556e-01
5.000051e-01
5.000001e-01
5.000000e-01
5.000000e-01
5.000000e-01
5.000000e-01
5.000002e-01
4.999969e-01
4.999563e-01
5.003719e-01
5.058393e-01
4.819606e-01
0.000000e+00
1.000000e+00
5.047868e-01
4.991132e-01
4.999879e-01
5.000013e-01
5.000000e-01
5.000000e-01
5.000000e-01
5.000000e-01
5.000000e-01
5.000000e-01
5.000000e-01
4.999997e-01
4.999938e-01
4.992431e-01
4.924870e-01
0.000000e+00
1.000000e+00
5.004805e-01
4.990697e-01
4.999916e-01
5.000019e-01
5.000000e-01
5.000000e-01
5.000000e-01
5.000000e-01
5.000000e-01
5.000000e-01
5.000000e-01
4.999998e-01
4.999983e-01
5.000750e-01
5.020572e-01
0.000000e+00
1.000000e+00
5.013121e-01
4.993940e-01
4.999941e-01
5.000021e-01
5.000000e-01
5.000000e-01
5.000000e-01
5.000000e-01
5.000000e-01
5.000000e-01
5.000000e-01
5.000000e-01
4.999999e-01
5.000570e-01
5.008364e-01
0.000000e+00
1.000000e+00
5.029700e-01
4.993461e-01
4.999891e-01
5.000023e-01
5.000001e-01
5.000000e-01
5.000000e-01
5.000000e-01
5.000000e-01
5.000000e-01
5.000000e-01
5.000000e-01
4.999999e-01
4.999839e-01
5.001803e-01
0.000000e+00
1.000000e+00
5.046152e-01
4.989759e-01
4.999734e-01
5.000040e-01
5.000002e-01
5.000000e-01
5.000000e-01
5.000000e-01
5.000000e-01
5.000000e-01
5.000000e-01
4.999999e-01
4.999999e-01
4.999883e-01
5.001883e-01
0.000000e+00
1.000000e+00
5.065211e-01
4.982283e-01
4.999270e-01
5.000105e-01
5.000006e-01
4.999999e-01
5.000000e-01
5.000000e-01
5.000000e-01
5.000000e-01
5.000000e-01
4.999999e-01
4.999998e-01
5.000037e-01
5.000490e-01
0.000000e+00
1.000000e+00
5.091382e-01
4.967920e-01
4.998162e-01
5.000277e-01
5.000023e-01
4.999998e-01
5.000000e-01
5.000000e-01
5.000000e-01
5.000000e-01
5.000000e-01
4.999999e-01
4.999998e-01
5.000174e-01
5.000295e-01
0.000000e+00
1.000000e+00
5.112836e-01
4.957001e-01
4.996898e-01
5.000456e-01
5.000048e-01
4.999996e-01
4.999999e-01
5.000000e-01
5.000000e-01
5.000000e-01
5.000000e-01
4.999999e-01
4.999998e-01
5.000070e-01
5.002426e-01
0.000000e+00
1.000000e+00
5.107860e-01
4.963857e-01
4.996951e-01
5.000436e-01
5.000049e-01
4.999996e-01
5.000000e-01
5.000000e-01
5.000000e-01
5.000000e-01
5.000000e-01
4.999998e-01
4.999998e-01
4.999872e-01
5.003166e-01
0.000000e+00
1.000000e+00
5.098269e-01
4.976455e-01
4.998221e-01
5.000253e-01
5.000028e-01
4.999998e-01
5.000000e-01
5.000000e-01
5.000000e-01
5.000000e-01
5.000000e-01
4.999998e-01
4.999996e-01
5.000005e-01
5.001571e-01
0.000000e+00
1.000000e+00
5.067710e-01
4.980962e-01
4.999111e-01
5.000138e-01
5.000012e-01
4.999999e-01
5.000000e-01
5.000000e-01
5.000000e-01
5.000000e-01
5.000000e-01
4.999998e-01
4.999997e-01
5.000524e-01
4.999627e-01
0.000000e+00
1.000000e+00
5.043736e-01
4.982853e-01
4.999437e-01
5.000099e-01
5.000005e-01
5.000000e-01
5.000000e-01
5.000000e-01
5.000000e-01
5.000000e-01
5.000000e-01
4.999998e-01
5.000006e-01
5.001127e-01
4.995502e-01
0.000000e+00
1.000000e+00
5.031287e-01
4.986448e-01
4.999661e-01
5.000074e-01
5.000002e-01
5.000000e-01
5.000000e-01
5.000000e-01
5.000000e-01
5.000000e-01
5.000000e-01
4.999998e-01
5.000012e-01
5.001196e-01
4.995026e-01
0.000000e+00
1.000000e+00
5.026241e-01
4.989999e-01
4.999806e-01
5.000035e-01
5.000001e-01
5.000000e-01
5.000000e-01
5.000000e-01
5.000000e-01
5.000000e-01
5.000000e-01
4.999994e-01
5.000005e-01
5.001215e-01
4.993060e-01
0.000000e+00
1.000000e+00
5.027798e-01
4.991069e-01
4.999851e-01
5.000022e-01
5.000001e-01
5.000000e-01
5.000000e-01
5.000000e-01
5.000000e-01
5.000000e-01
4.999996e-01
4.999949e-01
5.000135e-01
5.002027e-01
4.994451e-01
0.000000e+00
1.000000e+00
5.036704e-01
4.988506e-01
4.999725e-01
5.000041e-01
5.000001e-01
5.000000e-01
5.000000e-01
5.000000e-01
5.000000e-01
5.000001e-01
4.999983e-01
4.999750e-01
5.001494e-01
5.022483e-01
4.951684e-01
0.000000e+00
1.000000e+00
5.057502e-01
4.984655e-01
4.999565e-01
5.000055e-01
5.000001e-01
5.000000e-01
5.000000e-01
5.000000e-01
5.000000e-01
5.000002e-01
4.999973e-01
4.999571e-01
5.003737e-01
5.059410e-01
4.819558e-01
0.000000e+00
1.000000e+00
5.042354e-01
4.995988e-01
4.999966e-01
5.000000e-01
5.000000e-01
5.000000e-01
5.000000e-01
5.000000e-01
5.000000e-01
5.000000e-01
5.000000e-01
5.000001e-01
4.999986e-01
4.994104e-01
4.936599e-01
0.000000e+00
1.000000e+00
4.995226e-01
4.994863e-01
4.999994e-01
5.000003e-01
5.000000e-01
5.000000e-01
5.000000e-01
5.000000e-01
5.000000e-01
5.000000e-01
5.000000e-01
5.000000e-01
4.999990e-01
5.000803e-01
5.021550e-01
0.000000e+00
1.000000e+00
4.999704e-01
4.998450e-01
5.000002e-01
5.000003e-01
5.000000e-01
5.000000e-01
5.000000e-01
5.000000e-01
5.000000e-01
5.000000e-01
5.000000e-01
5.000000e-01
4.999997e-01
5.000215e-01
5.006551e-01
0.000000e+00
1.000000e+00
5.021749e-01
4.998296e-01
4.999983e-01
5.000007e-01
5.000000e-01
5.000000e-01
5.000000e-01
5.000000e-01
5.000000e-01
5.000000e-01
5.000000e-01
4.999999e-01
4.999998e-01
4.999774e-01
5.001563e-01
0.000000e+00
1.000000e+00
5.042932e-01
4.994042e-01
4.999827e-01
5.000023e-01
5.000001e-01
5.000000e-01
5.000000e-01
5.000000e-01
5.000000e-01
5.000000e-01
5.000001e-01
4.999998e-01
5.000006e-01
5.000072e-01
5.000991e-01
0.000000e+00
1.000000e+00
5.064608e-01
4.985432e-01
4.999288e-01
5.000100e-01
5.000008e-01
4.999999e-01
5.000000e-01
5.000000e-01
5.000000e-01
5.000001e-01
5.000005e-01
4.999998e-01
5.000043e-01
5.000801e-01
4.999328e-01
0.000000e+00
1.000000e+00
5.089404e-01
4.971692e-01
4.998239e-01
5.000269e-01
5.000026e-01
4.999998e-01
5.000000e-01
5.000000e-01
5.000000e-01
5.000002e-01
5.000010e-01
5.000005e-01
5.000098e-01
5.001667e-01
4.999074e-01
0.000000e+00
1.000000e+00
5.106019e-01
4.963394e-01
4.997313e-01
5.000398e-01
5.000041e-01
4.999997e-01
5.000000e-01
5.000000e-01
5.000000e-01
5.000002e-01
5.000010e-01
5.000008e-01
5.000125e-01
5.001875e-01
4.999497e-01
0.000000e+00
1.000000e+00
5.101882e-01
4.970577e-01
4.997590e-01
5.000333e-01
5.000033e-01
4.999998e-01
5.000000e-01
5.000000e-01
5.000000e-01
5.000002e-01
5.000006e-01
5.000001e-01
5.000095e-01
5.001378e-01
5.000301e-01
0.000000e+00
1.000000e+00
5.084250e-01
4.982417e-01
4.998700e-01
5.000174e-01
5.000017e-01
4.999999e-01
5.000000e-01
5.000000e-01
5.000000e-01
5.000001e-01
5.000003e-01
4.999995e-01
5.000043e-01
5.000935e-01
4.999821e-01
0.000000e+00
1.000000e+00
5.054805e-01
4.987712e-01
4.999405e-01
5.000094e-01
5.000008e-01
4.999999e-01
5.000000e-01
5.000000e-01
5.000000e-01
5.000000e-01
5.000001e-01
4.999995e-01
5.000011e-01
5.000813e-01
4.998385e-01
0.000000e+00
1.000000e+00
5.037584e-01
4.989923e-01
4.999649e-01
5.000065e-01
5.000004e-01
5.000000e-01
5.000000e-01
5.000000e-01
5.000000e-01
5.000000e-01
5.000000e-01
4.999997e-01
5.000005e-01
5.000920e-01
4.995939e-01
0.000000e+00
1.000000e+00
5.028745e-01
4.991780e-01
4.999778e-01
5.000044e-01
5.000002e-01
5.000000e-01
5.000000e-01
5.000000e-01
5.000000e-01
5.000000e-01
5.000000e-01
4.999999e-01
5.000004e-01
5.000766e-01
4.996595e-01
0.000000e+00
1.000000e+00
5.026324e-01
4.993295e-01
4.999853e-01
5.000023e-01
5.000001e-01
5.000000e-01
5.000000e-01
5.000000e-01
5.000000e-01
5.000000e-01
5.000000e-01
4.999997e-01
4.999999e-01
5.000751e-01
4.994701e-01
0.000000e+00
1.000000e+00
5.029868e-01
4.992763e-01
4.999830e-01
5.000027e-01
5.000001e-01
5.000000e-01
5.000000e-01
5.000000e-01
5.000000e-01
5.000000e-01
4.999998e-01
4.999958e-01
5.000110e-01
5.001369e-01
4.995590e-01
0.000000e+00
1.000000e+00
5.041750e-01
4.988282e-01
4.999646e-01
5.000053e-01
5.000002e-01
5.000000e-01
5.000000e-01
5.000000e-01
5.000000e-01
5.000001e-01
4.999989e-01
4.999784e-01
5.001386e-01
5.021636e-01
4.953551e-01
0.000000e+00
1.000000e+00
5.061278e-01
4.983820e-01
4.999489e-01
5.000067e-01
5.000002e-01
5.000000e-01
5.000000e-01
5.000000e-01
5.000000e-01
5.000001e-01
4.999981e-01
4.999618e-01
5.003544e-01
5.059616e-01
4.821304e-01
0.000000e+00
1.000000e+00
5.036884e-01
4.998547e-01
5.000001e-01
4.999999e-01
5.000000e-01
5.000000e-01
5.000000e-01
5.000000e-01
5.000000e-01
5.000000e-01
5.000000e-01
5.000001e-01
4.999998e-01
4.996219e-01
4.954373e-01
0.000000e+00
1.000000e+00
4.988800e-01
4.996786e-01
5.000025e-01
4.999999e-01
5.000000e-01
5.000000e-01
5.000000e-01
5.000000e-01
5.000000e-01
5.000000e-01
5.000000e-01
5.000000e-01
4.999994e-01
5.000683e-01
5.022648e-01
0.000000e+00
1.000000e+00
4.987365e-01
5.000396e-01
5.000014e-01
4.999998e-01
5.000000e-01
5.000000e-01
5.000000e-01
5.000000e-01
5.000000e-01
5.000000e-01
5.000001e-01
5.000002e-01
5.000001e-01
4.999961e-01
5.003839e-01
0.000000e+00
1.000000e+00
5.011889e-01
5.000936e-01
5.000026e-01
5.000000e-01
5.000000e-01
5.000000e-01
5.000000e-01
5.000000e-01
5.000000e-01
5.000001e-01
5.000010e-01
5.000022e-01
5.000074e-01
5.000449e-01
4.999823e-01
0.000000e+00
1.000000e+00
5.037583e-01
4.996385e-01
4.999932e-01
5.000006e-01
5.000001e-01
5.000000e-01
5.000000e-01
5.000000e-01
4.999999e-01
5.000005e-01
5.000043e-01
5.000100e-01
5.000411e-01
5.003134e-01
4.998427e-01
0.000000e+00
1.000000e+00
5.062152e-01
4.986889e-01
4.999383e-01
5.000078e-01
5.000008e-01
5.000001e-01
5.000000e-01
4.999999e-01
4.999995e-01
5.000015e-01
5.000110e-01
5.000274e-01
5.001115e-01
5.007908e-01
4.995482e-01
0.000000e+00
1.000000e+00
5.083857e-01
4.974621e-01
4.998445e-01
5.000231e-01
5.000024e-01
5.000001e-01
4.999999e-01
4.999997e-01
4.999990e-01
5.000016e-01
5.000160e-01
5.000443e-01
5.001786e-01
5.012187e-01
4.992441e-01
0.000000e+00
1.000000e+00
5.095285e-01
4.969205e-01
4.997856e-01
5.000321e-01
5.000031e-01
5.000001e-01
4.999999e-01
4.999997e-01
4.999991e-01
5.000017e-01
5.000169e-01
5.000498e-01
5.002063e-01
5.013562e-01
4.993053e-01
0.000000e+00
1.000000e+00
5.092204e-01
4.976847e-01
4.998308e-01
5.000238e-01
5.000020e-01
5.000000e-01
5.000001e-01
4.999998e-01
4.999995e-01
5.000021e-01
5.000145e-01
5.000412e-01
5.001857e-01
5.011893e-01
4.993550e-01
0.000000e+00
1.000000e+00
5.067995e-01
4.987149e-01
4.999209e-01
5.000104e-01
5.000009e-01
5.000000e-01
5.000001e-01
5.000000e-01
4.999999e-01
5.000017e-01
5.000087e-01
5.000213e-01
5.001092e-01
5.007904e-01
4.993484e-01
0.000000e+00
1.000000e+00
5.044736e-01
4.992933e-01
4.999712e-01
5.000047e-01
5.000004e-01
5.000000e-01
5.000000e-01
5.000001e-01
5.000001e-01
5.000006e-01
5.000028e-01
5.000057e-01
5.000360e-01
5.003843e-01
4.995315e-01
0.000000e+00
1.000000e+00
5.030892e-01
4.995314e-01
4.999861e-01
5.000025e-01
5.000002e-01
5.000000e-01
5.000000e-01
5.000000e-01
5.000000e-01
5.000001e-01
5.000005e-01
5.000005e-01
5.000065e-01
5.001777e-01
4.995061e-01
0.000000e+00
1.000000e+00
5.024277e-01
4.995793e-01
4.999908e-01
5.000013e-01
5.000001e-01
5.000000e-01
5.000000e-01
5.000000e-01
5.000000e-01
5.000000e-01
5.000000e-01
4.999999e-01
5.000008e-01
5.000829e-01
4.997078e-01
0.000000e+00
1.000000e+00
5.024956e-01
4.995110e-01
4.999909e-01
5.000013e-01
5.000000e-01
5.000000e-01
5.000000e-01
5.000000e-01
5.000000e-01
5.000000e-01
5.000000e-01
4.999998e-01
5.000000e-01
5.000666e-01
4.995368e-01
0.000000e+00
1.000000e+00
5.032157e-01
4.992296e-01
4.999817e-01
5.000031e-01
5.000001e-01
5.000000e-01
5.000000e-01
5.000000e-01
5.000000e-01
5.000000e-01
4.999998e-01
4.999966e-01
5.000091e-01
5.001207e-01
4.996235e-01
0.000000e+00
1.000000e+00
5.047875e-01
4.985853e-01
4.999563e-01
5.000064e-01
5.000003e-01
5.000000e-01
5.000000e-01
5.000000e-01
5.000000e-01
5.000001e-01
4.999993e-01
4.999820e-01
5.001226e-01
5.020683e-01
4.955473e-01
0.000000e+00
1.000000e+00
5.064271e-01
4.980965e-01
4.999385e-01
5.000081e-01
5.000003e-01
5.000000e-01
5.000000e-01
5.000000e-01
5.000000e-01
5.000001e-01
4.999987e-01
4.999671e-01
5.003206e-01
5.057591e-01
4.825440e-01
0.000000e+00
1.000000e+00
5.031859e-01
5.000047e-01
5.000030e-01
4.999999e-01
5.000000e-01
5.000000e-01
5.000000e-01
5.000000e-01
5.000000e-01
5.000000e-01
5.000000e-01
5.000000e-01
4.999990e-01
4.996539e-01
4.963748e-01
0.000000e+00
1.000000e+00
4.984206e-01
4.998103e-01
5.000041e-01
4.999998e-01
5.000000e-01
5.000000e-01
5.000000e-01
5.000000e-01
5.000000e-01
5.000000e-01
5.000001e-01
4.999999e-01
4.999993e-01
5.000426e-01
5.023671e-01
0.000000e+00
1.000000e+00
4.976722e-01
5.001476e-01
5.000009e-01
4.999997e-01
5.000000e-01
5.000000e-01
5.000000e-01
5.000000e-01
5.000000e-01
5.000003e-01
5.000018e-01
5.000028e-01
5.000099e-01
5.000808e-01
5.000798e-01
0.000000e+00
1.000000e+00
4.999023e-01
5.002607e-01
5.000019e-01
5.000000e-01
5.000000e-01
5.000001e-01
5.000002e-01
5.000003e-01
5.000002e-01
5.000013e-01
5.000057e-01
5.000002e-01
5.000348e-01
5.004954e-01
4.995393e-01
0.000000e+00
1.000000e+00
5.026303e-01
4.998315e-01
5.000018e-01
4.999997e-01
5.000000e-01
5.000005e-01
5.000015e-01
5.000011e-01
5.000002e-01
5.000063e-01
5.000026e-01
4.999177e-01
4.999013e-01
5.010518e-01
4.977761e-01
0.000000e+00
1.000000e+00
5.052804e-01
4.989015e-01
4.999572e-01
5.000049e-01
5.000006e-01
5.000014e-01
5.000050e-01
4.999983e-01
4.999948e-01
5.000091e-01
4.999873e-01
4.996693e-01
4.992660e-01
5.005557e-01
4.932211e-01
0.000000e+00
1.000000e+00
5.071865e-01
4.978517e-01
4.998777e-01
5.000171e-01
5.000019e-01
5.000024e-01
5.000121e-01
4.999896e-01
4.999831e-01
4.999919e-01
5.000268e-01
4.994287e-01
4.984316e-01
4.991806e-01
4.882077e-01
0.000000e+00
1.000000e+00
5.083758e-01
4.975075e-01
4.998469e-01
5.000238e-01
5.000024e-01
5.000016e-01
5.000119e-01
4.999895e-01
4.999794e-01
4.999731e-01
5.000809e-01
4.993870e-01
4.981052e-01
4.983744e-01
4.864509e-01
0.000000e+00
1.000000e+00
5.074561e-01
4.982852e-01
4.998989e-01
5.000158e-01
5.000013e-01
5.000011e-01
5.000050e-01
4.999992e-01
4.999908e-01
4.999856e-01
5.000245e-01
4.994849e-01
4.985031e-01
4.991450e-01
4.894321e-01
0.000000e+00
1.000000e+00
5.049241e-01
4.991782e-01
4.999646e-01
5.000048e-01
5.000004e-01
5.000005e-01
5.000012e-01
5.000018e-01
5.000017e-01
5.000023e-01
4.999950e-01
4.997429e-01
4.994149e-01
5.005629e-01
4.944659e-01
0.000000e+00
1.000000e+00
5.031723e-01
4.997171e-01
4.999935e-01
5.000011e-01
5.000001e-01
5.000001e-01
5.000003e-01
5.000007e-01
5.000015e-01
5.000051e-01
5.000054e-01
4.999496e-01
4.999546e-01
5.009091e-01
4.977946e-01
0.000000e+00
1.000000e+00
5.020074e-01
4.998900e-01
4.999988e-01
5.000003e-01
5.000000e-01
5.000000e-01
5.000001e-01
5.000001e-01
5.000000e-01
5.000007e-01
5.000033e-01
5.000007e-01
5.000334e-01
5.005196e-01
4.989646e-01
0.000000e+00
1.000000e+00
5.015740e-01
4.998338e-01
4.999993e-01
5.000000e-01
5.000000e-01
5.000000e-01
5.000000e-01
5.000000e-01
5.000000e-01
5.000001e-01
5.000006e-01
5.000006e-01
5.000084e-01
5.001998e-01
4.994638e-01
0.000000e+00
1.000000e+00
5.019620e-01
4.996244e-01
4.999968e-01
5.000005e-01
5.000000e-01
5.000000e-01
5.000000e-01
5.000000e-01
5.000000e-01
5.000000e-01
5.000000e-01
4.999995e-01
5.000009e-01
5.001143e-01
4.993616e-01
0.000000e+00
1.000000e+00
5.030707e-01
4.992072e-01
4.999847e-01
5.000029e-01
5.000001e-01
5.000000e-01
5.000000e-01
5.000000e-01
5.000000e-01
5.000000e-01
4.999998e-01
4.999966e-01
5.000097e-01
5.001606e-01
4.995283e-01
0.000000e+00
1.000000e+00
5.048174e-01
4.984976e-01
4.999570e-01
5.000066e-01
5.000002e-01
5.000000e-01
5.000000e-01
5.000000e-01
5.000000e-01
5.000000e-01
4.999993e-01
4.999839e-01
5.001168e-01
5.020915e-01
4.955482e-01
0.000000e+00
1.000000e+00
5.061206e-01
4.980279e-01
4.999392e-01
5.000084e-01
5.000003e-01
5.000000e-01
5.000000e-01
5.000000e-01
5.000000e-01
5.000001e-01
4.999988e-01
4.999721e-01
5.003027e-01
5.057168e-01
4.827759e-01
0.000000e+00
1.000000e+00
5.020146e-01
5.000389e-01
5.000036e-01
5.000001e-01
5.000000e-01
5.000000e-01
5.000000e-01
5.000000e-01
5.000000e-01
5.000000e-01
4.999999e-01
4.999997e-01
4.999974e-01
4.995448e-01
4.961735e-01
0.000000e+00
1.000000e+00
4.979505e-01
4.998859e-01
5.000038e-01
5.000000e-01
5.000000e-01
5.000000e-01
5.000000e-01
5.000000e-01
5.000000e-01
5.000002e-01
5.000008e-01
5.000001e-01
5.000005e-01
5.000453e-01
5.023346e-01
0.000000e+00
1.000000e+00
4.968186e-01
5.001853e-01
5.000000e-01
4.999999e-01
5.000000e-01
5.000000e-01
5.000000e-01
4.999999e-01
4.999999e-01
5.000022e-01
5.000095e-01
5.000141e-01
5.000653e-01
5.004887e-01
4.997493e-01
0.000000e+00
1.000000e+00
4.984382e-01
5.003364e-01
4.999983e-01
5.000001e-01
5.000000e-01
5.000002e-01
5.000009e-01
5.000006e-01
4.999993e-01
5.000107e-01
4.999991e-01
4.998800e-01
4.998946e-01
5.014232e-01
4.972776e-01
0.000000e+00
1.000000e+00
5.010371e-01
4.999690e-01
5.000044e-01
4.999995e-01
5.000001e-01
5.000016e-01
5.000056e-01
5.000257e-01
5.000792e-01
5.001251e-01
4.999362e-01
4.991950e-01
4.982592e-01
4.996386e-01
4.895074e-01
0.000000e+00
1.000000e+00
5.038323e-01
4.991012e-01
4.999739e-01
5.000031e-01
5.000007e-01
5.000058e-01
5.000253e-01
5.002289e-01
5.003802e-01
5.001931e-01
5.000747e-01
4.985693e-01
4.956616e-01
4.949428e-01
4.825270e-01
0.000000e+00
1.000000e+00
5.058530e-01
4.981689e-01
4.999090e-01
5.000120e-01
5.000021e-01
5.000119e-01
5.000452e-01
5.006700e-01
5.003562e-01
4.995495e-01
4.994801e-01
4.996640e-01
4.963312e-01
4.935415e-01
4.801404e-01
0.000000e+00
1.000000e+00
5.072706e-01
4.979411e-01
4.999015e-01
5.000154e-01
5.000021e-01
5.000087e-01
5.000089e-01
5.006011e-01
5.004609e-01
4.993156e-01
4.981966e-01
4.998489e-01
4.968743e-01
4.939424e-01
4.790578e-01
0.000000e+00
1.000000e+00
5.050730e-01
4.987569e-01
4.999519e-01
5.000085e-01
5.000012e-01
5.000061e-01
5.000080e-01
5.001884e-01
5.006233e-01
5.002914e-01
4.998878e-01
4.992945e-01
4.958280e-01
4.930793e-01
4.768990e-01
0.000000e+00
1.000000e+00
5.028480e-01
4.996070e-01
4.999920e-01
5.000013e-01
5.000004e-01
5.000025e-01
5.000047e-01
5.000221e-01
5.001586e-01
5.003913e-01
5.001747e-01
4.986291e-01
4.957189e-01
4.951169e-01
4.816809e-01
0.000000e+00
1.000000e+00
5.014461e-01
5.000298e-01
5.000024e-01
4.999998e-01
5.000001e-01
5.000005e-01
5.000018e-01
5.000029e-01
4.999914e-01
5.000418e-01
4.999828e-01
4.993525e-01
4.984574e-01
4.993073e-01
4.913046e-01
0.000000e+00
1.000000e+00
5.006140e-01
5.001067e-01
5.000017e-01
4.999999e-01
5.000000e-01
5.000001e-01
5.000002e-01
5.000005e-01
5.000010e-01
5.000057e-01
5.000036e-01
4.999354e-01
4.999233e-01
5.008491e-01
4.971991e-01
0.000000e+00
1.000000e+00
5.004912e-01
4.999890e-01
5.000017e-01
4.999997e-01
5.000000e-01
5.000000e-01
5.000000e-01
5.000000e-01
5.000000e-01
5.000008e-01
5.000043e-01
5.000078e-01
5.000478e-01
5.004919e-01
4.989177e-01
0.000000e+00
1.000000e+00
5.011302e-01
4.997403e-01
5.000008e-01
5.000001e-01
5.000000e-01
5.000000e-01
5.000000e-01
5.000000e-01
5.000000e-01
5.000001e-01
5.000001e-01
4.999985e-01
5.000050e-01
5.002293e-01
4.989753e-01
0.000000e+00
1.000000e+00
5.024145e-01
4.993258e-01
4.999916e-01
5.000021e-01
5.000000e-01
5.000000e-01
5.000000e-01
5.000000e-01
5.000000e-01
5.000000e-01
4.999998e-01
4.999956e-01
5.000129e-01
5.002422e-01
4.992984e-01
0.000000e+00
1.000000e+00
5.038737e-01
4.987028e-01
4.999711e-01
5.000053e-01
5.000001e-01
5.000000e-01
5.000000e-01
5.000000e-01
5.000000e-01
5.000001e-01
4.999993e-01
4.999834e-01
5.001197e-01
5.021868e-01
4.953944e-01
0.000000e+00
1.000000e+00
5.046359e-01
4.983301e-01
4.999589e-01
5.000068e-01
5.000001e-01
5.000000e-01
5.000000e-01
5.000000e-01
5.000000e-01
5.000001e-01
4.999988e-01
4.999722e-01
5.002961e-01
5.057850e-01
4.827436e-01
0.000000e+00
1.000000e+00
5.008239e-01
4.999968e-01
5.000010e-01
5.000002e-01
5.000000e-01
5.000000e-01
5.000000e-01
5.000000e-01
5.000000e-01
4.999999e-01
4.999998e-01
4.999990e-01
4.999943e-01
4.994181e-01
4.954775e-01
0.000000e+00
1.000000e+00
4.973185e-01
4.998738e-01
5.000016e-01
5.000002e-01
5.000000e-01
5.000000e-01
5.000000e-01
5.000000e-01
5.000000e-01
5.000007e-01
5.000026e-01
5.000013e-01
5.000083e-01
5.001215e-01
5.022449e-01
0.000000e+00
1.000000e+00
4.963466e-01
5.001160e-01
5.000006e-01
5.000000e-01
4.999999e-01
5.000001e-01
5.000004e-01
4.999996e-01
4.999990e-01
5.000069e-01
5.000257e-01
5.000346e-01
5.001886e-01
5.013690e-01
4.992611e-01
0.000000e+00
1.000000e+00
4.974482e-01
5.002808e-01
4.999980e-01
5.000000e-01
4.999998e-01
5.000002e-01
5.000031e-01
4.999964e-01
4.999952e-01
5.000419e-01
4.999462e-01
4.994737e-01
4.991342e-01
5.015548e-01
4.900512e-01
0.000000e+00
1.000000e+00
4.997593e-01
4.999620e-01
5.000037e-01
4.999997e-01
5.000001e-01
5.000026e-01
5.000206e-01
5.001559e-01
5.002054e-01
5.000399e-01
4.999106e-01
4.984396e-01
4.954908e-01
4.950989e-01
4.769265e-01
0.000000e+00
1.000000e+00
5.027606e-01
4.991528e-01
4.999795e-01
5.000031e-01
5.000014e-01
5.000183e-01
5.000815e-01
5.011812e-01
5.021043e-01
5.010862e-01
5.007576e-01
5.030765e-01
5.159864e-01
5.190653e-01
4.940735e-01
0.000000e+00
1.000000e+00
5.053820e-01
4.982900e-01
4.999265e-01
5.000093e-01
5.000018e-01
5.000417e-01
5.002174e-01
5.023374e-01
5.091322e-01
4.933235e-01
4.882144e-01
4.991302e-01
5.339999e-01
5.686018e-01
5.469470e-01
0.000000e+00
1.000000e+00
5.060172e-01
4.981753e-01
4.999361e-01
5.000093e-01
4.999983e-01
5.000312e-01
5.003738e-01
5.008724e-01
5.112356e-01
4.929278e-01
4.819686e-01
4.989675e-01
5.313478e-01
5.814137e-01
5.900792e-01
0.000000e+00
1.000000e+00
5.027679e-01
4.990536e-01
4.999821e-01
5.000039e-01
4.999992e-01
5.000189e-01
5.001989e-01
5.009212e-01
5.010331e-01
5.085925e-01
4.898875e-01
4.974803e-01
5.326334e-01
5.629020e-01
5.465274e-01
0.000000e+00
1.000000e+00
5.007407e-01
4.998815e-01
5.000020e-01
5.000000e-01
5.000003e-01
5.000069e-01
5.000408e-01
5.004229e-01
5.000129e-01
5.013596e-01
5.013382e-01
5.026737e-01
5.137350e-01
5.159582e-01
4.898454e-01
0.000000e+00
1.000000e+00
4.997925e-01
5.002113e-01
5.000019e-01
4.999998e-01
5.000002e-01
5.000014e-01
5.000034e-01
5.000313e-01
5.001372e-01
5.003315e-01
5.000324e-01
4.983134e-01
4.955144e-01
4.948401e-01
4.825206e-01
0.000000e+00
1.000000e+00
4.995113e-01
5.002055e-01
5.000009e-01
5.000000e-01
5.000000e-01
5.000002e-01
5.000005e-01
5.000009e-01
5.000021e-01
5.000163e-01
4.999653e-01
4.996315e-01
4.992212e-01
5.001708e-01
4.936320e-01
0.000000e+00
1.000000e+00
4.996140e-01
5.000627e-01
5.000018e-01
4.999997e-01
5.000000e-01
5.000000e-01
5.000001e-01
5.000000e-01
5.000001e-01
5.000032e-01
5.000146e-01
5.000302e-01
5.001309e-01
5.008710e-01
4.983180e-01
0.000000e+00
1.000000e+00
5.002785e-01
4.998441e-01
5.000027e-01
4.999999e-01
5.000000e-01
5.000000e-01
5.000000e-01
5.000000e-01
5.000000e-01
5.000002e-01
5.000005e-01
4.999979e-01
5.000158e-01
5.003667e-01
4.987029e-01
0.000000e+00
1.000000e+00
5.014216e-01
4.995306e-01
4.999993e-01
5.000009e-01
5.000000e-01
5.000000e-01
5.000000e-01
5.000000e-01
5.000000e-01
5.000000e-01
4.999996e-01
4.999945e-01
5.000161e-01
5.003105e-01
4.991222e-01
0.000000e+00
1.000000e+00
5.026619e-01
4.991042e-01
4.999896e-01
5.000026e-01
5.000000e-01
5.000000e-01
5.000000e-01
5.000000e-01
5.000000e-01
5.000001e-01
4.999993e-01
4.999830e-01
5.001204e-01
5.022054e-01
4.953524e-01
0.000000e+00
1.000000e+00
5.032642e-01
4.988655e-01
4.999840e-01
5.000033e-01
5.000000e-01
5.000000e-01
5.000000e-01
5.000000e-01
5.000000e-01
5.000001e-01
4.999989e-01
4.999722e-01
5.002869e-01
5.057278e-01
4.827881e-01
0.000000e+00
1.000000e+00
5.003665e-01
4.999456e-01
4.999984e-01
5.000001e-01
5.000000e-01
5.000000e-01
5.000000e-01
5.000000e-01
5.000000e-01
5.000000e-01
4.999997e-01
4.999984e-01
4.999914e-01
4.993569e-01
4.950656e-01
0.000000e+00
1.000000e+00
4.971991e-01
4.998253e-01
4.999996e-01
5.000001e-01
5.000000e-01
5.000000e-01
5.000001e-01
4.999999e-01
5.000000e-01
5.000013e-01
5.000050e-01
5.000039e-01
5.000256e-01
5.002674e-01
5.021535e-01
0.000000e+00
1.000000e+00
4.960264e-01
4.999755e-01
5.000015e-01
5.000001e-01
4.999998e-01
5.000007e-01
5.000010e-01
4.999993e-01
4.999957e-01
5.000082e-01
5.000388e-01
5.000513e-01
5.003061e-01
5.021946e-01
4.987366e-01
0.000000e+00
1.000000e+00
4.973265e-01
5.001368e-01
5.000000e-01
5.000000e-01
4.999994e-01
5.000008e-01
5.000155e-01
4.999696e-01
4.999938e-01
5.000669e-01
4.999230e-01
4.990771e-01
4.980282e-01
5.001929e-01
4.798436e-01
0.000000e+00
1.000000e+00
4.998474e-01
4.998856e-01
5.000025e-01
4.999996e-01
5.000002e-01
5.000031e-01
5.000599e-01
5.004743e-01
4.999249e-01
4.998956e-01
5.011734e-01
4.998474e-01
4.960451e-01
4.932291e-01
4.773586e-01
0.000000e+00
1.000000e+00
5.030916e-01
4.991365e-01
4.999755e-01
5.000026e-01
5.000018e-01
5.000326e-01
5.001805e-01
5.021701e-01
5.057664e-01
4.900286e-01
4.898479e-01
5.037787e-01
5.405388e-01
5.706137e-01
5.575656e-01
0.000000e+00
1.000000e+00
5.056276e-01
4.983402e-01
4.999292e-01
5.000061e-01
4.999958e-01
5.000771e-01
5.007142e-01
5.043601e-01
5.142157e-01
5.551504e-01
6.185145e-01
6.785280e-01
7.230769e-01
7.547396e-01
6.159170e-01
0.000000e+00
1.000000e+00
5.045247e-01
4.983823e-01
4.999521e-01
5.000031e-01
4.999826e-01
5.000797e-01
5.014644e-01
5.073548e-01
4.978727e-01
5.557973e-01
6.151896e-01
6.927556e-01
7.450750e-01
7.663564e-01
7.373426e-01
0.000000e+00
1.000000e+00
5.010531e-01
4.992633e-01
4.999964e-01
5.000003e-01
4.999892e-01
5.000472e-01
5.008255e-01
5.034305e-01
5.073494e-01
4.801530e-01
5.640067e-01
6.444726e-01
7.066516e-01
7.449563e-01
6.322858e-01
0.000000e+00
1.000000e+00
4.991223e-01
5.000149e-01
5.000048e-01
4.999996e-01
4.999985e-01
5.000131e-01
5.001933e-01
5.009159e-01
5.016863e-01
5.074543e-01
4.909251e-01
5.013501e-01
5.411955e-01
5.674775e-01
5.417010e-01
0.000000e+00
1.000000e+00
4.984664e-01
5.003086e-01
4.999994e-01
4.999999e-01
5.000003e-01
5.000041e-01
4.999983e-01
5.001855e-01
5.005763e-01
5.005842e-01
5.005924e-01
4.986032e-01
4.953141e-01
4.928821e-01
4.787131e-01
0.000000e+00
1.000000e+00
4.985848e-01
5.002675e-01
4.999998e-01
5.000000e-01
5.000001e-01
5.000003e-01
5.000019e-01
5.000024e-01
5.000011e-01
5.000295e-01
4.999003e-01
4.992006e-01
4.980906e-01
4.984656e-01
4.894895e-01
0.000000e+00
1.000000e+00
4.990493e-01
5.000999e-01
5.000017e-01
4.999997e-01
5.000000e-01
5.000001e-01
5.000001e-01
5.000000e-01
5.000000e-01
5.000061e-01
5.000270e-01
5.000569e-01
5.002060e-01
5.011291e-01
4.979778e-01
0.000000e+00
1.000000e+00
4.997110e-01
4.999192e-01
5.000032e-01
4.999998e-01
5.000000e-01
5.000000e-01
5.000000e-01
5.000000e-01
5.000000e-01
5.000003e-01
5.000013e-01
4.999991e-01
5.000279e-01
5.004495e-01
4.987203e-01
0.000000e+00
1.000000e+00
5.005537e-01
4.997342e-01
5.000035e-01
5.000002e-01
5.000000e-01
5.000000e-01
5.000000e-01
5.000000e-01
5.000000e-01
5.000000e-01
4.999996e-01
4.999940e-01
5.000167e-01
5.003185e-01
4.991464e-01
0.000000e+00
1.000000e+00
5.014076e-01
4.995077e-01
5.000017e-01
5.000007e-01
5.000000e-01
5.000000e-01
5.000000e-01