<?xml version="1.0"?>
<VTKFile type="StructuredGrid" version="0.1">
  <StructuredGrid WholeExtent="0 16 0 16 0 16">
    <Piece Extent="0 16 0 16 0 16">
      <PointData Scalars="temperature" Vectors="velocity">
        <DataArray type="Float32" Name="temperature" format="ascii">
1.000000e+00
5.102092e-01
4.960562e-01
4.998284e-01
5.000242e-01
5.000015e-01
4.999999e-01
5.000000e-01
5.000000e-01
5.000000e-01
5.000000e-01
5.000000e-01
4.999992e-01
4.999892e-01
4.989940e-01
4.914175e-01
0.000000e+00
1.000000e+00
5.085408e-01
4.969524e-01
4.998672e-01
5.000188e-01
5.000011e-01
4.999999e-01
5.000000e-01
5.000000e-01
5.000000e-01
5.000000e-01
5.000000e-01
4.999998e-01
5.000005e-01
5.000760e-01
5.028853e-01
0.000000e+00
1.000000e+00
5.062728e-01
4.982309e-01
4.999353e-01
5.000089e-01
5.000005e-01
5.000000e-01
5.000000e-01
5.000000e-01
5.000000e-01
5.000000e-01
5.000000e-01
5.000000e-01
4.999997e-01
4.999451e-01
5.010817e-01
0.000000e+00
1.000000e+00
5.043166e-01
4.989514e-01
4.999715e-01
5.000042e-01
5.000001e-01
5.000000e-01
5.000000e-01
5.000000e-01
5.000000e-01
5.000000e-01
5.000000e-01
5.000001e-01
4.999995e-01
4.999518e-01
5.000285e-01
0.000000e+00
1.000000e+00
5.035732e-01
4.989491e-01
4.999768e-01
5.000027e-01
5.000001e-01
5.000000e-01
5.000000e-01
5.000000e-01
5.000000e-01
5.000000e-01
5.000000e-01
5.000000e-01
4.999996e-01
5.000106e-01
4.998698e-01
0.000000e+00
1.000000e+00
5.041338e-01
4.984391e-01
4.999765e-01
5.000026e-01
5.000000e-01
5.000000e-01
5.000000e-01
5.000000e-01
5.000000e-01
5.000000e-01
5.000000e-01
5.000000e-01
5.000000e-01
5.000309e-01
4.998557e-01
0.000000e+00
1.000000e+00
5.039558e-01
4.986390e-01
4.999739e-01
5.000033e-01
5.000000e-01
5.000000e-01
5.000000e-01
5.000000e-01
5.000000e-01
5.000000e-01
5.000000e-01
4.999999e-01
5.000002e-01
5.000378e-01
4.998894e-01
0.000000e+00
1.000000e+00
5.036941e-01
4.990677e-01
4.999794e-01
5.000024e-01
5.000000e-01
5.000000e-01
5.000000e-01
5.000000e-01
5.000000e-01
5.000000e-01
5.000000e-01
4.999999e-01
5.000001e-01
5.000377e-01
4.999190e-01
0.000000e+00
1.000000e+00
5.030917e-01
4.994039e-01
4.999894e-01
5.000013e-01
5.000000e-01
5.000000e-01
5.000000e-01
5.000000e-01
5.000000e-01
5.000000e-01
5.000000e-01
4.999999e-01
5.000000e-01
5.000227e-01
5.000869e-01
0.000000e+00
1.000000e+00
5.018553e-01
4.996831e-01
4.999970e-01
5.000004e-01
5.000000e-01
5.000000e-01
5.000000e-01
5.000000e-01
5.000000e-01
5.000000e-01
5.000000e-01
5.000000e-01
5.000000e-01
5.000036e-01
5.001547e-01
0.000000e+00
1.000000e+00
5.002124e-01
4.998039e-01
4.999999e-01
5.000001e-01
5.000000e-01
5.000000e-01
5.000000e-01
5.000000e-01
5.000000e-01
5.000000e-01
5.000000e-01
5.000000e-01
4.999999e-01
4.999996e-01
5.000234e-01
0.000000e+00
1.000000e+00
4.994263e-01
4.997179e-01
5.000035e-01
4.999999e-01
5.000000e-01
5.000000e-01
5.000000e-01
5.000000e-01
5.000000e-01
5.000000e-01
5.000000e-01
5.000000e-01
5.000000e-01
5.000416e-01
4.995652e-01
0.000000e+00
1.000000e+00
4.997913e-01
4.994602e-01
5.000052e-01
5.000004e-01
5.000000e-01
5.000000e-01
5.000000e-01
5.000000e-01
5.000000e-01
5.000000e-01
5.000000e-01
4.999996e-01
5.000012e-01
5.000976e-01
4.993182e-01
0.000000e+00
1.000000e+00
5.004873e-01
4.991756e-01
5.000009e-01
5.000010e-01
5.000000e-01
5.000000e-01
5.000000e-01
5.000000e-01
5.000000e-01
5.000000e-01
4.999999e-01
4.999983e-01
5.000034e-01
5.001836e-01
4.988230e-01
0.000000e+00
1.000000e+00
5.013173e-01
4.990250e-01
4.999938e-01
5.000010e-01
5.000000e-01
5.000000e-01
5.000000e-01
5.000000e-01
5.000000e-01
5.000001e-01
4.999994e-01
4.999906e-01
5.000245e-01
5.003631e-01
4.987994e-01
0.000000e+00
1.000000e+00
5.052519e-01
4.992254e-01
4.999857e-01
5.000003e-01
5.000000e-01
5.000000e-01
5.000000e-01
5.000000e-01
5.000000e-01
5.000001e-01
4.999984e-01
4.999700e-01
5.001719e-01
5.026204e-01
4.946131e-01
0.000000e+00
1.000000e+00
5.144435e-01
4.995552e-01
4.999792e-01
4.999993e-01
5.000000e-01
5.000000e-01
5.000000e-01
5.000000e-01
5.000000e-01
5.000000e-01
4.999977e-01
4.999527e-01
5.003706e-01
5.063446e-01
4.819422e-01
0.000000e+00
1.000000e+00
5.073437e-01
4.971038e-01
4.998831e-01
5.000184e-01
5.000011e-01
4.999999e-01
5.000000e-01
5.000000e-01
5.000000e-01
5.000000e-01
5.000000e-01
4.999990e-01
4.999876e-01
4.989723e-01
4.913470e-01
0.000000e+00
1.000000e+00
5.058417e-01
4.978425e-01
4.999155e-01
5.000142e-01
5.000008e-01
4.999999e-01
5.000000e-01
5.000000e-01
5.000000e-01
5.000000e-01
5.000000e-01
4.999997e-01
5.000002e-01
5.000939e-01
5.030305e-01
0.000000e+00
1.000000e+00
5.041032e-01
4.988241e-01
4.999637e-01
5.000065e-01
5.000003e-01
5.000000e-01
5.000000e-01
5.000000e-01
5.000000e-01
5.000000e-01
5.000000e-01
5.000000e-01
4.999998e-01
4.999284e-01
5.010361e-01
0.000000e+00
1.000000e+00
5.027303e-01
4.992929e-01
4.999839e-01
5.000032e-01
5.000001e-01
5.000000e-01
5.000000e-01
5.000000e-01
5.000000e-01
5.000000e-01
5.000000e-01
5.000000e-01
4.999996e-01
4.999404e-01
4.999834e-01
0.000000e+00
1.000000e+00
5.024559e-01
4.991610e-01
4.999831e-01
5.000026e-01
5.000000e-01
5.000000e-01
5.000000e-01
5.000000e-01
5.000000e-01
5.000000e-01
5.000000e-01
4.999999e-01
4.999995e-01
5.000082e-01
4.998571e-01
0.000000e+00
1.000000e+00
5.034721e-01
4.985476e-01
4.999798e-01
5.000030e-01
5.000000e-01
5.000000e-01
5.000000e-01
5.000000e-01
5.000000e-01
5.000000e-01
4.999999e-01
4.999996e-01
4.999999e-01
5.000375e-01
4.997887e-01
0.000000e+00
1.000000e+00
5.037125e-01
4.986658e-01
4.999756e-01
5.000040e-01
5.000000e-01
5.000000e-01
5.000000e-01
5.000000e-01
5.000000e-01
5.000000e-01
4.999999e-01
4.999993e-01
4.999999e-01
5.000527e-01
4.997471e-01
0.000000e+00
1.000000e+00
5.035032e-01
4.991406e-01
4.999808e-01
5.000029e-01
5.000001e-01
5.000000e-01
5.000000e-01
5.000000e-01
5.000000e-01
5.000000e-01
4.999998e-01
4.999991e-01
4.999997e-01
5.000562e-01
4.998488e-01
0.000000e+00
1.000000e+00
5.028714e-01
4.994971e-01
4.999910e-01
5.000013e-01
5.000000e-01
5.000000e-01
5.000000e-01
5.000000e-01
5.000000e-01
5.000000e-01
4.999999e-01
4.999992e-01
4.999996e-01
5.000444e-01
4.999432e-01
0.000000e+00
1.000000e+00
5.016327e-01
4.997718e-01
4.999978e-01
5.000004e-01
5.000000e-01
5.000000e-01
5.000000e-01
5.000000e-01
5.000000e-01
5.000000e-01
4.999999e-01
4.999996e-01
4.999996e-01
5.000295e-01
4.999341e-01
0.000000e+00
1.000000e+00
5.000433e-01
4.998873e-01
5.000000e-01
5.000000e-01
5.000000e-01
5.000000e-01
5.000000e-01
5.000000e-01
5.000000e-01
5.000000e-01
5.000000e-01
4.999998e-01
4.999998e-01
5.000243e-01
4.998846e-01
0.000000e+00
1.000000e+00
4.992046e-01
4.997988e-01
5.000034e-01
4.999998e-01
5.000000e-01
5.000000e-01
5.000000e-01
5.000000e-01
5.000000e-01
5.000000e-01
5.000000e-01
4.999998e-01
5.000001e-01
5.000624e-01
4.994740e-01
0.000000e+00
1.000000e+00
4.990704e-01
4.995520e-01
5.000055e-01
5.000003e-01
5.000000e-01
5.000000e-01
5.000000e-01
5.000000e-01
5.000000e-01
5.000000e-01
5.000000e-01
4.999995e-01
5.000016e-01
5.001115e-01
4.992653e-01
0.000000e+00
1.000000e+00
4.994644e-01
4.993486e-01
5.000020e-01
5.000008e-01
5.000000e-01
5.000000e-01
5.000000e-01
5.000000e-01
5.000000e-01
5.000000e-01
4.999998e-01
4.999981e-01
5.000038e-01
5.001922e-01
4.988104e-01
0.000000e+00
1.000000e+00
5.001783e-01
4.993017e-01
4.999964e-01
5.000009e-01
5.000000e-01
5.000000e-01
5.000000e-01
5.000000e-01
5.000000e-01
5.000001e-01
4.999993e-01
4.999899e-01
5.000262e-01
5.003760e-01
4.987461e-01
0.000000e+00
1.000000e+00
5.030448e-01
4.994969e-01
4.999908e-01
5.000005e-01
5.000000e-01
5.000000e-01
5.000000e-01
5.000000e-01
5.000000e-01
5.000001e-01
4.999981e-01
4.999673e-01
5.001850e-01
5.027307e-01
4.944442e-01
0.000000e+00
1.000000e+00
5.091903e-01
4.997197e-01
4.999867e-01
4.999999e-01
5.000000e-01
5.000000e-01
5.000000e-01
5.000000e-01
5.000000e-01
5.000001e-01
4.999973e-01
4.999484e-01
5.004018e-01
5.066352e-01
4.814868e-01
0.000000e+00
1.000000e+00
5.055775e-01
4.981875e-01
4.999420e-01
5.000097e-01
5.000005e-01
4.999999e-01
5.000000e-01
5.000000e-01
5.000000e-01
5.000000e-01
5.000000e-01
4.999991e-01
4.999908e-01
4.991113e-01
4.920801e-01
0.000000e+00
1.000000e+00
5.040824e-01
4.987248e-01
4.999623e-01
5.000068e-01
5.000003e-01
5.000000e-01
5.000000e-01
5.000000e-01
5.000000e-01
5.000000e-01
5.000000e-01
4.999998e-01
5.000000e-01
5.001169e-01
5.032549e-01
0.000000e+00
1.000000e+00
5.025374e-01
4.994475e-01
4.999884e-01
5.000024e-01
5.000001e-01
5.000000e-01
5.000000e-01
5.000000e-01
5.000000e-01
5.000000e-01
5.000000e-01
5.000000e-01
5.000001e-01
4.998978e-01
5.008943e-01
0.000000e+00
1.000000e+00
5.016998e-01
4.997494e-01
4.999953e-01
5.000014e-01
5.000000e-01
5.000000e-01
5.000000e-01
5.000000e-01
5.000000e-01
5.000000e-01
5.000000e-01
4.999998e-01
4.999999e-01
4.999312e-01
4.998532e-01
0.000000e+00
1.000000e+00
5.019059e-01
4.995677e-01
4.999898e-01
5.000020e-01
5.000000e-01
5.000000e-01
5.000000e-01
5.000000e-01
5.000000e-01
5.000001e-01
5.000003e-01
4.999996e-01
5.000011e-01
5.000511e-01
4.996522e-01
0.000000e+00
1.000000e+00
5.032792e-01
4.988182e-01
4.999813e-01
5.000031e-01
5.000001e-01
5.000000e-01
5.000000e-01
5.000000e-01
5.000000e-01
5.000002e-01
5.000011e-01
5.000002e-01
5.000071e-01
5.001368e-01
4.996176e-01
0.000000e+00
1.000000e+00
5.041549e-01
4.986151e-01
4.999748e-01
5.000044e-01
5.000001e-01
5.000000e-01
5.000000e-01
5.000000e-01
5.000000e-01
5.000004e-01
5.000024e-01
5.000026e-01
5.000173e-01
5.002039e-01
4.996303e-01
0.000000e+00
1.000000e+00
5.035618e-01
4.992052e-01
4.999816e-01
5.000033e-01
5.000001e-01
5.000000e-01
5.000000e-01
5.000000e-01
4.999999e-01
5.000005e-01
5.000031e-01
5.000042e-01
5.000236e-01
5.002406e-01
4.995766e-01
0.000000e+00
1.000000e+00
5.026809e-01
4.996319e-01
4.999932e-01
5.000013e-01
5.000000e-01
5.000000e-01
5.000000e-01
5.000000e-01
5.000000e-01
5.000003e-01
5.000022e-01
5.000029e-01
5.000191e-01
5.002197e-01
4.996466e-01
0.000000e+00
1.000000e+00
5.014006e-01
4.998834e-01
4.999987e-01
5.000003e-01
5.000000e-01
5.000000e-01
5.000000e-01
5.000000e-01
5.000000e-01
5.000002e-01
5.000009e-01
5.000005e-01
5.000093e-01
5.001693e-01
4.996585e-01
0.000000e+00
1.000000e+00
4.999202e-01
4.999888e-01
4.999997e-01
5.000000e-01
5.000000e-01
5.000000e-01
5.000000e-01
5.000000e-01
5.000000e-01
5.000000e-01
5.000002e-01
4.999993e-01
5.000030e-01
5.001257e-01
4.995506e-01
0.000000e+00
1.000000e+00
4.989191e-01
4.999190e-01
5.000025e-01
4.999997e-01
5.000000e-01
5.000000e-01
5.000000e-01
5.000000e-01
5.000000e-01
5.000000e-01
5.000000e-01
4.999993e-01
5.000013e-01
5.001287e-01
4.992503e-01
0.000000e+00
1.000000e+00
4.982473e-01
4.997262e-01
5.000053e-01
5.000000e-01
5.000000e-01
5.000000e-01
5.000000e-01
5.000000e-01
5.000000e-01
5.000000e-01
5.000000e-01
4.999992e-01
5.000021e-01
5.001425e-01
4.991897e-01
0.000000e+00
1.000000e+00
4.983383e-01
4.996105e-01
5.000033e-01
5.000005e-01
5.000000e-01
5.000000e-01
5.000000e-01
5.000000e-01
5.000000e-01
5.000000e-01
4.999998e-01
4.999981e-01
5.000036e-01
5.001968e-01
4.988199e-01
0.000000e+00
1.000000e+00
4.987756e-01
4.995995e-01
4.999996e-01
5.000006e-01
5.000000e-01
5.000000e-01
5.000000e-01
5.000000e-01
5.000000e-01
5.000001e-01
4.999992e-01
4.999900e-01
5.000266e-01
5.003656e-01
4.987410e-01
0.000000e+00
1.000000e+00
5.002941e-01
4.996577e-01
4.999963e-01
5.000005e-01
5.000000e-01
5.000000e-01
5.000000e-01
5.000000e-01
5.000000e-01
5.000002e-01
4.999977e-01
4.999656e-01
5.001988e-01
5.028006e-01
4.942345e-01
0.000000e+00
1.000000e+00
5.024875e-01
4.996674e-01
4.999944e-01
5.000004e-01
5.000000e-01
5.000000e-01
5.000000e-01
5.000000e-01
5.000000e-01
5.000002e-01
4.999968e-01
4.999442e-01
5.004416e-01
5.068921e-01
4.808303e-01
0.000000e+00
1.000000e+00
5.051900e-01
4.982876e-01
4.999586e-01
5.000075e-01
5.000002e-01
5.000000e-01
5.000000e-01
5.000000e-01
5.000000e-01
5.000000e-01
5.000000e-01
4.999995e-01
4.999941e-01
4.992842e-01
4.930200e-01
0.000000e+00
1.000000e+00
5.037054e-01
4.987664e-01
4.999722e-01
5.000053e-01
5.000002e-01
5.000000e-01
5.000000e-01
5.000000e-01
5.000000e-01
5.000000e-01
5.000000e-01
4.999998e-01
4.999998e-01
5.001031e-01
5.031828e-01
0.000000e+00
1.000000e+00
5.022085e-01
4.994709e-01
4.999907e-01
5.000020e-01
5.000001e-01
5.000000e-01
5.000000e-01
5.000000e-01
5.000000e-01
5.000000e-01
5.000001e-01
5.000000e-01
5.000002e-01
4.998982e-01
5.006507e-01
0.000000e+00
1.000000e+00
5.016199e-01
4.998022e-01
4.999952e-01
5.000015e-01
5.000001e-01
5.000000e-01
5.000000e-01
5.000000e-01
5.000000e-01
5.000003e-01
5.000013e-01
5.000012e-01
5.000063e-01
5.000460e-01
4.995686e-01
0.000000e+00
1.000000e+00
5.020938e-01
4.997065e-01
4.999877e-01
5.000027e-01
5.000001e-01
5.000000e-01
5.000001e-01
5.000000e-01
5.000000e-01
5.000014e-01
5.000062e-01
5.000101e-01
5.000434e-01
5.003927e-01
4.992765e-01
0.000000e+00
1.000000e+00
5.036069e-01
4.989610e-01
4.999700e-01
5.000044e-01
5.000002e-01
5.000001e-01
5.000001e-01
5.000000e-01
4.999998e-01
5.000031e-01
5.000150e-01
5.000313e-01
5.001176e-01
5.008227e-01
4.991210e-01
0.000000e+00
1.000000e+00
5.052555e-01
4.982788e-01
4.999573e-01
5.000057e-01
5.000002e-01
5.000001e-01
5.000002e-01
4.999999e-01
4.999994e-01
5.000037e-01
5.000215e-01
5.000517e-01
5.001838e-01
5.011788e-01
4.989327e-01
0.000000e+00
1.000000e+00
5.043643e-01
4.989302e-01
4.999706e-01
5.000039e-01
5.000001e-01
5.000001e-01
5.000002e-01
5.000001e-01
4.999992e-01
5.000038e-01
5.000244e-01
5.000625e-01
5.002162e-01
5.012961e-01
4.989367e-01
0.000000e+00
1.000000e+00
5.030922e-01
4.996161e-01
4.999914e-01
5.000013e-01
5.000000e-01
5.000001e-01
5.000001e-01
5.000001e-01
4.999996e-01
5.000039e-01
5.000239e-01
5.000602e-01
5.002029e-01
5.011623e-01
4.989607e-01
0.000000e+00
1.000000e+00
5.016116e-01
4.999283e-01
4.999991e-01
5.000005e-01
5.000000e-01
5.000000e-01
5.000001e-01
5.000001e-01
4.999999e-01
5.000029e-01
5.000169e-01
5.000400e-01
5.001357e-01
5.008365e-01
4.989401e-01
0.000000e+00
1.000000e+00
5.002678e-01
5.000529e-01
4.999993e-01
5.000002e-01
5.000000e-01
5.000000e-01
5.000000e-01
5.000000e-01
5.000000e-01
5.000013e-01
5.000075e-01
5.000155e-01
5.000588e-01
5.004892e-01
4.991147e-01
0.000000e+00
1.000000e+00
4.990449e-01
5.000384e-01
5.000004e-01
4.999997e-01
5.000000e-01
5.000000e-01
5.000000e-01
5.000000e-01
5.000000e-01
5.000003e-01
5.000017e-01
5.000023e-01
5.000160e-01
5.002821e-01
4.990450e-01
0.000000e+00
1.000000e+00
4.982028e-01
4.999363e-01
5.000030e-01
4.999996e-01
5.000000e-01
5.000000e-01
5.000000e-01
5.000000e-01
5.000000e-01
5.000000e-01
5.000001e-01
4.999992e-01
5.000037e-01
5.001824e-01
4.991959e-01
0.000000e+00
1.000000e+00
4.979942e-01
4.998500e-01
5.000031e-01
5.000000e-01
5.000000e-01
5.000000e-01
5.000000e-01
5.000000e-01
5.000000e-01
5.000000e-01
4.999999e-01
4.999985e-01
5.000024e-01
5.001813e-01
4.989387e-01
0.000000e+00
1.000000e+00
4.981416e-01
4.997761e-01
5.000013e-01
5.000002e-01
5.000000e-01
5.000000e-01
5.000000e-01
5.000000e-01
5.000000e-01
5.000001e-01
4.999993e-01
4.999915e-01
5.000224e-01
5.003043e-01
4.988893e-01
0.000000e+00
1.000000e+00
4.990226e-01
4.996739e-01
4.999994e-01
5.000003e-01
5.000000e-01
5.000000e-01
5.000000e-01
5.000000e-01
5.000000e-01
5.000002e-01
4.999978e-01
4.999683e-01
5.001882e-01
5.026574e-01
4.943653e-01
0.000000e+00
1.000000e+00
4.998186e-01
4.995679e-01
4.999984e-01
5.000004e-01
5.000000e-01
5.000000e-01
5.000000e-01
5.000000e-01
5.000000e-01
5.000002e-01
4.999968e-01
4.999470e-01
5.004300e-01
5.067110e-01
4.808559e-01
0.000000e+00
1.000000e+00
5.054327e-01
4.980658e-01
4.999543e-01
5.000087e-01
5.000002e-01
5.000000e-01
5.000000e-01
5.000000e-01
5.000000e-01
5.000000e-01
5.000000e-01
4.999996e-01
4.999940e-01
4.992742e-01
4.931474e-01
0.000000e+00
1.000000e+00
5.040625e-01
4.985475e-01
4.999668e-01
5.000067e-01
5.000002e-01
5.000000e-01
5.000000e-01
5.000000e-01
5.000000e-01
5.000000e-01
5.000000e-01
4.999998e-01
4.999995e-01
5.000731e-01
5.029359e-01
0.000000e+00
1.000000e+00
5.025138e-01
4.992812e-01
4.999844e-01
5.000035e-01
5.000001e-01
5.000000e-01
5.000000e-01
5.000000e-01
5.000000e-01
5.000003e-01
5.000013e-01
5.000016e-01
5.000064e-01
4.999862e-01
5.003516e-01
0.000000e+00
1.000000e+00
5.019974e-01
4.996476e-01
4.999890e-01
5.000028e-01
5.000002e-01
5.000000e-01
5.000001e-01
5.000003e-01
5.000005e-01
5.000022e-01
5.000062e-01
4.999984e-01
5.000340e-01
5.004681e-01
4.991409e-01
0.000000e+00
1.000000e+00
5.025383e-01
4.995962e-01
4.999797e-01
5.000048e-01
5.000003e-01
5.000004e-01
5.000015e-01
5.000018e-01
5.000007e-01
5.000078e-01
5.000027e-01
4.999070e-01
4.999066e-01
5.010653e-01
4.974066e-01
0.000000e+00
1.000000e+00
5.041481e-01
4.988745e-01
4.999482e-01
5.000088e-01
5.000006e-01
5.000010e-01
5.000042e-01
5.000011e-01
4.999973e-01
5.000140e-01
4.999763e-01
4.996204e-01
4.992217e-01
5.004740e-01
4.932721e-01
0.000000e+00
1.000000e+00
5.063681e-01
4.977144e-01
4.999143e-01
5.000128e-01
5.000008e-01
5.000016e-01
5.000089e-01
4.999952e-01
4.999889e-01
4.999993e-01
5.000057e-01
4.993524e-01
4.982934e-01
4.989378e-01
4.884829e-01
0.000000e+00
1.000000e+00
5.061285e-01
4.980308e-01
4.999272e-01
5.000101e-01
5.000006e-01
5.000012e-01
5.000102e-01
4.999959e-01
4.999847e-01
4.999768e-01
5.000531e-01
4.992676e-01
4.978313e-01
4.979519e-01
4.866036e-01
0.000000e+00
1.000000e+00
5.042858e-01
4.991841e-01
4.999727e-01
5.000029e-01
5.000003e-01
5.000010e-01
5.000054e-01
5.000030e-01
4.999930e-01
4.999954e-01
5.000029e-01
4.993206e-01
4.981588e-01
4.986535e-01
4.892885e-01
0.000000e+00
1.000000e+00
5.026251e-01
4.998020e-01
4.999965e-01
5.000005e-01
5.000001e-01
5.000006e-01
5.000020e-01
5.000030e-01
5.000014e-01
5.000110e-01
4.999836e-01
4.996172e-01
4.991698e-01
5.002065e-01
4.941309e-01
0.000000e+00
1.000000e+00
5.010300e-01
5.000521e-01
5.000001e-01
5.000004e-01
5.000000e-01
5.000002e-01
5.000004e-01
5.000007e-01
5.000013e-01
5.000090e-01
5.000067e-01
4.999137e-01
4.998738e-01
5.008277e-01
4.974442e-01
0.000000e+00
1.000000e+00
4.997916e-01
5.001278e-01
4.999994e-01
5.000000e-01
5.000000e-01
5.000000e-01
5.000001e-01
5.000001e-01
4.999999e-01
5.000022e-01
5.000081e-01
5.000057e-01
5.000396e-01
5.005940e-01
4.986861e-01
0.000000e+00
1.000000e+00
4.988464e-01
5.001145e-01
4.999998e-01
4.999997e-01
5.000000e-01
5.000000e-01
5.000000e-01
5.000000e-01
5.000000e-01
5.000003e-01
5.000016e-01
5.000028e-01
5.000164e-01
5.002739e-01
4.992272e-01
0.000000e+00
1.000000e+00
4.982791e-01
5.000436e-01
5.000007e-01
4.999998e-01
5.000000e-01
5.000000e-01
5.000000e-01
5.000000e-01
5.000000e-01
5.000000e-01
4.999999e-01
4.999986e-01
5.000022e-01
5.001736e-01
4.990682e-01
0.000000e+00
1.000000e+00
4.982068e-01
4.999200e-01
5.000014e-01
5.000000e-01
5.000000e-01
5.000000e-01
5.000000e-01
5.000000e-01
5.000000e-01
5.000001e-01
4.999994e-01
4.999928e-01
5.000186e-01
5.002483e-01
4.990524e-01
0.000000e+00
1.000000e+00
4.988289e-01
4.997316e-01
5.000014e-01
5.000002e-01
5.000000e-01
5.000000e-01
5.000000e-01
5.000000e-01
5.000000e-01
5.000001e-01
4.999981e-01
4.999717e-01
5.001720e-01
5.024910e-01
4.946113e-01
0.000000e+00
1.000000e+00
4.993228e-01
4.995873e-01
5.000009e-01
5.000004e-01
5.000000e-01
5.000000e-01
5.000000e-01
5.000000e-01
5.000000e-01
5.000002e-01
4.999971e-01
4.999518e-01
5.004014e-01
5.064718e-01
4.811961e-01
0.000000e+00
1.000000e+00
5.046898e-01
4.979704e-01
4.999438e-01
5.000114e-01
5.000003e-01
5.000000e-01
5.000000e-01
5.000000e-01
5.000000e-01
5.000000e-01
4.999999e-01
4.999996e-01
4.999928e-01
4.992251e-01
4.930239e-01
0.000000e+00
1.000000e+00
5.039448e-01
4.984043e-01
4.999565e-01
5.000091e-01
5.000002e-01
5.000000e-01
5.000000e-01
5.000000e-01
5.000000e-01
5.000001e-01
5.000003e-01
5.000001e-01
5.000001e-01
5.000612e-01
5.027090e-01
0.000000e+00
1.000000e+00
5.027791e-01
4.991147e-01
4.999767e-01
5.000049e-01
5.000002e-01
5.000000e-01
5.000000e-01
5.000000e-01
5.000001e-01
5.000013e-01
5.000060e-01
5.000103e-01
5.000437e-01
5.002535e-01
5.001743e-01
0.000000e+00
1.000000e+00
5.022338e-01
4.995112e-01
4.999847e-01
5.000031e-01
5.000002e-01
5.000002e-01
5.000012e-01
5.000016e-01
5.000005e-01
5.000054e-01
5.000004e-01
4.999033e-01
4.999393e-01
5.012593e-01
4.977582e-01
0.000000e+00
1.000000e+00
5.026185e-01
4.995003e-01
4.999787e-01
5.000046e-01
5.000005e-01
5.000018e-01
5.000101e-01
5.000387e-01
5.001102e-01
5.001767e-01
4.999698e-01
4.992075e-01
4.983535e-01
4.998117e-01
4.902841e-01
0.000000e+00
1.000000e+00
5.041290e-01
4.988392e-01
4.999424e-01
5.000110e-01
5.000012e-01
5.000053e-01
5.000255e-01
5.002457e-01
5.004055e-01
5.001808e-01
5.000984e-01
4.985699e-01
4.957667e-01
4.949288e-01
4.827412e-01
0.000000e+00
1.000000e+00
5.064340e-01
4.973642e-01
4.998798e-01
5.000223e-01
5.000025e-01
5.000095e-01
5.000242e-01
5.006605e-01
5.003195e-01
4.994693e-01
4.994905e-01
4.997876e-01
4.964546e-01
4.934328e-01
4.803825e-01
0.000000e+00
1.000000e+00
5.075840e-01
4.967537e-01
4.998671e-01
5.000245e-01
5.000030e-01
5.000132e-01
4.999916e-01
5.007516e-01
5.002340e-01
4.991601e-01
4.984699e-01
5.005767e-01
4.971667e-01
4.940854e-01
4.796999e-01
0.000000e+00
1.000000e+00
5.056272e-01
4.981563e-01
4.999329e-01
5.000120e-01
5.000017e-01
5.000089e-01
5.000064e-01
5.002431e-01
5.006076e-01
5.000747e-01
5.001906e-01
4.998694e-01
4.960229e-01
4.930426e-01
4.776761e-01
0.000000e+00
1.000000e+00
5.036438e-01
4.993399e-01
4.999844e-01
5.000021e-01
5.000005e-01
5.000035e-01
5.000094e-01
5.000223e-01
5.001899e-01
5.003415e-01
5.002390e-01
4.984804e-01
4.954702e-01
4.946703e-01
4.820126e-01
0.000000e+00
1.000000e+00
5.020326e-01
4.998783e-01
4.999990e-01
5.000001e-01
5.000001e-01
5.000008e-01
5.000027e-01
5.000018e-01
4.999995e-01
5.000515e-01
4.999552e-01
4.991209e-01
4.981571e-01
4.988864e-01
4.912893e-01
0.000000e+00
1.000000e+00
5.008441e-01
5.000914e-01
5.000007e-01
5.000002e-01
5.000000e-01
5.000001e-01
5.000003e-01
5.000004e-01
5.000007e-01
5.000092e-01
5.000047e-01
4.999034e-01
4.998318e-01
5.007248e-01
4.973328e-01
0.000000e+00
1.000000e+00
4.997626e-01
5.001673e-01
4.999998e-01
5.000001e-01
5.000000e-01
5.000000e-01
5.000000e-01
5.000000e-01
5.000000e-01
5.000013e-01
5.000073e-01
5.000183e-01
5.000583e-01
5.004733e-01
4.991701e-01
0.000000e+00
1.000000e+00
4.989338e-01
5.001473e-01
4.999994e-01
5.000000e-01
5.000000e-01
5.000000e-01
5.000000e-01
5.000000e-01
5.000000e-01
5.000001e-01
5.000002e-01
4.999988e-01
5.000054e-01
5.002015e-01
4.991257e-01
0.000000e+00
1.000000e+00
4.986661e-01
5.000260e-01
5.000005e-01
4.999999e-01
5.000000e-01
5.000000e-01
5.000000e-01
5.000000e-01
5.000000e-01
5.000001e-01
4.999994e-01
4.999929e-01
5.000178e-01
5.002326e-01
4.991264e-01
0.000000e+00
1.000000e+00
4.991166e-01
4.998145e-01
5.000013e-01
5.000001e-01
5.000000e-01
5.000000e-01
5.000000e-01
5.000000e-01
5.000000e-01
5.000001e-01
4.999980e-01
4.999727e-01
5.001671e-01
5.024220e-01
4.947648e-01
0.000000e+00
1.000000e+00
4.995461e-01
4.996560e-01
5.000010e-01
5.000003e-01
5.000000e-01
5.000000e-01
5.000000e-01
5.000000e-01
5.000000e-01
5.000002e-01
4.999971e-01
4.999535e-01
5.003916e-01
5.063902e-01
4.814203e-01
0.000000e+00
1.000000e+00
5.043727e-01
4.979537e-01
4.999396e-01
5.000124e-01
5.000004e-01
5.000000e-01
5.000000e-01
5.000000e-01
5.000000e-01
5.000000e-01
4.999999e-01
4.999995e-01
4.999931e-01
4.992836e-01
4.932393e-01
0.000000e+00
1.000000e+00
5.035700e-01
4.983886e-01
4.999560e-01
5.000093e-01
5.000003e-01
5.000000e-01
5.000000e-01
5.000000e-01
5.000000e-01
5.000003e-01
5.000011e-01
5.000011e-01
5.000029e-01
5.002072e-01
5.025894e-01
0.000000e+00
1.000000e+00
5.021474e-01
4.991400e-01
4.999818e-01
5.000037e-01
5.000001e-01
5.000000e-01
5.000000e-01
4.999999e-01
5.000001e-01
5.000035e-01
5.000169e-01
5.000288e-01
5.001390e-01
5.009053e-01
4.998340e-01
0.000000e+00
1.000000e+00
5.013544e-01
4.996237e-01
4.999931e-01
5.000013e-01
5.000001e-01
5.000006e-01
5.000019e-01
5.000000e-01
4.999989e-01
5.000220e-01
4.999618e-01
4.995828e-01
4.993275e-01
5.015156e-01
4.924557e-01
0.000000e+00
1.000000e+00
5.018281e-01
4.997208e-01
4.999915e-01
5.000020e-01
5.000003e-01
5.000032e-01
5.000122e-01
5.001742e-01
5.003419e-01
5.001156e-01
4.998599e-01
4.983188e-01
4.955579e-01
4.954464e-01
4.769409e-01
0.000000e+00
1.000000e+00
5.034742e-01
4.991939e-01
4.999642e-01
5.000076e-01
5.000011e-01
5.000131e-01
5.000508e-01
5.010785e-01
5.023150e-01
5.017972e-01
5.011741e-01
5.025957e-01
5.153317e-01
5.187649e-01
4.932575e-01
0.000000e+00
1.000000e+00
5.055554e-01
4.976171e-01
4.998887e-01
5.000215e-01
5.000024e-01
5.000258e-01
5.001566e-01
5.020793e-01
5.087278e-01
4.934575e-01
4.882627e-01
4.994228e-01
5.353250e-01
5.692206e-01
5.466656e-01
0.000000e+00
1.000000e+00
5.074719e-01
4.961665e-01
4.998349e-01
5.000293e-01
5.000022e-01
5.000376e-01
5.003582e-01
5.010320e-01
5.108975e-01
4.917125e-01
4.820807e-01
5.009788e-01
5.336135e-01
5.827713e-01
5.905446e-01
0.000000e+00
1.000000e+00
5.061149e-01
4.971405e-01
4.998962e-01
5.000201e-01
5.000015e-01
5.000253e-01
5.001876e-01
5.010495e-01
5.009976e-01
5.073263e-01
4.889805e-01
4.991280e-01
5.360394e-01
5.650629e-01
5.474130e-01
0.000000e+00
1.000000e+00
5.039441e-01
4.986902e-01
4.999703e-01
5.000065e-01
5.000009e-01
5.000087e-01
5.000411e-01
5.004118e-01
5.000636e-01
5.010970e-01
5.013381e-01
5.038103e-01
5.159122e-01
5.168142e-01
4.906201e-01
0.000000e+00
1.000000e+00
5.025438e-01
4.995464e-01
4.999950e-01
5.000006e-01
5.000003e-01
5.000017e-01
5.000031e-01
5.000248e-01
5.001555e-01
5.003300e-01
5.001109e-01
4.981995e-01
4.953084e-01
4.944366e-01
4.829120e-01
0.000000e+00
1.000000e+00
5.015371e-01
4.999086e-01
5.000005e-01
4.999999e-01
5.000000e-01
5.000002e-01
5.000005e-01
5.000004e-01
5.000005e-01
5.000197e-01
4.999650e-01
4.995435e-01
4.990092e-01
4.998578e-01
4.940761e-01
0.000000e+00
1.000000e+00
5.005500e-01
5.000660e-01
5.000010e-01
5.000000e-01
5.000000e-01
5.000000e-01
5.000000e-01
5.000000e-01
5.000000e-01
5.000038e-01
5.000177e-01
5.000452e-01
5.001256e-01
5.007458e-01
4.989346e-01
0.000000e+00
1.000000e+00
4.996350e-01
5.001259e-01
5.000000e-01
5.000000e-01
5.000000e-01
5.000000e-01
5.000000e-01
5.000000e-01
5.000000e-01
5.000002e-01
5.000010e-01
5.000005e-01
5.000143e-01
5.002636e-01
4.991255e-01
0.000000e+00
1.000000e+00
4.991814e-01
5.000665e-01
5.000000e-01
5.000000e-01
5.000000e-01
5.000000e-01
5.000000e-01
5.000000e-01
5.000000e-01
5.000001e-01
4.999992e-01
4.999923e-01
5.000188e-01
5.002476e-01
4.990981e-01
0.000000e+00
1.000000e+00
4.995239e-01
4.998902e-01
5.000006e-01
5.000000e-01
5.000000e-01
5.000000e-01
5.000000e-01
5.000000e-01
5.000000e-01
5.000002e-01
4.999978e-01
4.999723e-01
5.001692e-01
5.024206e-01
4.948423e-01
0.000000e+00
1.000000e+00
5.000028e-01
4.997339e-01
5.000004e-01
5.000002e-01
5.000000e-01
5.000000e-01
5.000000e-01
5.000000e-01
5.000000e-01
5.000002e-01
4.999969e-01
4.999532e-01
5.003926e-01
5.064349e-01
4.814342e-01
0.000000e+00
1.000000e+00
5.040482e-01
4.981570e-01
4.999535e-01
5.000104e-01
5.000003e-01
5.000000e-01
5.000000e-01
5.000000e-01
5.000000e-01
4.999999e-01
4.999998e-01
4.999992e-01
4.999939e-01
4.993999e-01
4.938290e-01
0.000000e+00
1.000000e+00
5.031914e-01
4.986611e-01
4.999718e-01
5.000070e-01
5.000002e-01
5.000000e-01
5.000000e-01
5.000000e-01
5.000000e-01
5.000005e-01
5.000023e-01
5.000026e-01
5.000076e-01
5.002641e-01
5.025962e-01
0.000000e+00
1.000000e+00
5.015746e-01
4.994550e-01
4.999957e-01
5.000017e-01
5.000000e-01
5.000000e-01
5.000001e-01
4.999996e-01
4.999998e-01
5.000065e-01
5.000281e-01
5.000464e-01
5.002468e-01
5.017381e-01
4.995851e-01
0.000000e+00
1.000000e+00
5.004654e-01
4.999344e-01
5.000016e-01
5.000000e-01
5.000000e-01
5.000003e-01
5.000011e-01
4.999944e-01
4.999922e-01
5.000350e-01
4.999340e-01
4.992257e-01
4.983573e-01
5.004402e-01
4.820922e-01
0.000000e+00
1.000000e+00
5.004096e-01
5.000336e-01
4.999995e-01
5.000004e-01
5.000002e-01
5.000015e-01
5.000106e-01
5.003817e-01
5.004790e-01
5.000148e-01
4.997290e-01
4.988416e-01
4.958798e-01
4.933763e-01
4.759537e-01
0.000000e+00
1.000000e+00
5.020417e-01
4.996300e-01
4.999897e-01
5.000025e-01
4.999990e-01
5.000119e-01
5.001419e-01
5.016768e-01
5.064792e-01
4.927089e-01
4.904502e-01
5.020995e-01
5.367473e-01
5.684148e-01
5.573446e-01
0.000000e+00
1.000000e+00
5.054861e-01
4.984042e-01
4.999414e-01
5.000086e-01
4.999910e-01
5.000417e-01
5.006653e-01
5.039958e-01
5.128546e-01
5.571629e-01
6.188203e-01
6.783967e-01
7.228371e-01
7.541932e-01
6.150449e-01
0.000000e+00
1.000000e+00
5.082945e-01
4.969922e-01
4.998738e-01
5.000105e-01
4.999835e-01
5.000727e-01
5.015387e-01
5.074047e-01
4.985416e-01
5.547918e-01
6.144660e-01
6.929854e-01
7.458826e-01
7.677020e-01
7.376791e-01
0.000000e+00
1.000000e+00
5.063421e-01
4.971452e-01
4.998974e-01
5.000072e-01
4.999924e-01
5.000429e-01
5.008062e-01
5.034261e-01
5.071261e-01
4.797757e-01
5.629076e-01
6.442780e-01
7.071887e-01
7.460044e-01
6.327612e-01
0.000000e+00
1.000000e+00
5.035233e-01
4.984121e-01
4.999685e-01
5.000038e-01
4.999999e-01
5.000115e-01
5.001662e-01
5.008597e-01
5.013741e-01
5.069595e-01
4.901818e-01
5.012559e-01
5.425777e-01
5.687890e-01
5.423612e-01
0.000000e+00
1.000000e+00
5.019965e-01
4.993898e-01
4.999951e-01
5.000008e-01
5.000004e-01
5.000022e-01
4.999967e-01
5.001468e-01
5.004604e-01
5.004405e-01
5.006977e-01
4.989879e-01
4.955506e-01
4.928199e-01
4.791279e-01
0.000000e+00
1.000000e+00
5.013831e-01
4.997601e-01
4.999992e-01
5.000000e-01
5.000001e-01
5.000002e-01
5.000006e-01
4.999982e-01
4.999986e-01
5.000337e-01
4.999207e-01
4.991546e-01
4.979269e-01
4.981934e-01
4.900507e-01
0.000000e+00
1.000000e+00
5.009108e-01
4.998866e-01
5.000005e-01
5.000000e-01
5.000000e-01
5.000000e-01
5.000000e-01
5.000000e-01
5.000000e-01
5.000067e-01
5.000278e-01
5.000658e-01
5.001796e-01
5.009622e-01
4.985907e-01
0.000000e+00
1.000000e+00
5.001972e-01
4.999816e-01
5.000007e-01
5.000000e-01
5.000000e-01
5.000000e-01
5.000000e-01
5.000000e-01
5.000000e-01
5.000004e-01
5.000022e-01
5.000037e-01
5.000265e-01
5.003352e-01
4.990645e-01
0.000000e+00
1.000000e+00
4.996935e-01
5.000055e-01
5.000003e-01
5.000000e-01
5.000000e-01
5.000000e-01
5.000000e-01
5.000000e-01
5.000000e-01
5.000001e-01
4.999991e-01
4.999918e-01
5.000197e-01
5.002701e-01
4.990625e-01
0.000000e+00
1.000000e+00
5.000191e-01
4.999181e-01
5.000002e-01
5.000001e-01
5.000000e-01
5.000000e-01
5.000000e-01