<?xml version="1.0"?>
<VTKFile type="StructuredGrid" version="0.1">
  <StructuredGrid WholeExtent="0 16 0 16 0 16">
    <Piece Extent="0 16 0 16 0 16">
      <PointData Scalars="temperature" Vectors="velocity">
        <DataArray type="Float32" Name="temperature" format="ascii">
1.000000e+00
5.208803e-01
5.003673e-01
4.999964e-01
4.999989e-01
5.000000e-01
5.000000e-01
5.000000e-01
5.000000e-01
5.000000e-01
5.000000e-01
5.000000e-01
5.000002e-01
4.999969e-01
4.995486e-01
4.968511e-01
0.000000e+00
1.000000e+00
5.132862e-01
5.001413e-01
4.999919e-01
4.999991e-01
5.000000e-01
5.000000e-01
5.000000e-01
5.000000e-01
5.000000e-01
5.000000e-01
5.000000e-01
4.999999e-01
5.000000e-01
4.999092e-01
5.023153e-01
0.000000e+00
1.000000e+00
5.039137e-01
4.995581e-01
4.999933e-01
4.999995e-01
5.000000e-01
5.000000e-01
5.000000e-01
5.000000e-01
5.000000e-01
5.000000e-01
5.000000e-01
4.999995e-01
5.000025e-01
5.000935e-01
4.994573e-01
0.000000e+00
1.000000e+00
5.003514e-01
4.992893e-01
5.000013e-01
5.000004e-01
5.000000e-01
5.000000e-01
5.000000e-01
5.000000e-01
5.000000e-01
5.000000e-01
5.000000e-01
4.999997e-01
5.000026e-01
5.001745e-01
4.994225e-01
0.000000e+00
1.000000e+00
5.011540e-01
4.989662e-01
4.999918e-01
5.000019e-01
5.000000e-01
5.000000e-01
5.000000e-01
5.000000e-01
5.000000e-01
5.000000e-01
5.000000e-01
4.999997e-01
5.000018e-01
5.001216e-01
4.997514e-01
0.000000e+00
1.000000e+00
5.038012e-01
4.980677e-01
4.999615e-01
5.000060e-01
5.000002e-01
5.000000e-01
5.000000e-01
5.000000e-01
5.000000e-01
5.000000e-01
5.000000e-01
4.999998e-01
5.000008e-01
5.000765e-01
4.999632e-01
0.000000e+00
1.000000e+00
5.054789e-01
4.976784e-01
4.999410e-01
5.000094e-01
5.000003e-01
5.000000e-01
5.000000e-01
5.000000e-01
5.000000e-01
5.000000e-01
5.000000e-01
4.999999e-01
5.000000e-01
5.000426e-01
5.001762e-01
0.000000e+00
1.000000e+00
5.050220e-01
4.983669e-01
4.999583e-01
5.000059e-01
5.000002e-01
5.000000e-01
5.000000e-01
5.000000e-01
5.000000e-01
5.000000e-01
5.000000e-01
4.999999e-01
4.999999e-01
5.000043e-01
5.002606e-01
0.000000e+00
1.000000e+00
5.027111e-01
4.994394e-01
4.999898e-01
5.000012e-01
5.000001e-01
5.000000e-01
5.000000e-01
5.000000e-01
5.000000e-01
5.000000e-01
5.000000e-01
5.000000e-01
5.000000e-01
4.999828e-01
5.002345e-01
0.000000e+00
1.000000e+00
5.009298e-01
4.998105e-01
4.999993e-01
5.000004e-01
5.000000e-01
5.000000e-01
5.000000e-01
5.000000e-01
5.000000e-01
5.000000e-01
5.000000e-01
5.000000e-01
4.999998e-01
5.000001e-01
4.999585e-01
0.000000e+00
1.000000e+00
5.001054e-01
4.997092e-01
4.999999e-01
5.000004e-01
5.000000e-01
5.000000e-01
5.000000e-01
5.000000e-01
5.000000e-01
5.000000e-01
5.000000e-01
5.000000e-01
5.000000e-01
5.000424e-01
4.996271e-01
0.000000e+00
1.000000e+00
5.005117e-01
4.994181e-01
4.999978e-01
5.000007e-01
5.000000e-01
5.000000e-01
5.000000e-01
5.000000e-01
5.000000e-01
5.000000e-01
5.000000e-01
4.999998e-01
5.000009e-01
5.000984e-01
4.993358e-01
0.000000e+00
1.000000e+00
5.022956e-01
4.992182e-01
4.999927e-01
5.000012e-01
5.000000e-01
5.000000e-01
5.000000e-01
5.000000e-01
5.000000e-01
5.000000e-01
5.000000e-01
4.999997e-01
5.000016e-01
5.001095e-01
4.995129e-01
0.000000e+00
1.000000e+00
5.032740e-01
4.991296e-01
4.999892e-01
5.000016e-01
5.000000e-01
5.000000e-01
5.000000e-01
5.000000e-01
5.000000e-01
5.000000e-01
5.000000e-01
4.999993e-01
5.000011e-01
5.001108e-01
4.994149e-01
0.000000e+00
1.000000e+00
5.029078e-01
4.990704e-01
4.999862e-01
5.000024e-01
5.000000e-01
5.000000e-01
5.000000e-01
5.000000e-01
5.000000e-01
5.000000e-01
4.999997e-01
4.999951e-01
5.000122e-01
5.001923e-01
4.995176e-01
0.000000e+00
1.000000e+00
5.029897e-01
4.988440e-01
4.999784e-01
5.000036e-01
5.000001e-01
5.000000e-01
5.000000e-01
5.000000e-01
5.000000e-01
5.000001e-01
4.999986e-01
4.999819e-01
5.001202e-01
5.022488e-01
4.952296e-01
0.000000e+00
1.000000e+00
5.037867e-01
4.986531e-01
4.999720e-01
5.000041e-01
5.000001e-01
5.000000e-01
5.000000e-01
5.000000e-01
5.000000e-01
5.000001e-01
4.999977e-01
4.999714e-01
5.002937e-01
5.057960e-01
4.820757e-01
0.000000e+00
1.000000e+00
5.045137e-01
4.994868e-01
4.999832e-01
4.999997e-01
5.000000e-01
5.000000e-01
5.000000e-01
5.000000e-01
5.000000e-01
5.000000e-01
5.000000e-01
4.999999e-01
4.999985e-01
4.996306e-01
4.965974e-01
0.000000e+00
1.000000e+00
5.012368e-01
4.995398e-01
4.999881e-01
4.999999e-01
5.000000e-01
5.000000e-01
5.000000e-01
5.000000e-01
5.000000e-01
5.000000e-01
5.000000e-01
4.999999e-01
5.000002e-01
5.000090e-01
5.027175e-01
0.000000e+00
1.000000e+00
4.986310e-01
4.995366e-01
4.999991e-01
5.000001e-01
5.000000e-01
5.000000e-01
5.000000e-01
5.000000e-01
5.000000e-01
5.000000e-01
5.000000e-01
4.999998e-01
5.000004e-01
5.000088e-01
4.996924e-01
0.000000e+00
1.000000e+00
4.988479e-01
4.995561e-01
5.000031e-01
5.000004e-01
5.000000e-01
5.000000e-01
5.000000e-01
5.000000e-01
5.000000e-01
5.000000e-01
5.000000e-01
4.999998e-01
5.000005e-01
5.000651e-01
4.994763e-01
0.000000e+00
1.000000e+00
5.009827e-01
4.992374e-01
4.999931e-01
5.000018e-01
5.000000e-01
5.000000e-01
5.000000e-01
5.000000e-01
5.000000e-01
5.000000e-01
5.000000e-01
4.999997e-01
5.000007e-01
5.000742e-01
4.997506e-01
0.000000e+00
1.000000e+00
5.035220e-01
4.984520e-01
4.999670e-01
5.000056e-01
5.000002e-01
5.000000e-01
5.000000e-01
5.000000e-01
5.000000e-01
5.000000e-01
4.999999e-01
4.999994e-01
5.000003e-01
5.000707e-01
4.998710e-01
0.000000e+00
1.000000e+00
5.049771e-01
4.981027e-01
4.999493e-01
5.000084e-01
5.000003e-01
5.000000e-01
5.000000e-01
5.000000e-01
5.000000e-01
5.000000e-01
4.999999e-01
4.999992e-01
4.999996e-01
5.000567e-01
4.999651e-01
0.000000e+00
1.000000e+00
5.046125e-01
4.985976e-01
4.999651e-01
5.000051e-01
5.000002e-01
5.000000e-01
5.000000e-01
5.000000e-01
5.000000e-01
5.000000e-01
4.999999e-01
4.999993e-01
4.999993e-01
5.000306e-01
5.000889e-01
0.000000e+00
1.000000e+00
5.025225e-01
4.995281e-01
4.999920e-01
5.000009e-01
5.000000e-01
5.000000e-01
5.000000e-01
5.000000e-01
5.000000e-01
5.000000e-01
4.999999e-01
4.999994e-01
4.999994e-01
5.000151e-01
5.000069e-01
0.000000e+00
1.000000e+00
5.007641e-01
4.999247e-01
4.999995e-01
5.000002e-01
5.000000e-01
5.000000e-01
5.000000e-01
5.000000e-01
5.000000e-01
5.000000e-01
4.999999e-01
4.999996e-01
4.999996e-01
5.000298e-01
4.997272e-01
0.000000e+00
1.000000e+00
4.998468e-01
4.999051e-01
5.000000e-01
5.000002e-01
5.000000e-01
5.000000e-01
5.000000e-01
5.000000e-01
5.000000e-01
5.000000e-01
5.000000e-01
4.999998e-01
5.000000e-01
5.000594e-01
4.995608e-01
0.000000e+00
1.000000e+00
4.999128e-01
4.997158e-01
4.999997e-01
5.000003e-01
5.000000e-01
5.000000e-01
5.000000e-01
5.000000e-01
5.000000e-01
5.000000e-01
5.000000e-01
4.999997e-01
5.000007e-01
5.001017e-01
4.993332e-01
0.000000e+00
1.000000e+00
5.012372e-01
4.996186e-01
4.999971e-01
5.000006e-01
5.000000e-01
5.000000e-01
5.000000e-01
5.000000e-01
5.000000e-01
5.000000e-01
5.000000e-01
4.999997e-01
5.000012e-01
5.001036e-01
4.995163e-01
0.000000e+00
1.000000e+00
5.019250e-01
4.996003e-01
4.999950e-01
5.000010e-01
5.000000e-01
5.000000e-01
5.000000e-01
5.000000e-01
5.000000e-01
5.000000e-01
5.000000e-01
4.999994e-01
5.000005e-01
5.001012e-01
4.994360e-01
0.000000e+00
1.000000e+00
5.016494e-01
4.995166e-01
4.999915e-01
5.000017e-01
5.000000e-01
5.000000e-01
5.000000e-01
5.000000e-01
5.000000e-01
5.000000e-01
4.999997e-01
4.999953e-01
5.000109e-01
5.001703e-01
4.995384e-01
0.000000e+00
1.000000e+00
5.022401e-01
4.991398e-01
4.999825e-01
5.000028e-01
5.000001e-01
5.000000e-01
5.000000e-01
5.000000e-01
5.000000e-01
5.000001e-01
4.999988e-01
4.999804e-01
5.001231e-01
5.022278e-01
4.953717e-01
0.000000e+00
1.000000e+00
5.033806e-01
4.988580e-01
4.999762e-01
5.000033e-01
5.000001e-01
5.000000e-01
5.000000e-01
5.000000e-01
5.000000e-01
5.000001e-01
4.999980e-01
4.999666e-01
5.003090e-01
5.058555e-01
4.823036e-01
0.000000e+00
1.000000e+00
4.978330e-01
4.994223e-01
5.000020e-01
5.000007e-01
5.000000e-01
5.000000e-01
5.000000e-01
5.000000e-01
5.000000e-01
5.000000e-01
5.000000e-01
4.999999e-01
4.999986e-01
4.996228e-01
4.953492e-01
0.000000e+00
1.000000e+00
4.963012e-01
4.996175e-01
5.000033e-01
5.000006e-01
5.000000e-01
5.000000e-01
5.000000e-01
5.000000e-01
5.000000e-01
5.000000e-01
5.000000e-01
4.999999e-01
5.000000e-01
5.000347e-01
5.029525e-01
0.000000e+00
1.000000e+00
4.965485e-01
4.999119e-01
5.000021e-01
5.000002e-01
5.000000e-01
5.000000e-01
5.000000e-01
5.000000e-01
5.000000e-01
5.000000e-01
5.000000e-01
5.000000e-01
5.000000e-01
4.999328e-01
5.002666e-01
0.000000e+00
1.000000e+00
4.985642e-01
4.999353e-01
4.999994e-01
5.000003e-01
5.000000e-01
5.000000e-01
5.000000e-01
5.000000e-01
5.000000e-01
5.000000e-01
5.000001e-01
5.000000e-01
4.999997e-01
4.999838e-01
4.997164e-01
0.000000e+00
1.000000e+00
5.011851e-01
4.995817e-01
4.999931e-01
5.000014e-01
5.000000e-01
5.000000e-01
5.000000e-01
5.000000e-01
5.000000e-01
5.000001e-01
5.000005e-01
5.000001e-01
5.000011e-01
5.000571e-01
4.997005e-01
0.000000e+00
1.000000e+00
5.032800e-01
4.990291e-01
4.999750e-01
5.000042e-01
5.000001e-01
5.000000e-01
5.000000e-01
5.000000e-01
5.000000e-01
5.000003e-01
5.000014e-01
5.000010e-01
5.000069e-01
5.001274e-01
4.996696e-01
0.000000e+00
1.000000e+00
5.039865e-01
4.988277e-01
4.999657e-01
5.000057e-01
5.000002e-01
5.000000e-01
5.000000e-01
5.000000e-01
5.000000e-01
5.000005e-01
5.000025e-01
5.000027e-01
5.000172e-01
5.002019e-01
4.996804e-01
0.000000e+00
1.000000e+00
5.036243e-01
4.990564e-01
4.999779e-01
5.000033e-01
5.000001e-01
5.000000e-01
5.000000e-01
5.000000e-01
5.000000e-01
5.000006e-01
5.000031e-01
5.000037e-01
5.000233e-01
5.002414e-01
4.996112e-01
0.000000e+00
1.000000e+00
5.022576e-01
4.996088e-01
4.999945e-01
5.000005e-01
5.000000e-01
5.000000e-01
5.000000e-01
5.000000e-01
5.000000e-01
5.000005e-01
5.000023e-01
5.000023e-01
5.000192e-01
5.002231e-01
4.996140e-01
0.000000e+00
1.000000e+00
5.007824e-01
4.999676e-01
4.999997e-01
5.000001e-01
5.000000e-01
5.000000e-01
5.000000e-01
5.000000e-01
5.000000e-01
5.000002e-01
5.000010e-01
5.000000e-01
5.000096e-01
5.001792e-01
4.995417e-01
0.000000e+00
1.000000e+00
4.998238e-01
5.000456e-01
4.999997e-01
5.000000e-01
5.000000e-01
5.000000e-01
5.000000e-01
5.000000e-01
5.000000e-01
5.000001e-01
5.000002e-01
4.999991e-01
5.000031e-01
5.001388e-01
4.994412e-01
0.000000e+00
1.000000e+00
4.995359e-01
4.999639e-01
5.000002e-01
5.000000e-01
5.000000e-01
5.000000e-01
5.000000e-01
5.000000e-01
5.000000e-01
5.000000e-01
5.000000e-01
4.999993e-01
5.000011e-01
5.001306e-01
4.992942e-01
0.000000e+00
1.000000e+00
5.001362e-01
4.999174e-01
5.000001e-01
5.000001e-01
5.000000e-01
5.000000e-01
5.000000e-01
5.000000e-01
5.000000e-01
5.000000e-01
5.000000e-01
4.999996e-01
5.000009e-01
5.001069e-01
4.994930e-01
0.000000e+00
1.000000e+00
5.005625e-01
4.999330e-01
4.999997e-01
5.000002e-01
5.000000e-01
5.000000e-01
5.000000e-01
5.000000e-01
5.000000e-01
5.000000e-01
5.000000e-01
4.999995e-01
5.000004e-01
5.000978e-01
4.994004e-01
0.000000e+00
1.000000e+00
5.007796e-01
4.997797e-01
4.999974e-01
5.000006e-01
5.000000e-01
5.000000e-01
5.000000e-01
5.000000e-01
5.000000e-01
5.000000e-01
4.999998e-01
4.999961e-01
5.000106e-01
5.001461e-01
4.995238e-01
0.000000e+00
1.000000e+00
5.021618e-01
4.991369e-01
4.999868e-01
5.000022e-01
5.000001e-01
5.000000e-01
5.000000e-01
5.000000e-01
5.000000e-01
5.000001e-01
4.999991e-01
4.999804e-01
5.001272e-01
5.021618e-01
4.954453e-01
0.000000e+00
1.000000e+00
5.038463e-01
4.987039e-01
4.999771e-01
5.000031e-01
5.000001e-01
5.000000e-01
5.000000e-01
5.000000e-01
5.000000e-01
5.000001e-01
4.999984e-01
4.999636e-01
5.003266e-01
5.058054e-01
4.824020e-01
0.000000e+00
1.000000e+00
5.004456e-01
4.996632e-01
5.000034e-01
5.000005e-01
5.000000e-01
5.000000e-01
5.000000e-01
5.000000e-01
5.000000e-01
5.000000e-01
5.000000e-01
4.999999e-01
4.999983e-01
4.995382e-01
4.941574e-01
0.000000e+00
1.000000e+00
4.989641e-01
4.998404e-01
5.000022e-01
5.000004e-01
5.000000e-01
5.000000e-01
5.000000e-01
5.000000e-01
5.000000e-01
5.000000e-01
5.000000e-01
4.999999e-01
4.999999e-01
5.000504e-01
5.029530e-01
0.000000e+00
1.000000e+00
4.990381e-01
5.000126e-01
4.999989e-01
5.000003e-01
5.000000e-01
5.000000e-01
5.000000e-01
5.000000e-01
5.000000e-01
5.000000e-01
5.000002e-01
5.000002e-01
5.000001e-01
4.999189e-01
5.006346e-01
0.000000e+00
1.000000e+00
5.004755e-01
4.999548e-01
4.999972e-01
5.000007e-01
5.000000e-01
5.000000e-01
5.000000e-01
5.000000e-01
5.000000e-01
5.000003e-01
5.000017e-01
5.000028e-01
5.000055e-01
5.000179e-01
4.997511e-01
0.000000e+00
1.000000e+00
5.021262e-01
4.996802e-01
4.999900e-01
5.000018e-01
5.000001e-01
5.000001e-01
5.000001e-01
5.000001e-01
5.000000e-01
5.000013e-01
5.000072e-01
5.000130e-01
5.000375e-01
5.003019e-01
4.995338e-01
0.000000e+00
1.000000e+00
5.033210e-01
4.993386e-01
4.999779e-01
5.000035e-01
5.000002e-01
5.000002e-01
5.000002e-01
5.000001e-01
5.000001e-01
5.000034e-01
5.000163e-01
5.000319e-01
5.001061e-01
5.007591e-01
4.993181e-01
0.000000e+00
1.000000e+00
5.033021e-01
4.992802e-01
4.999775e-01
5.000035e-01
5.000001e-01
5.000001e-01
5.000002e-01
5.000001e-01
4.999997e-01
5.000051e-01
5.000243e-01
5.000489e-01
5.001808e-01
5.011874e-01
4.989510e-01
0.000000e+00
1.000000e+00
5.027766e-01
4.993942e-01
4.999866e-01
5.000021e-01
5.000001e-01
5.000001e-01
5.000002e-01
4.999999e-01
4.999996e-01
5.000059e-01
5.000273e-01
5.000581e-01
5.002259e-01
5.013726e-01
4.988377e-01
0.000000e+00
1.000000e+00
5.020837e-01
4.995992e-01
4.999949e-01
5.000006e-01
5.000000e-01
5.000001e-01
5.000003e-01
5.000001e-01
4.999999e-01
5.000056e-01
5.000248e-01
5.000563e-01
5.002150e-01
5.012538e-01
4.989004e-01
0.000000e+00
1.000000e+00
5.011743e-01
4.998223e-01
4.999997e-01
5.000000e-01
5.000000e-01
5.000001e-01
5.000002e-01
5.000001e-01
5.000002e-01
5.000035e-01
5.000163e-01
5.000375e-01
5.001410e-01
5.008941e-01
4.989784e-01
0.000000e+00
1.000000e+00
5.002330e-01
4.999865e-01
5.000003e-01
5.000000e-01
5.000000e-01
5.000000e-01
5.000000e-01
5.000001e-01
5.000001e-01
5.000014e-01
5.000069e-01
5.000140e-01
5.000591e-01
5.005033e-01
4.992103e-01
0.000000e+00
1.000000e+00
4.996217e-01
5.000122e-01
4.999999e-01
5.000000e-01
5.000000e-01
5.000000e-01
5.000000e-01
5.000000e-01
5.000000e-01
5.000003e-01
5.000016e-01
5.000017e-01
5.000153e-01
5.002748e-01
4.991655e-01
0.000000e+00
1.000000e+00
4.997043e-01
4.999705e-01
5.000002e-01
5.000000e-01
5.000000e-01
5.000000e-01
5.000000e-01
5.000000e-01
5.000000e-01
5.000000e-01
5.000001e-01
4.999992e-01
5.000032e-01
5.001616e-01
4.993680e-01
0.000000e+00
1.000000e+00
5.000090e-01
4.999605e-01
5.000003e-01
5.000000e-01
5.000000e-01
5.000000e-01
5.000000e-01
5.000000e-01
5.000000e-01
5.000000e-01
4.999999e-01
4.999990e-01
5.000015e-01
5.001317e-01
4.992387e-01
0.000000e+00
1.000000e+00
5.005061e-01
4.997630e-01
4.999992e-01
5.000006e-01
5.000000e-01
5.000000e-01
5.000000e-01
5.000000e-01
5.000000e-01
5.000001e-01
4.999996e-01
4.999947e-01
5.000149e-01
5.001919e-01
4.993450e-01
0.000000e+00
1.000000e+00
5.024527e-01
4.990264e-01
4.999829e-01
5.000031e-01
5.000001e-01
5.000000e-01
5.000000e-01
5.000000e-01
5.000000e-01
5.000002e-01
4.999980e-01
4.999751e-01
5.001556e-01
5.022812e-01
4.952185e-01
0.000000e+00
1.000000e+00
5.046500e-01
4.985270e-01
4.999647e-01
5.000045e-01
5.000002e-01
5.000000e-01
5.000000e-01
5.000000e-01
5.000000e-01
5.000003e-01
4.999967e-01
4.999570e-01
5.003896e-01
5.060094e-01
4.820900e-01
0.000000e+00
1.000000e+00
5.033719e-01
4.989190e-01
4.999938e-01
5.000022e-01
5.000001e-01
5.000000e-01
5.000000e-01
5.000000e-01
5.000000e-01
5.000000e-01
5.000000e-01
4.999998e-01
4.999968e-01
4.993871e-01
4.929393e-01
0.000000e+00
1.000000e+00
5.026653e-01
4.992146e-01
4.999948e-01
5.000018e-01
5.000001e-01
5.000000e-01
5.000000e-01
5.000000e-01
5.000000e-01
5.000000e-01
5.000000e-01
4.999999e-01
4.999996e-01
5.000458e-01
5.027960e-01
0.000000e+00
1.000000e+00
5.022126e-01
4.995469e-01
4.999947e-01
5.000014e-01
5.000001e-01
5.000000e-01
5.000000e-01
5.000000e-01
5.000000e-01
5.000004e-01
5.000017e-01
5.000024e-01
5.000046e-01
4.999640e-01
5.006121e-01
0.000000e+00
1.000000e+00
5.024976e-01
4.996167e-01
4.999900e-01
5.000019e-01
5.000001e-01
5.000002e-01
5.000005e-01
5.000006e-01
5.000003e-01
5.000024e-01
5.000070e-01
4.999998e-01
5.000237e-01
5.003396e-01
4.994401e-01
0.000000e+00
1.000000e+00
5.032658e-01
4.994657e-01
4.999816e-01
5.000027e-01
5.000002e-01
5.000010e-01
5.000036e-01
5.000037e-01
4.999999e-01
5.000066e-01
5.000026e-01
4.999040e-01
4.998811e-01
5.008946e-01
4.979562e-01
0.000000e+00
1.000000e+00
5.032976e-01
4.994098e-01
4.999783e-01
5.000030e-01
5.000003e-01
5.000019e-01
5.000089e-01
5.000056e-01
4.999978e-01
5.000148e-01
4.999732e-01
4.996047e-01
4.992085e-01
5.004210e-01
4.937207e-01
0.000000e+00
1.000000e+00
5.025895e-01
4.994865e-01
4.999854e-01
5.000021e-01
5.000002e-01
5.000010e-01
5.000069e-01
5.000027e-01
4.999959e-01
5.000209e-01
4.999671e-01
4.992976e-01
4.982969e-01
4.990226e-01
4.883862e-01
0.000000e+00
1.000000e+00
5.017833e-01
4.995790e-01
4.999923e-01
5.000014e-01
5.000001e-01
5.000005e-01
5.000046e-01
5.000013e-01
4.999957e-01
5.000191e-01
4.999769e-01
4.991917e-01
4.978535e-01
4.981006e-01
4.860947e-01
0.000000e+00
1.000000e+00
5.014309e-01
4.996783e-01
4.999964e-01
5.000005e-01
5.000001e-01
5.000007e-01
5.000033e-01
5.000029e-01
4.999980e-01
5.000132e-01
4.999566e-01
4.992639e-01
4.981993e-01
4.988118e-01
4.888585e-01
0.000000e+00
1.000000e+00
5.012226e-01
4.997334e-01
5.000002e-01
4.999999e-01
5.000000e-01
5.000004e-01
5.000013e-01
5.000027e-01
5.000025e-01
5.000101e-01
4.999734e-01
4.996000e-01
4.992055e-01
5.003355e-01
4.940362e-01
0.000000e+00
1.000000e+00
5.006338e-01
4.998549e-01
5.000014e-01
4.999999e-01
5.000000e-01
5.000002e-01
5.000004e-01
5.000008e-01
5.000021e-01
5.000078e-01
5.000038e-01
4.999119e-01
4.998918e-01
5.009045e-01
4.975152e-01
0.000000e+00
1.000000e+00
4.999214e-01
4.999484e-01
5.000004e-01
5.000000e-01
5.000000e-01
5.000000e-01
5.000001e-01
5.000001e-01
5.000002e-01
5.000022e-01
5.000077e-01
5.000039e-01
5.000454e-01
5.006369e-01
4.986902e-01
0.000000e+00
1.000000e+00
4.996761e-01
4.999422e-01
5.000000e-01
5.000000e-01
5.000000e-01
5.000000e-01
5.000000e-01
5.000000e-01
5.000000e-01
5.000003e-01
5.000018e-01
5.000019e-01
5.000185e-01
5.003088e-01
4.991414e-01
0.000000e+00
1.000000e+00
4.998829e-01
4.999289e-01
5.000002e-01
5.000000e-01
5.000000e-01
5.000000e-01
5.000000e-01
5.000000e-01
5.000000e-01
5.000000e-01
4.999999e-01
4.999980e-01
5.000042e-01
5.002005e-01
4.990129e-01
0.000000e+00
1.000000e+00
5.008376e-01
4.997666e-01
4.999998e-01
5.000004e-01
5.000000e-01
5.000000e-01
5.000000e-01
5.000000e-01
5.000000e-01
5.000001e-01
4.999992e-01
4.999919e-01
5.000217e-01
5.002885e-01
4.991065e-01
0.000000e+00
1.000000e+00
5.035794e-01
4.992213e-01
4.999852e-01
5.000016e-01
5.000001e-01
5.000000e-01
5.000000e-01
5.000000e-01
5.000000e-01
5.000003e-01
4.999967e-01
4.999687e-01
5.001879e-01
5.025126e-01
4.948880e-01
0.000000e+00
1.000000e+00
5.064499e-01
4.988472e-01
4.999673e-01
5.000022e-01
5.000001e-01
5.000000e-01
5.000000e-01
5.000000e-01
5.000001e-01
5.000004e-01
4.999947e-01
4.999514e-01
5.004445e-01
5.063227e-01
4.816886e-01
0.000000e+00
1.000000e+00
5.056973e-01
4.978550e-01
4.999432e-01
5.000090e-01
5.000006e-01
4.999999e-01
5.000000e-01
5.000000e-01
5.000000e-01
5.000000e-01
5.000000e-01
4.999996e-01
4.999950e-01
4.992389e-01
4.920501e-01
0.000000e+00
1.000000e+00
5.051565e-01
4.983591e-01
4.999495e-01
5.000082e-01
5.000005e-01
5.000000e-01
5.000000e-01
5.000000e-01
5.000000e-01
5.000001e-01
5.000003e-01
5.000000e-01
4.999991e-01
5.000218e-01
5.026595e-01
0.000000e+00
1.000000e+00
5.046736e-01
4.989762e-01
4.999607e-01
5.000062e-01
5.000004e-01
5.000000e-01
5.000000e-01
5.000000e-01
5.000001e-01
5.000015e-01
5.000065e-01
5.000107e-01
5.000384e-01
5.001508e-01
5.004979e-01
0.000000e+00
1.000000e+00
5.043297e-01
4.991461e-01
4.999657e-01
5.000050e-01
5.000004e-01
5.000007e-01
5.000022e-01
5.000020e-01
5.000004e-01
5.000073e-01
5.000029e-01
4.999090e-01
4.999308e-01
5.011001e-01
4.985464e-01
0.000000e+00
1.000000e+00
5.036238e-01
4.991916e-01
4.999700e-01
5.000042e-01
5.000005e-01
5.000035e-01
5.000156e-01
5.000531e-01
5.001535e-01
5.002089e-01
4.999946e-01
4.992586e-01
4.984281e-01
4.997981e-01
4.914888e-01
0.000000e+00
1.000000e+00
5.024638e-01
4.993409e-01
4.999815e-01
5.000029e-01
5.000006e-01
5.000066e-01
5.000336e-01
5.002940e-01
5.005695e-01
5.001784e-01
4.999296e-01
4.985006e-01
4.958362e-01
4.950480e-01
4.832009e-01
0.000000e+00
1.000000e+00
5.014742e-01
4.995191e-01
4.999936e-01
5.000013e-01
5.000005e-01
5.000059e-01
5.000059e-01
5.005895e-01
5.007825e-01
4.998340e-01
4.995561e-01
4.990339e-01
4.961798e-01
4.933718e-01
4.796896e-01
0.000000e+00
1.000000e+00
5.001842e-01
4.996823e-01
4.999978e-01
5.000004e-01
5.000001e-01
5.000049e-01
4.999797e-01
5.004742e-01
5.008621e-01
4.998927e-01
4.993266e-01
4.992793e-01
4.967028e-01
4.938967e-01
4.783481e-01
0.000000e+00
1.000000e+00
5.000625e-01
4.998420e-01
4.999991e-01
5.000001e-01
5.000001e-01
5.000031e-01
4.999974e-01
5.001659e-01
5.006500e-01
5.006185e-01
5.003359e-01
4.989145e-01
4.956249e-01
4.928410e-01
4.764694e-01
0.000000e+00
1.000000e+00
5.001903e-01
4.998805e-01
5.000016e-01
4.999998e-01
5.000001e-01
5.000020e-01
5.000064e-01
5.000237e-01
5.001904e-01
5.004436e-01
5.000364e-01
4.982100e-01
4.954649e-01
4.947531e-01
4.813637e-01
0.000000e+00
1.000000e+00
5.001970e-01
4.998547e-01
5.000027e-01
4.999998e-01
5.000001e-01
5.000007e-01
5.000030e-01
5.000024e-01
5.000010e-01
5.000546e-01
4.999318e-01
4.990995e-01
4.982056e-01
4.990131e-01
4.910589e-01
0.000000e+00
1.000000e+00
4.998659e-01
4.999007e-01
5.000012e-01
5.000000e-01
5.000000e-01
5.000001e-01
5.000004e-01
5.000007e-01
5.000018e-01
5.000084e-01
5.000037e-01
4.998994e-01
4.998552e-01
5.008350e-01
4.971258e-01
0.000000e+00
1.000000e+00
4.995727e-01
4.998892e-01
5.000003e-01
5.000001e-01
5.000000e-01
5.000000e-01
5.000000e-01
5.000000e-01
5.000001e-01
5.000016e-01
5.000083e-01
5.000163e-01
5.000664e-01
5.005641e-01
4.988931e-01
0.000000e+00
1.000000e+00
4.995790e-01
4.998715e-01
5.000001e-01
5.000001e-01
5.000000e-01
5.000000e-01
5.000000e-01
5.000000e-01
5.000000e-01
5.000001e-01
5.000003e-01
4.999980e-01
5.000096e-01
5.002761e-01
4.988858e-01
0.000000e+00
1.000000e+00
5.001172e-01
4.997874e-01
5.000005e-01
5.000002e-01
5.000000e-01
5.000000e-01
5.000000e-01
5.000000e-01
5.000000e-01
5.000001e-01
4.999989e-01
4.999903e-01
5.000254e-01
5.003420e-01
4.989891e-01
0.000000e+00
1.000000e+00
5.022661e-01
4.994950e-01
4.999952e-01
5.000006e-01
5.000000e-01
5.000000e-01
5.000000e-01
5.000000e-01
5.000001e-01
5.000003e-01
4.999960e-01
4.999645e-01
5.002081e-01
5.026550e-01
4.946347e-01
0.000000e+00
1.000000e+00
5.051008e-01
4.992781e-01
4.999861e-01
5.000009e-01
5.000000e-01
5.000000e-01
5.000000e-01
5.000000e-01
5.000001e-01
5.000004e-01
4.999937e-01
4.999449e-01
5.004815e-01
5.065919e-01
4.812494e-01
0.000000e+00
1.000000e+00
5.085856e-01
4.969477e-01
4.998490e-01
5.000223e-01
5.000020e-01
4.999998e-01
5.000000e-01
5.000000e-01
5.000000e-01
5.000000e-01
4.999999e-01
4.999993e-01
4.999923e-01
4.990935e-01
4.915674e-01
0.000000e+00
1.000000e+00
5.077215e-01
4.974904e-01
4.998669e-01
5.000204e-01
5.000017e-01
4.999999e-01
5.000000e-01
5.000000e-01
5.000000e-01
5.000002e-01
5.000010e-01
5.000008e-01
5.000000e-01
5.000257e-01
5.026192e-01
0.000000e+00
1.000000e+00
5.062991e-01
4.982716e-01
4.999081e-01
5.000147e-01
5.000011e-01
5.000001e-01
5.000002e-01
5.000001e-01
5.000000e-01
5.000025e-01
5.000135e-01
5.000260e-01
5.001236e-01
5.006942e-01
5.004200e-01
0.000000e+00
1.000000e+00
5.048313e-01
4.987401e-01
4.999441e-01
5.000085e-01
5.000007e-01
5.000016e-01
5.000066e-01
5.000017e-01
4.999972e-01
5.000135e-01
4.999826e-01
4.996400e-01
4.994013e-01
5.014992e-01
4.943437e-01
0.000000e+00
1.000000e+00
5.031413e-01
4.990105e-01
4.999706e-01
5.000047e-01
5.000005e-01
5.000060e-01
5.000251e-01
5.002642e-01
5.005007e-01
5.000567e-01
4.999158e-01
4.985765e-01
4.958399e-01
4.956690e-01
4.771106e-01
0.000000e+00
1.000000e+00
5.009829e-01
4.991889e-01
4.999906e-01
5.000025e-01
4.999992e-01
5.000130e-01
5.000528e-01
5.012124e-01
5.029556e-01
5.022978e-01
5.007039e-01
5.015362e-01
5.146894e-01
5.180287e-01
4.917543e-01
0.000000e+00
1.000000e+00
5.007621e-01
4.995005e-01
4.999971e-01
4.999994e-01
4.999955e-01
5.000159e-01
5.001462e-01
5.016881e-01
5.092068e-01
4.952160e-01
4.891830e-01
4.979826e-01
5.365376e-01
5.689348e-01
5.448254e-01
0.000000e+00
1.000000e+00
5.000925e-01
4.997538e-01
4.999991e-01
4.999979e-01
4.999922e-01
5.000104e-01
5.002694e-01
5.004885e-01
5.108892e-01
4.950961e-01
4.855608e-01
4.984704e-01
5.349134e-01
5.835405e-01
5.904926e-01
0.000000e+00
1.000000e+00
4.989100e-01
4.999156e-01
5.000007e-01
4.999990e-01
4.999962e-01
5.000042e-01
5.001224e-01
5.007682e-01
5.012314e-01
5.086083e-01
4.909012e-01
4.976409e-01
5.367327e-01
5.654128e-01
5.469098e-01
0.000000e+00
1.000000e+00
4.988400e-01
5.000383e-01
5.000007e-01
4.999998e-01
4.999998e-01
5.000058e-01
5.000432e-01
5.004005e-01
5.000747e-01
5.014436e-01
5.012088e-01
5.027555e-01
5.152467e-01
5.166416e-01
4.897870e-01
0.000000e+00
1.000000e+00
4.994388e-01
4.999530e-01
5.000024e-01
4.999999e-01
5.000002e-01
5.000022e-01
5.000095e-01
5.000238e-01
5.001686e-01
5.004115e-01
4.999232e-01
4.979594e-01
4.953290e-01
4.945620e-01
4.822969e-01
0.000000e+00
1.000000e+00
4.996479e-01
4.998895e-01
5.000016e-01
5.000001e-01
5.000000e-01
5.000003e-01
5.000012e-01
5.000026e-01
5.000045e-01
5.000176e-01
4.999614e-01
4.995227e-01
4.990361e-01
4.999787e-01
4.936612e-01
0.000000e+00
1.000000e+00
4.995677e-01
4.998510e-01
5.000006e-01
5.000002e-01
5.000000e-01
5.000000e-01
5.000000e-01
5.000001e-01
5.000002e-01
5.000043e-01
5.000200e-01
5.000425e-01
5.001417e-01
5.008711e-01
4.985901e-01
0.000000e+00
1.000000e+00
4.994812e-01
4.998594e-01
5.000003e-01
5.000001e-01
5.000000e-01
5.000000e-01
5.000000e-01
5.000000e-01
5.000000e-01
5.000003e-01
5.000015e-01
5.000002e-01
5.000200e-01
5.003504e-01
4.989015e-01
0.000000e+00
1.000000e+00
4.993102e-01
4.998846e-01
5.000006e-01
5.000001e-01
5.000000e-01
5.000000e-01
5.000000e-01
5.000000e-01
5.000000e-01
5.000001e-01
4.999989e-01
4.999901e-01
5.000247e-01
5.003458e-01
4.989809e-01
0.000000e+00
1.000000e+00
5.001984e-01
4.996977e-01
5.000003e-01
5.000003e-01
5.000000e-01
5.000000e-01
5.000000e-01
5.000000e-01
5.000000e-01
5.000003e-01
4.999962e-01
4.999626e-01
5.002149e-01
5.027244e-01
4.945383e-01
0.000000e+00
1.000000e+00
5.022254e-01
4.995429e-01
4.999970e-01
5.000005e-01
5.000000e-01
5.000000e-01
5.000000e-01
5.000000e-01
5.000001e-01
5.000005e-01
4.999937e-01
4.999380e-01
5.005070e-01
5.069192e-01
4.807201e-01
0.000000e+00
1.000000e+00
5.110708e-01
4.962053e-01
4.997179e-01
5.000376e-01
5.000043e-01
4.999997e-01
5.000000e-01
5.000000e-01
5.000000e-01
5.000000e-01
4.999999e-01
4.999988e-01
4.999880e-01
4.989564e-01
4.912023e-01
0.000000e+00
1.000000e+00
5.097687e-01
4.968048e-01
4.997673e-01
5.000325e-01
5.000035e-01
4.999997e-01
5.000000e-01
5.000000e-01
5.000000e-01
5.000003e-01
5.000016e-01
5.000023e-01
5.000028e-01
5.000647e-01
5.025910e-01
0.000000e+00
1.000000e+00
5.070765e-01
4.978670e-01
4.998720e-01
5.000192e-01
5.000019e-01
5.000003e-01
5.000002e-01
5.000001e-01
4.999999e-01
5.000029e-01
5.000182e-01
5.000392e-01
5.002190e-01
5.014719e-01
5.005734e-01
0.000000e+00
1.000000e+00
5.040441e-01
4.986490e-01
4.999503e-01
5.000082e-01
5.000008e-01
5.000019e-01
5.000113e-01
4.999964e-01
4.999912e-01
5.000070e-01
5.000128e-01
4.993795e-01
4.985585e-01
5.006728e-01
4.830937e-01
0.000000e+00
1.000000e+00
5.016238e-01
4.989924e-01
4.999857e-01
5.000033e-01
4.999996e-01
5.000056e-01
5.000031e-01
5.005456e-01
5.007316e-01
4.996165e-01
4.990769e-01
4.991576e-01
4.960654e-01
4.934681e-01
4.745053e-01
0.000000e+00
1.000000e+00
5.006530e-01
4.992386e-01
4.999931e-01
4.999995e-01
4.999938e-01
5.000195e-01
5.001332e-01
5.017281e-01
5.083692e-01
4.946459e-01
4.881731e-01
4.985092e-01
5.330346e-01
5.659697e-01
5.555970e-01
0.000000e+00
1.000000e+00
5.024399e-01
4.996902e-01
4.999932e-01
4.999941e-01
4.999785e-01
5.000722e-01
5.007000e-01
5.045683e-01
5.119549e-01
5.613272e-01
6.225669e-01
6.790659e-01
7.236299e-01
7.551036e-01
6.149918e-01
0.000000e+00
1.000000e+00
5.024315e-01
4.999677e-01
4.999991e-01
4.999928e-01
4.999674e-01
5.001083e-01
5.010329e-01
5.078689e-01
4.952539e-01
5.626213e-01
6.238687e-01
7.007852e-01
7.491737e-01
7.705613e-01
7.407719e-01
0.000000e+00
1.000000e+00
4.995402e-01
5.000066e-01
5.000009e-01
4.999964e-01
4.999828e-01
5.000392e-01
5.003912e-01
5.036009e-01
5.068358e-01
4.794717e-01
5.697614e-01
6.495213e-01
7.093357e-01
7.473613e-01
6.338951e-01
0.000000e+00
1.000000e+00
4.984298e-01
5.000804e-01
4.999995e-01
4.999993e-01
4.999972e-01
5.000053e-01
5.001490e-01
5.007427e-01
5.015684e-01
5.081933e-01
4.915566e-01
5.004281e-01
5.419294e-01
5.684939e-01
5.421591e-01
0.000000e+00
1.000000e+00
4.984611e-01
4.999818e-01
5.000011e-01
5.000000e-01
5.000002e-01
5.000041e-01
5.000023e-01
5.001342e-01
5.006218e-01
5.008931e-01
5.003334e-01
4.983280e-01
4.953777e-01
4.928058e-01
4.782552e-01
0.000000e+00
1.000000e+00
4.990743e-01
4.998150e-01
5.000011e-01
5.000003e-01
5.000001e-01
5.000003e-01
5.000019e-01
5.000033e-01
5.000039e-01
5.000237e-01
4.999102e-01
4.990916e-01
4.979160e-01
4.982639e-01
4.894270e-01
0.000000e+00
1.000000e+00
4.996450e-01
4.997436e-01
4.999998e-01
5.000003e-01
5.000000e-01
5.000000e-01
5.000000e-01
5.000001e-01
5.000004e-01
5.000072e-01
5.000300e-01
5.000629e-01
5.002000e-01
5.011079e-01
4.982406e-01
0.000000e+00
1.000000e+00
4.997410e-01
4.998334e-01
4.999994e-01
5.000001e-01
5.000000e-01
5.000000e-01
5.000000e-01
5.000000e-01
5.000000e-01
5.000006e-01
5.000029e-01
5.000035e-01
5.000324e-01
5.004255e-01
4.989139e-01
0.000000e+00
1.000000e+00
4.992519e-01
4.999727e-01
4.999995e-01
5.000000e-01
5.000000e-01
5.000000e-01
5.000000e-01
5.000000e-01
5.000000e-01
5.000001e-01
4.999991e-01
4.999909e-01
5.000221e-01
5.003549e-01
4.990178e-01
0.000000e+00
1.000000e+00
4.992642e-01
4.998561e-01
5.000004e-01
5.000001e-01
5.000000e-01
5.000000e-01
5.000000e-01