<?xml version="1.0"?>
<VTKFile type="StructuredGrid" version="0.1">
  <StructuredGrid WholeExtent="0 16 0 16 0 16">
    <Piece Extent="0 16 0 16 0 16">
      <PointData Scalars="temperature" Vectors="velocity">
        <DataArray type="Float32" Name="temperature" format="ascii">
1.000000e+00
9.687826e-01
9.375650e-01
9.063819e-01
8.850086e-01
8.439469e-01
8.126100e-01
7.813600e-01
7.501006e-01
7.188403e-01
6.875802e-01
6.563201e-01
6.250611e-01
5.938028e-01
5.625454e-01
5.312855e-01
5.000604e-01
1.000000e+00
9.687763e-01
9.375530e-01
9.063614e-01
8.833200e-01
8.439098e-01
8.125908e-01
7.813407e-01
7.500829e-01
7.188243e-01
6.875658e-01
6.563075e-01
6.250500e-01
5.937931e-01
5.625370e-01
5.312782e-01
5.000541e-01
1.000000e+00
9.687597e-01
9.375225e-01
9.063018e-01
8.788240e-01
8.438169e-01
8.125393e-01
7.812891e-01
7.500355e-01
7.187815e-01
6.875277e-01
6.562738e-01
6.250204e-01
5.937673e-01
5.625145e-01
5.312587e-01
5.000371e-01
1.000000e+00
9.687349e-01
9.374809e-01
9.062118e-01
8.730387e-01
8.437110e-01
8.124719e-01
7.812227e-01
7.499745e-01
7.187266e-01
6.874786e-01
6.562306e-01
6.249824e-01
5.937341e-01
5.624856e-01
5.312335e-01
5.000153e-01
1.000000e+00
9.687167e-01
9.374484e-01
9.061217e-01
8.679147e-01
8.436300e-01
8.124111e-01
7.811639e-01
7.499205e-01
7.186779e-01
6.874351e-01
6.561923e-01
6.249487e-01
5.937046e-01
5.624599e-01
5.312111e-01
4.999958e-01
1.000000e+00
9.687057e-01
9.374294e-01
9.060693e-01
8.651770e-01
8.435917e-01
8.123783e-01
7.811325e-01
7.498917e-01
7.186518e-01
6.874117e-01
6.561717e-01
6.249306e-01
5.936887e-01
5.624460e-01
5.311991e-01
4.999854e-01
1.000000e+00
9.687079e-01
9.374331e-01
9.060803e-01
8.657462e-01
8.435993e-01
8.123850e-01
7.811389e-01
7.498975e-01
7.186570e-01
6.874164e-01
6.561757e-01
6.249341e-01
5.936918e-01
5.624487e-01
5.312014e-01
4.999874e-01
1.000000e+00
9.687225e-01
9.374582e-01
9.061496e-01
8.694308e-01
8.436525e-01
8.124289e-01
7.811809e-01
7.499361e-01
7.186917e-01
6.874474e-01
6.562030e-01
6.249580e-01
5.937127e-01
5.624669e-01
5.312172e-01
5.000011e-01
1.000000e+00
9.687422e-01
9.374936e-01
9.062433e-01
8.749915e-01
8.437445e-01
8.124942e-01
7.812444e-01
7.499943e-01
7.187442e-01
6.874942e-01
6.562442e-01
6.249943e-01
5.937444e-01
5.624945e-01
5.312412e-01
5.000219e-01
1.000000e+00
9.687666e-01
9.375349e-01
9.063258e-01
8.805551e-01
8.438506e-01
8.125583e-01
7.813078e-01
7.500525e-01
7.187968e-01
6.875411e-01
6.562856e-01
6.250307e-01
5.937762e-01
5.625222e-01
5.312653e-01
5.000428e-01
1.000000e+00
9.687796e-01
9.375593e-01
9.063723e-01
8.842451e-01
8.439288e-01
8.126002e-01
7.813500e-01
7.500913e-01
7.188317e-01
6.875724e-01
6.563132e-01
6.250550e-01
5.937975e-01
5.625408e-01
5.312815e-01
5.000570e-01
1.000000e+00
9.687819e-01
9.375633e-01
9.063792e-01
8.848153e-01
8.439415e-01
8.126067e-01
7.813567e-01
7.500976e-01
7.188376e-01
6.875778e-01
6.563181e-01
6.250594e-01
5.938014e-01
5.625444e-01
5.312847e-01
5.000598e-01
1.000000e+00
9.687715e-01
9.375440e-01
9.063450e-01
8.820730e-01
8.438822e-01
8.125759e-01
7.813260e-01
7.500697e-01
7.188127e-01
6.875558e-01
6.562989e-01
6.250427e-01
5.937870e-01
5.625320e-01
5.312740e-01
5.000506e-01
1.000000e+00
9.687509e-01
9.375078e-01
9.062733e-01
8.769446e-01
8.437807e-01
8.125177e-01
7.812684e-01
7.500173e-01
7.187658e-01
6.875142e-01
6.562626e-01
6.250110e-01
5.937595e-01
5.625082e-01
5.312535e-01
5.000329e-01
1.000000e+00
9.687286e-01
9.374685e-01
9.061798e-01
8.711607e-01
8.436805e-01
8.124511e-01
7.812037e-01
7.499582e-01
7.187129e-01
6.874673e-01
6.562215e-01
6.249752e-01
5.937284e-01
5.624812e-01
5.312302e-01
5.000128e-01
1.000000e+00
9.687115e-01
9.374391e-01
9.060984e-01
8.666708e-01
8.436134e-01
8.123988e-01
7.811536e-01
7.499125e-01
7.186719e-01
6.874309e-01
6.561897e-01
6.249474e-01
5.937043e-01
5.624603e-01
5.312121e-01
4.999972e-01
1.000000e+00
9.687051e-01
9.374283e-01
9.060660e-01
8.649858e-01
8.435907e-01
8.123790e-01
7.811347e-01
7.498952e-01
7.186564e-01
6.874171e-01
6.561775e-01
6.249367e-01
5.936950e-01
5.624523e-01
5.312052e-01
4.999912e-01
1.000000e+00
9.687798e-01
9.375596e-01
9.063729e-01
8.842461e-01
8.439298e-01
8.126012e-01
7.813512e-01
7.500925e-01
7.188330e-01
6.875737e-01
6.563144e-01
6.250561e-01
5.937985e-01
5.625417e-01
5.312823e-01
5.000576e-01
1.000000e+00
9.687739e-01
9.375486e-01
9.063536e-01
8.826862e-01
8.438960e-01
8.125836e-01
7.813333e-01
7.500761e-01
7.188182e-01
6.875604e-01
6.563027e-01
6.250458e-01
5.937895e-01
5.625339e-01
5.312755e-01
5.000517e-01
1.000000e+00
9.687583e-01
9.375201e-01
9.062976e-01
8.785327e-01
8.438111e-01
8.125360e-01
7.812857e-01
7.500324e-01
7.187787e-01
6.875251e-01
6.562716e-01
6.250185e-01
5.937656e-01
5.625131e-01
5.312574e-01
5.000361e-01
1.000000e+00
9.687361e-01
9.374823e-01
9.062146e-01
8.731878e-01
8.437135e-01
8.124737e-01
7.812244e-01
7.499761e-01
7.187280e-01
6.874798e-01
6.562317e-01
6.249834e-01
5.937349e-01
5.624863e-01
5.312342e-01
5.000159e-01
1.000000e+00
9.687186e-01
9.374514e-01
9.061318e-01
8.684536e-01
8.436379e-01
8.124176e-01
7.811701e-01
7.499262e-01
7.186830e-01
6.874397e-01
6.561963e-01
6.249522e-01
5.937077e-01
5.624626e-01
5.312135e-01
4.999979e-01
1.000000e+00
9.687085e-01
9.374342e-01
9.060839e-01
8.659240e-01
8.436017e-01
8.123873e-01
7.811410e-01
7.498995e-01
7.186589e-01
6.874181e-01
6.561773e-01
6.249355e-01
5.936931e-01
5.624498e-01
5.312024e-01
4.999883e-01
1.000000e+00
9.687106e-01
9.374377e-01
9.060940e-01
8.664499e-01
8.436090e-01
8.123935e-01
7.811470e-01
7.499049e-01
7.186638e-01
6.874224e-01
6.561810e-01
6.249388e-01
5.936959e-01
5.624523e-01
5.312045e-01
4.999901e-01
1.000000e+00
9.687240e-01
9.374606e-01
9.061572e-01
8.698544e-01
8.436590e-01
8.124340e-01
7.811858e-01
7.499406e-01
7.186958e-01
6.874510e-01
6.562062e-01
6.249609e-01
5.937152e-01
5.624691e-01
5.312191e-01
5.000028e-01
1.000000e+00
9.687430e-01
9.374943e-01
9.062436e-01
8.749920e-01
8.437445e-01
8.124943e-01
7.812444e-01
7.499943e-01
7.187443e-01
6.874943e-01
6.562443e-01
6.249944e-01
5.937445e-01
5.624946e-01
5.312413e-01
5.000220e-01
1.000000e+00
9.687645e-01
9.375313e-01
9.063198e-01
8.801320e-01
8.438421e-01
8.125535e-01
7.813031e-01
7.500482e-01
7.187928e-01
6.875376e-01
6.562825e-01
6.250280e-01
5.937738e-01
5.625202e-01
5.312635e-01
5.000413e-01
1.000000e+00
9.687770e-01
9.375543e-01
9.063639e-01
8.835408e-01
8.439134e-01
8.125923e-01
7.813420e-01
7.500840e-01
7.188251e-01
6.875665e-01
6.563081e-01
6.250505e-01
5.937936e-01
5.625374e-01
5.312786e-01
5.000544e-01
1.000000e+00
9.687790e-01
9.375580e-01
9.063704e-01
8.840675e-01
8.439250e-01
8.125983e-01
7.813482e-01
7.500898e-01
7.188305e-01
6.875715e-01
6.563125e-01
6.250546e-01
5.937972e-01
5.625407e-01
5.312815e-01
5.000570e-01
1.000000e+00
9.687692e-01
9.375401e-01
9.063382e-01
8.815342e-01
8.438710e-01
8.125698e-01
7.813198e-01
7.500640e-01
7.188076e-01
6.875512e-01
6.562948e-01
6.250392e-01
5.937839e-01
5.625292e-01
5.312716e-01
5.000485e-01
1.000000e+00
9.687505e-01
9.375068e-01
9.062712e-01
8.767963e-01
8.437779e-01
8.125160e-01
7.812667e-01
7.500156e-01
7.187642e-01
6.875128e-01
6.562613e-01
6.250099e-01
5.937585e-01
5.625072e-01
5.312526e-01
5.000321e-01
1.000000e+00
9.687298e-01
9.374704e-01
9.061849e-01
8.714527e-01
8.436851e-01
8.124545e-01
7.812068e-01
7.499610e-01
7.187154e-01
6.874695e-01
6.562234e-01
6.249768e-01
5.937298e-01
5.624823e-01
5.312311e-01
5.000136e-01
1.000000e+00
9.687139e-01
9.374432e-01
9.061105e-01
8.673042e-01
8.436223e-01
8.124062e-01
7.811605e-01
7.499188e-01
7.186775e-01
6.874359e-01
6.561940e-01
6.249510e-01
5.937074e-01
5.624630e-01
5.312144e-01
4.999991e-01
1.000000e+00
9.687079e-01
9.374332e-01
9.060809e-01
8.657473e-01
8.436009e-01
8.123880e-01
7.811431e-01
7.499028e-01
7.186632e-01
6.874231e-01
6.561827e-01
6.249412e-01
5.936989e-01
5.624556e-01
5.312080e-01
4.999936e-01
1.000000e+00
9.687715e-01
9.375442e-01
9.063459e-01
8.820748e-01
8.438828e-01
8.125764e-01
7.813261e-01
7.500696e-01
7.188123e-01
6.875552e-01
6.562982e-01
6.250419e-01
5.937861e-01
5.625310e-01
5.312730e-01
5.000496e-01
1.000000e+00
9.687669e-01
9.375358e-01
9.063303e-01
8.808812e-01
8.438580e-01
8.125629e-01
7.813125e-01
7.500570e-01
7.188010e-01
6.875451e-01
6.562893e-01
6.250341e-01
5.937793e-01
5.625250e-01
5.312678e-01
5.000451e-01
1.000000e+00
9.687546e-01
9.375137e-01
9.062856e-01
8.777029e-01
8.437950e-01
8.125263e-01
7.812761e-01
7.500236e-01
7.187708e-01
6.875181e-01
6.562655e-01
6.250131e-01
5.937610e-01
5.625091e-01
5.312539e-01
5.000330e-01
1.000000e+00
9.687385e-01
9.374855e-01
9.062220e-01
8.736122e-01
8.437207e-01
8.124787e-01
7.812292e-01
7.499805e-01
7.187320e-01
6.874834e-01
6.562349e-01
6.249862e-01
5.937375e-01
5.624886e-01
5.312361e-01
5.000176e-01
1.000000e+00
9.687244e-01
9.374610e-01
9.061599e-01
8.699883e-01
8.436612e-01
8.124359e-01
7.811876e-01
7.499423e-01
7.186976e-01
6.874527e-01
6.562078e-01
6.249624e-01
5.937166e-01
5.624704e-01
5.312203e-01
5.000039e-01
1.000000e+00
9.687169e-01
9.374482e-01
9.061245e-01
8.680517e-01
8.436319e-01
8.124127e-01
7.811654e-01
7.499219e-01
7.186791e-01
6.874362e-01
6.561933e-01
6.249496e-01
5.937054e-01
5.624606e-01
5.312118e-01
4.999965e-01
1.000000e+00
9.687184e-01
9.374508e-01
9.061320e-01
8.684544e-01
8.436378e-01
8.124175e-01
7.811699e-01
7.499261e-01
7.186828e-01
6.874395e-01
6.561961e-01
6.249521e-01
5.937076e-01
5.624625e-01
5.312134e-01
4.999979e-01
1.000000e+00
9.687286e-01
9.374682e-01
9.061787e-01
8.710606e-01
8.436781e-01
8.124484e-01
7.811997e-01
7.499533e-01
7.187074e-01
6.874614e-01
6.562154e-01
6.249690e-01
5.937224e-01
5.624753e-01
5.312246e-01
5.000076e-01
1.000000e+00
9.687438e-01
9.374949e-01
9.062441e-01
8.749931e-01
8.437446e-01
8.124945e-01
7.812446e-01
7.499945e-01
7.187445e-01
6.874945e-01
6.562446e-01
6.249947e-01
5.937447e-01
5.624948e-01
5.312415e-01
5.000222e-01
1.000000e+00
9.687593e-01
9.375221e-01
9.063030e-01
8.789268e-01
8.438182e-01
8.125399e-01
7.812895e-01
7.500357e-01
7.187817e-01
6.875277e-01
6.562739e-01
6.250204e-01
5.937672e-01
5.625144e-01
5.312586e-01
5.000370e-01
1.000000e+00
9.687693e-01
9.375402e-01
9.063387e-01
8.815352e-01
8.438709e-01
8.125697e-01
7.813193e-01
7.500631e-01
7.188064e-01
6.875498e-01
6.562934e-01
6.250376e-01
5.937823e-01
5.625276e-01
5.312701e-01
5.000470e-01
1.000000e+00
9.687708e-01
9.375429e-01
9.063439e-01
8.819382e-01
8.438794e-01
8.125743e-01
7.813240e-01
7.500676e-01
7.188106e-01
6.875536e-01
6.562968e-01
6.250407e-01
5.937851e-01
5.625301e-01
5.312723e-01
5.000490e-01
1.000000e+00
9.687632e-01
9.375291e-01
9.063179e-01
8.799997e-01
8.438396e-01
8.125524e-01
7.813023e-01
7.500479e-01
7.187930e-01
6.875381e-01
6.562833e-01
6.250289e-01
5.937749e-01
5.625213e-01
5.312648e-01
5.000425e-01
1.000000e+00
9.687491e-01
9.375039e-01
9.062653e-01
8.763740e-01
8.437700e-01
8.125111e-01
7.812616e-01
7.500108e-01
7.187598e-01
6.875087e-01
6.562576e-01
6.250065e-01
5.937555e-01
5.625045e-01
5.312502e-01
5.000300e-01
1.000000e+00
9.687332e-01
9.374760e-01
9.061995e-01
8.722841e-01
8.436986e-01
8.124641e-01
7.812158e-01
7.499691e-01
7.187224e-01
6.874756e-01
6.562286e-01
6.249812e-01
5.937335e-01
5.624855e-01
5.312337e-01
5.000157e-01
1.000000e+00
9.687209e-01
9.374550e-01
9.061441e-01
8.691084e-01
8.436487e-01
8.124273e-01
7.811804e-01
7.499368e-01
7.186935e-01
6.874499e-01
6.562061e-01
6.249615e-01
5.937164e-01
5.624706e-01
5.312209e-01
5.000047e-01
1.000000e+00
9.687162e-01
9.374472e-01
9.061223e-01
8.679164e-01
8.436312e-01
8.124134e-01
7.811671e-01
7.499245e-01
7.186825e-01
6.874401e-01
6.561975e-01
6.249540e-01
5.937098e-01
5.624649e-01
5.312160e-01
5.000004e-01
1.000000e+00
9.687588e-01
9.375212e-01
9.063018e-01
8.788257e-01
8.438165e-01
8.125391e-01
7.812888e-01
7.500354e-01
7.187815e-01
6.875277e-01
6.562740e-01
6.250207e-01
5.937676e-01
5.625148e-01
5.312590e-01
5.000374e-01
1.000000e+00
9.687563e-01
9.375167e-01
9.062926e-01
8.781800e-01
8.438040e-01
8.125317e-01
7.812815e-01
7.500286e-01
7.187754e-01
6.875223e-01
6.562692e-01
6.250164e-01
5.937639e-01
5.625116e-01
5.312562e-01
5.000350e-01
1.000000e+00
9.687496e-01
9.375047e-01
9.062672e-01
8.764605e-01
8.437714e-01
8.125119e-01
7.812618e-01
7.500105e-01
7.187591e-01
6.875077e-01
6.562563e-01
6.250051e-01
5.937540e-01
5.625030e-01
5.312487e-01
5.000285e-01
1.000000e+00
9.687410e-01
9.374896e-01
9.062326e-01
8.742468e-01
8.437316e-01
8.124861e-01
7.812364e-01
7.499872e-01
7.187381e-01
6.874889e-01
6.562398e-01
6.249905e-01
5.937412e-01
5.624919e-01
5.312390e-01
5.000201e-01
1.000000e+00
9.687334e-01
9.374764e-01
9.062001e-01
8.722851e-01
8.436981e-01
8.124630e-01
7.812139e-01
7.499665e-01
7.187194e-01
6.874722e-01
6.562251e-01
6.249776e-01
5.937299e-01
5.624820e-01
5.312305e-01
5.000127e-01
1.000000e+00
9.687292e-01
9.374693e-01
9.061820e-01
8.712366e-01
8.436810e-01
8.124506e-01
7.812019e-01
7.499555e-01
7.187094e-01
6.874633e-01
6.562172e-01
6.249706e-01
5.937239e-01
5.624768e-01
5.312259e-01
5.000087e-01
1.000000e+00
9.687301e-01
9.374708e-01
9.061858e-01
8.714546e-01
8.436845e-01
8.124532e-01
7.812043e-01
7.499577e-01
7.187114e-01
6.874651e-01
6.562187e-01
6.249720e-01
5.937251e-01
5.624778e-01
5.312267e-01
5.000094e-01
1.000000e+00
9.687356e-01
9.374802e-01
9.062099e-01
8.728657e-01
8.437078e-01
8.124698e-01
7.812205e-01
7.499725e-01
7.187247e-01
6.874770e-01
6.562292e-01
6.249812e-01
5.937330e-01
5.624847e-01
5.312328e-01
5.000147e-01
1.000000e+00
9.687439e-01
9.374947e-01
9.062445e-01
8.749942e-01
8.437447e-01
8.124947e-01
7.812448e-01
7.499948e-01
7.187449e-01
6.874949e-01
6.562450e-01
6.249951e-01
5.937452e-01
5.624953e-01
5.312419e-01
5.000226e-01
1.000000e+00
9.687522e-01
9.375093e-01
9.062771e-01
8.771228e-01
8.437836e-01
8.125194e-01
7.812691e-01
7.500172e-01
7.187650e-01
6.875129e-01
6.562609e-01
6.250090e-01
5.937573e-01
5.625058e-01
5.312511e-01
5.000306e-01
1.000000e+00
9.687576e-01
9.375191e-01
9.062976e-01
8.785339e-01
8.438107e-01
8.125356e-01
7.812853e-01
7.500320e-01
7.187784e-01
6.875249e-01
6.562715e-01
6.250184e-01
5.937655e-01
5.625130e-01
5.312574e-01
5.000360e-01
1.000000e+00
9.687585e-01
9.375206e-01
9.063006e-01
8.787518e-01
8.438149e-01
8.125381e-01
7.812879e-01
7.500344e-01
7.187807e-01
6.875270e-01
6.562733e-01
6.250200e-01
5.937670e-01
5.625143e-01
5.312586e-01
5.000371e-01
1.000000e+00
9.687543e-01
9.375132e-01
9.062855e-01
8.777031e-01
8.437947e-01
8.125262e-01
7.812761e-01
7.500238e-01
7.187711e-01
6.875185e-01
6.562660e-01
6.250137e-01
5.937615e-01
5.625096e-01
5.312545e-01
5.000336e-01
1.000000e+00
9.687467e-01
9.374996e-01
9.062561e-01
8.757415e-01
8.437583e-01
8.125038e-01
7.812541e-01
7.500037e-01
7.187532e-01
6.875026e-01
6.562521e-01
6.250015e-01
5.937510e-01
5.625005e-01
5.312466e-01
5.000268e-01
1.000000e+00
9.687381e-01
9.374845e-01
9.062208e-01
8.735280e-01
8.437195e-01
8.124784e-01
7.812293e-01
7.499811e-01
7.187329e-01
6.874847e-01
6.562363e-01
6.249878e-01
5.937390e-01
5.624901e-01
5.312377e-01
5.000191e-01
1.000000e+00
9.687315e-01
9.374731e-01
9.061920e-01
8.718088e-01
8.436910e-01
8.124585e-01
7.812102e-01
7.499636e-01
7.187173e-01
6.874707e-01
6.562241e-01
6.249771e-01
5.937298e-01
5.624821e-01
5.312307e-01
5.000130e-01
1.000000e+00
9.687289e-01
9.374687e-01
9.061808e-01
8.711633e-01
8.436806e-01
8.124510e-01
7.812029e-01
7.499570e-01
7.187113e-01
6.874654e-01
6.562194e-01
6.249730e-01
5.937262e-01
5.624790e-01
5.312280e-01
5.000107e-01
1.000000e+00
9.687438e-01
9.374946e-01
9.062441e-01
8.749939e-01
8.437448e-01
8.124947e-01
7.812450e-01
7.499951e-01
7.187452e-01
6.874953e-01
6.562455e-01
6.249956e-01
5.937457e-01
5.624958e-01
5.312424e-01
5.000231e-01
1.000000e+00
9.687439e-01
9.374946e-01
9.062443e-01
8.749941e-01
8.437448e-01
8.124948e-01
7.812450e-01
7.499951e-01
7.187453e-01
6.874954e-01
6.562455e-01
6.249956e-01
5.937457e-01
5.624958e-01
5.312425e-01
5.000231e-01
1.000000e+00
9.687439e-01
9.374946e-01
9.062445e-01
8.749945e-01
8.437447e-01
8.124949e-01
7.812450e-01
7.499951e-01
7.187453e-01
6.874954e-01
6.562455e-01
6.249956e-01
5.937457e-01
5.624958e-01
5.312424e-01
5.000231e-01
1.000000e+00
9.687439e-01
9.374946e-01
9.062446e-01
8.749946e-01
8.437447e-01
8.124949e-01
7.812450e-01
7.499951e-01
7.187452e-01
6.874954e-01
6.562455e-01
6.249956e-01
5.937457e-01
5.624958e-01
5.312424e-01
5.000231e-01
1.000000e+00
9.687438e-01
9.374946e-01
9.062444e-01
8.749943e-01
8.437447e-01
8.124948e-01
7.812450e-01
7.499951e-01
7.187452e-01
6.874953e-01
6.562455e-01
6.249955e-01
5.937457e-01
5.624957e-01
5.312424e-01
5.000231e-01
1.000000e+00
9.687438e-01
9.374947e-01
9.062442e-01
8.749939e-01
8.437448e-01
8.124947e-01
7.812450e-01
7.499951e-01
7.187452e-01
6.874953e-01
6.562454e-01
6.249955e-01
5.937457e-01
5.624957e-01
5.312424e-01
5.000230e-01
1.000000e+00
9.687438e-01
9.374947e-01
9.062443e-01
8.749940e-01
8.437448e-01
8.124947e-01
7.812450e-01
7.499951e-01
7.187452e-01
6.874953e-01
6.562454e-01
6.249955e-01
5.937457e-01
5.624957e-01
5.312424e-01
5.000230e-01
1.000000e+00
9.687438e-01
9.374946e-01
9.062445e-01
8.749944e-01
8.437448e-01
8.124948e-01
7.812450e-01
7.499951e-01
7.187452e-01
6.874953e-01
6.562455e-01
6.249955e-01
5.937457e-01
5.624957e-01
5.312424e-01
5.000230e-01
1.000000e+00
9.687439e-01
9.374946e-01
9.062446e-01
8.749947e-01
8.437448e-01
8.124949e-01
7.812450e-01
7.499952e-01
7.187453e-01
6.874954e-01
6.562455e-01
6.249956e-01
5.937457e-01
5.624957e-01
5.312424e-01
5.000230e-01
1.000000e+00
9.687439e-01
9.374946e-01
9.062445e-01
8.749944e-01
8.437448e-01
8.124949e-01
7.812451e-01
7.499952e-01
7.187453e-01
6.874954e-01
6.562455e-01
6.249956e-01
5.937457e-01
5.624957e-01
5.312424e-01
5.000230e-01
1.000000e+00
9.687439e-01
9.374947e-01
9.062443e-01
8.749940e-01
8.437449e-01
8.124948e-01
7.812451e-01
7.499952e-01
7.187453e-01
6.874954e-01
6.562455e-01
6.249956e-01
5.937457e-01
5.624957e-01
5.312424e-01
5.000230e-01
1.000000e+00
9.687439e-01
9.374948e-01
9.062443e-01
8.749938e-01
8.437449e-01
8.124948e-01
7.812451e-01
7.499952e-01
7.187453e-01
6.874954e-01
6.562455e-01
6.249956e-01
5.937457e-01
5.624957e-01
5.312424e-01
5.000230e-01
1.000000e+00
9.687439e-01
9.374947e-01
9.062445e-01
8.749942e-01
8.437448e-01
8.124949e-01
7.812451e-01
7.499952e-01
7.187453e-01
6.874954e-01
6.562455e-01
6.249956e-01
5.937457e-01
5.624957e-01
5.312424e-01
5.000230e-01
1.000000e+00
9.687439e-01
9.374946e-01
9.062447e-01
8.749946e-01
8.437448e-01
8.124949e-01
7.812451e-01
7.499952e-01
7.187453e-01
6.874954e-01
6.562455e-01
6.249956e-01
5.937456e-01
5.624957e-01
5.312424e-01
5.000230e-01
1.000000e+00
9.687439e-01
9.374946e-01
9.062447e-01
8.749947e-01
8.437449e-01
8.124949e-01
7.812451e-01
7.499952e-01
7.187453e-01
6.874954e-01
6.562455e-01
6.249956e-01
5.937456e-01
5.624957e-01
5.312424e-01
5.000230e-01
1.000000e+00
9.687439e-01
9.374947e-01
9.062444e-01
8.749942e-01
8.437449e-01
8.124949e-01
7.812451e-01
7.499952e-01
7.187453e-01
6.874953e-01
6.562455e-01
6.249955e-01
5.937456e-01
5.624957e-01
5.312423e-01
5.000230e-01
1.000000e+00
9.687438e-01
9.374947e-01
9.062442e-01
8.749939e-01
8.437448e-01
8.124948e-01
7.812450e-01
7.499951e-01
7.187452e-01
6.874953e-01
6.562454e-01
6.249955e-01
5.937455e-01
5.624956e-01
5.312423e-01
5.000229e-01
1.000000e+00
9.687288e-01
9.374687e-01
9.061805e-01
8.711628e-01
8.436797e-01
8.124497e-01
7.812011e-01
7.499549e-01
7.187089e-01
6.874629e-01
6.562169e-01
6.249705e-01
5.937238e-01
5.624767e-01
5.312259e-01
5.000087e-01
1.000000e+00
9.687314e-01
9.374730e-01
9.061918e-01
8.718085e-01
8.436902e-01
8.124574e-01
7.812086e-01
7.499617e-01
7.187151e-01
6.874685e-01
6.562218e-01
6.249748e-01
5.937275e-01
5.624800e-01
5.312287e-01
5.000112e-01
1.000000e+00
9.687381e-01
9.374846e-01
9.062207e-01
8.735279e-01
8.437190e-01
8.124777e-01
7.812282e-01
7.499798e-01
7.187314e-01
6.874830e-01
6.562347e-01
6.249861e-01
5.937374e-01
5.624886e-01
5.312362e-01
5.000177e-01
1.000000e+00
9.687467e-01
9.374996e-01
9.062560e-01
8.757415e-01
8.437581e-01
8.125035e-01
7.812536e-01
7.500031e-01
7.187524e-01
6.875018e-01
6.562512e-01
6.250006e-01
5.937501e-01
5.624996e-01
5.312458e-01
5.000260e-01
1.000000e+00
9.687543e-01
9.375132e-01
9.062855e-01
8.777033e-01
8.437947e-01
8.125262e-01
7.812760e-01
7.500237e-01
7.187710e-01
6.875184e-01
6.562659e-01
6.250135e-01
5.937614e-01
5.625094e-01
5.312543e-01
5.000334e-01
1.000000e+00
9.687584e-01
9.375205e-01
9.063006e-01
8.787519e-01
8.438150e-01
8.125383e-01
7.812881e-01
7.500348e-01
7.187810e-01
6.875274e-01
6.562737e-01
6.250204e-01
5.937674e-01
5.625147e-01
5.312589e-01
5.000374e-01
1.000000e+00
9.687576e-01
9.375190e-01
9.062975e-01
8.785339e-01
8.438108e-01
8.125358e-01
7.812856e-01
7.500325e-01
7.187790e-01
6.875256e-01
6.562722e-01
6.250191e-01
5.937663e-01
5.625137e-01
5.312580e-01
5.000366e-01
1.000000e+00
9.687521e-01
9.375092e-01
9.062770e-01
8.771227e-01
8.437838e-01
8.125196e-01
7.812696e-01
7.500178e-01
7.187657e-01
6.875137e-01
6.562618e-01
6.250099e-01
5.937583e-01
5.625067e-01
5.312520e-01
5.000314e-01
1.000000e+00
9.687439e-01
9.374946e-01
9.062445e-01
8.749942e-01
8.437449e-01
8.124950e-01
7.812453e-01
7.499955e-01
7.187457e-01
6.874958e-01
6.562460e-01
6.249961e-01
5.937462e-01
5.624962e-01
5.312429e-01
5.000235e-01
1.000000e+00
9.687356e-01
9.374802e-01
9.062099e-01
8.728657e-01
8.437080e-01
8.124702e-01
7.812210e-01
7.499732e-01
7.187256e-01
6.874779e-01
6.562302e-01
6.249822e-01
5.937340e-01
5.624856e-01
5.312337e-01
5.000155e-01
1.000000e+00
9.687301e-01
9.374708e-01
9.061859e-01
8.714547e-01
8.436848e-01
8.124536e-01
7.812049e-01
7.499584e-01
7.187122e-01
6.874659e-01
6.562196e-01
6.249729e-01
5.937259e-01
5.624785e-01
5.312275e-01
5.000101e-01
1.000000e+00
9.687293e-01
9.374694e-01
9.061821e-01
8.712367e-01
8.436813e-01
8.124510e-01
7.812024e-01
7.499560e-01
7.187100e-01
6.874639e-01
6.562177e-01
6.249712e-01
5.937244e-01
5.624772e-01
5.312263e-01
5.000091e-01
1.000000e+00
9.687334e-01
9.374765e-01
9.062002e-01
8.722853e-01
8.436983e-01
8.124632e-01
7.812141e-01
7.499667e-01
7.187195e-01
6.874723e-01
6.562251e-01
6.249776e-01
5.937298e-01
5.624819e-01
5.312303e-01
5.000125e-01
1.000000e+00
9.687411e-01
9.374898e-01
9.062327e-01
8.742470e-01
8.437316e-01
8.124860e-01
7.812361e-01
7.499867e-01
7.187375e-01
6.874882e-01
6.562390e-01
6.249897e-01
5.937403e-01
5.624910e-01
5.312382e-01
5.000193e-01
1.000000e+00
9.687497e-01
9.375049e-01
9.062673e-01
8.764606e-01
8.437711e-01
8.125113e-01
7.812609e-01
7.500093e-01
7.187577e-01
6.875061e-01
6.562546e-01
6.250034e-01
5.937522e-01
5.625013e-01
5.312470e-01
5.000269e-01
1.000000e+00
9.687563e-01
9.375167e-01
9.062926e-01
8.781798e-01
8.438034e-01
8.125307e-01
7.812800e-01
7.500268e-01
7.187733e-01
6.875200e-01
6.562668e-01
6.250140e-01
5.937615e-01
5.625093e-01
5.312540e-01
5.000329e-01
1.000000e+00
9.687587e-01
9.375211e-01
9.063015e-01
8.788251e-01
8.438157e-01
8.125379e-01
7.812871e-01
7.500333e-01
7.187791e-01
6.875252e-01
6.562713e-01
6.250180e-01
5.937649e-01
5.625122e-01
5.312565e-01
5.000351e-01
1.000000e+00
9.687161e-01
9.374471e-01
9.061218e-01
8.679156e-01
8.436298e-01
8.124111e-01
7.811639e-01
7.499207e-01
7.186782e-01
6.874355e-01
6.561928e-01
6.249493e-01
5.937052e-01
5.624606e-01
5.312119e-01
4.999966e-01
1.000000e+00
9.687209e-01
9.374550e-01
9.061438e-01
8.691080e-01
8.436476e-01
8.124254e-01
7.811777e-01
7.499334e-01
7.186896e-01
6.874457e-01
6.562018e-01
6.249572e-01
5.937121e-01
5.624666e-01
5.312171e-01
5.000011e-01
1.000000e+00
9.687332e-01
9.374762e-01
9.061996e-01
8.722840e-01
8.436980e-01
8.124629e-01
7.812140e-01
7.499668e-01
7.187197e-01
6.874726e-01
6.562255e-01
6.249780e-01
5.937304e-01
5.624825e-01
5.312309e-01
5.000131e-01
1.000000e+00
9.687492e-01
9.375041e-01
9.062653e-01
8.763740e-01
8.437697e-01
8.125107e-01
7.812608e-01
7.500098e-01
7.187585e-01
6.875073e-01
6.562560e-01
6.250049e-01
5.937539e-01
5.625029e-01
5.312487e-01
5.000285e-01
1.000000e+00
9.687632e-01
9.375292e-01
9.063179e-01
8.799998e-01
8.438397e-01
8.125526e-01
7.813024e-01
7.500479e-01
7.187929e-01
6.875380e-01
6.562831e-01
6.250287e-01
5.937747e-01
5.625210e-01
5.312644e-01
5.000421e-01
1.000000e+00
9.687708e-01
9.375429e-01
9.063438e-01
8.819383e-01
8.438796e-01
8.125748e-01
7.813246e-01
7.500684e-01
7.188114e-01
6.875545e-01
6.562977e-01
6.250415e-01
5.937859e-01
5.625308e-01
5.312729e-01
5.000495e-01
1.000000e+00
9.687692e-01
9.375400e-01
9.063386e-01
8.815353e-01
8.438712e-01
8.125702e-01
7.813201e-01
7.500642e-01
7.188077e-01
6.875512e-01
6.562948e-01
6.250390e-01
5.937837e-01
5.625289e-01
5.312713e-01
5.000481e-01
1.000000e+00
9.687592e-01
9.375219e-01
9.063029e-01
8.789267e-01
8.438185e-01
8.125405e-01
7.812904e-01
7.500370e-01
7.187831e-01
6.875293e-01
6.562756e-01
6.250221e-01
5.937689e-01
5.625161e-01
5.312601e-01
5.000385e-01
1.000000e+00
9.687437e-01
9.374947e-01
9.062440e-01
8.749930e-01
8.437449e-01
8.124950e-01
7.812455e-01
7.499958e-01
7.187460e-01
6.874962e-01
6.562464e-01
6.249965e-01
5.937466e-01
5.624966e-01
5.312432e-01
5.000238e-01
1.000000e+00
9.687286e-01
9.374682e-01
9.061788e-01
8.710606e-01
8.436784e-01
8.124491e-01
7.812007e-01
7.499546e-01
7.187089e-01
6.874630e-01
6.562171e-01
6.249708e-01
5.937241e-01
5.624771e-01
5.312263e-01
5.000091e-01
1.000000e+00
9.687185e-01
9.374509e-01
9.061322e-01
8.684546e-01
8.436383e-01
8.124182e-01
7.811709e-01
7.499272e-01
7.186842e-01
6.874409e-01
6.561976e-01
6.249536e-01
5.937091e-01
5.624640e-01
5.312148e-01
4.999992e-01
1.000000e+00
9.687170e-01
9.374484e-01
9.061249e-01
8.680521e-01
8.436324e-01
8.124134e-01
7.811661e-01
7.499228e-01
7.186801e-01
6.874371e-01
6.561942e-01
6.249505e-01
5.937063e-01
5.624615e-01
5.312126e-01
4.999972e-01
1.000000e+00
9.687246e-01
9.374614e-01
9.061602e-01
8.699888e-01
8.436615e-01
8.124362e-01
7.811879e-01
7.499425e-01
7.186977e-01
6.874527e-01
6.562077e-01
6.249623e-01
5.937164e-01
5.624702e-01
5.312201e-01
5.000037e-01
1.000000e+00
9.687387e-01
9.374858e-01
9.062222e-01
8.736126e-01
8.437205e-01
8.124783e-01
7.812285e-01
7.499795e-01
7.187308e-01
6.874820e-01
6.562334e-01
6.249847e-01
5.937359e-01
5.624870e-01
5.312346e-01
5.000161e-01
1.000000e+00
9.687546e-01
9.375137e-01
9.062856e-01
8.777029e-01
8.437942e-01
8.125251e-01
7.812743e-01
7.500213e-01
7.187682e-01
6.875152e-01
6.562624e-01
6.250100e-01
5.937578e-01
5.625060e-01
5.312510e-01
5.000303e-01
1.000000e+00
9.687668e-01
9.375357e-01
9.063300e-01
8.808806e-01
8.438565e-01
8.125608e-01
7.813096e-01
7.500535e-01
7.187971e-01
6.875409e-01
6.562849e-01
6.250297e-01
5.937749e-01
5.625208e-01
5.312638e-01
5.000413e-01
1.000000e+00
9.687713e-01
9.375439e-01
9.063454e-01
8.820736e-01
8.438809e-01
8.125740e-01
7.813229e-01
7.500656e-01
7.188079e-01
6.875505e-01
6.562934e-01
6.250370e-01
5.937813e-01
5.625264e-01
5.312686e-01
5.000454e-01
1.000000e+00
9.687077e-01
9.374328e-01
9.060801e-01
8.657462e-01
8.435991e-01
8.123850e-01
7.811391e-01
7.498979e-01
7.186577e-01
6.874172e-01
6.561766e-01
6.249351e-01
5.936928e-01
5.624498e-01
5.312025e-01
4.999885e-01
1.000000e+00
9.687138e-01
9.374431e-01
9.061100e-01
8.673037e-01
8.436210e-01
8.124038e-01
7.811570e-01
7.499144e-01
7.186725e-01
6.874305e-01
6.561884e-01
6.249454e-01
5.937019e-01
5.624576e-01
5.312093e-01
4.999944e-01
1.000000e+00
9.687298e-01
9.374706e-01
9.061849e-01
8.714525e-01
8.436843e-01
8.124531e-01
7.812045e-01
7.499581e-01
7.187119e-01
6.874656e-01
6.562193e-01
6.249726e-01
5.937257e-01
5.624784e-01
5.312274e-01
5.000100e-01
1.000000e+00
9.687503e-01
9.375070e-01
9.062713e-01
8.767963e-01
8.437775e-01
8.125155e-01
7.812657e-01
7.500143e-01
7.187626e-01
6.875109e-01
6.562593e-01
6.250077e-01
5.937564e-01
5.625051e-01
5.312506e-01
5.000301e-01
1.000000e+00
9.687694e-01
9.375406e-01
9.063382e-01
8.815342e-01
8.438710e-01
8.125700e-01
7.813200e-01
7.500641e-01
7.188075e-01
6.875511e-01
6.562947e-01
6.250389e-01
5.937836e-01
5.625288e-01
5.312712e-01
5.000480e-01
1.000000e+00
9.687790e-01
9.375579e-01
9.063704e-01
8.840677e-01
8.439253e-01
8.125989e-01
7.813491e-01
7.500908e-01
7.188316e-01
6.875726e-01
6.563137e-01
6.250556e-01
5.937982e-01
5.625415e-01
5.312822e-01
5.000576e-01
1.000000e+00
9.687769e-01
9.375542e-01
9.063639e-01
8.835409e-01
8.439139e-01
8.125930e-01
7.813431e-01
7.500854e-01
7.188268e-01
6.875684e-01
6.563100e-01
6.250524e-01
5.937954e-01
5.625391e-01
5.312801e-01
5.000558e-01
1.000000e+00
9.687644e-01
9.375310e-01
9.063197e-01
8.801319e-01
8.438426e-01
8.125543e-01
7.813043e-01
7.500498e-01
7.187947e-01
6.875397e-01
6.562848e-01
6.250303e-01
5.937761e-01
5.625223e-01
5.312656e-01
5.000432e-01
1.000000e+00
9.687429e-01
9.374941e-01
9.062435e-01
8.749918e-01
8.437450e-01
8.124950e-01
7.812457e-01
7.499960e-01
7.187463e-01
6.874965e-01
6.562467e-01
6.249968e-01
5.937469e-01
5.624969e-01
5.312435e-01
5.000241e-01
1.000000e+00
9.687240e-01
9.374605e-01
9.061573e-01
8.698543e-01
8.436595e-01
8.124348e-01
7.811870e-01
7.499422e-01
7.186978e-01
6.874531e-01
6.562085e-01
6.249632e-01
5.937175e-01
5.624714e-01
5.312213e-01
5.000049e-01
1.000000e+00
9.687106e-01
9.374377e-01
9.060942e-01
8.664501e-01
8.436095e-01
8.123944e-01
7.811481e-01
7.499064e-01
7.186655e-01
6.874242e-01
6.561829e-01
6.249407e-01
5.936979e-01
5.624542e-01
5.312064e-01
4.999919e-01
1.000000e+00
9.687087e-01
9.374345e-01
9.060843e-01
8.659246e-01
8.436023e-01
8.123880e-01
7.811419e-01
7.499006e-01
7.186601e-01
6.874193e-01
6.561785e-01
6.249367e-01
5.936942e-01
5.624510e-01
5.312035e-01
4.999893e-01
1.000000e+00
9.687187e-01
9.374515e-01
9.061322e-01
8.684544e-01
8.436383e-01
8.124179e-01
7.811703e-01
7.499263e-01
7.186831e-01
6.874396e-01
6.561962e-01
6.249521e-01
5.937075e-01
5.624624e-01
5.312133e-01
4.999977e-01
1.000000e+00
9.687367e-01
9.374829e-01
9.062149e-01
8.731885e-01
8.437133e-01
8.124732e-01
7.812235e-01
7.499748e-01
7.187264e-01
6.874780e-01
6.562297e-01
6.249814e-01
5.937329e-01
5.624843e-01
5.312322e-01
5.000140e-01
1.000000e+00
9.687581e-01
9.375200e-01
9.062973e-01
8.785327e-01
8.438100e-01
8.125343e-01
7.812832e-01
7.500293e-01
7.187752e-01
6.875213e-01
6.562676e-01
6.250144e-01
5.937616e-01
5.625092e-01
5.312537e-01
5.000325e-01
1.000000e+00
9.687738e-01
9.375485e-01
9.063533e-01
8.826853e-01
8.438939e-01
8.125807e-01
7.813294e-01