<?xml version="1.0"?>
<VTKFile type="StructuredGrid" version="0.1">
  <StructuredGrid WholeExtent="0 16 0 16 0 16">
    <Piece Extent="0 16 0 16 0 16">
      <PointData Scalars="temperature" Vectors="velocity">
        <DataArray type="Float32" Name="temperature" format="ascii">
1.000000e+00
9.688092e-01
9.376161e-01
9.064387e-01
8.850853e-01
8.440557e-01
8.126954e-01
7.814421e-01
7.501763e-01
7.189084e-01
6.876406e-01
6.563736e-01
6.251078e-01
5.938435e-01
5.625807e-01
5.313157e-01
5.000900e-01
1.000000e+00
9.688029e-01
9.376031e-01
9.064212e-01
8.833851e-01
8.439976e-01
8.126620e-01
7.814089e-01
7.501457e-01
7.188808e-01
6.876159e-01
6.563518e-01
6.250887e-01
5.938268e-01
5.625662e-01
5.313030e-01
5.000791e-01
1.000000e+00
9.687658e-01
9.375403e-01
9.063315e-01
8.788545e-01
8.438541e-01
8.125721e-01
7.813204e-01
7.500643e-01
7.188073e-01
6.875504e-01
6.562939e-01
6.250378e-01
5.937824e-01
5.625275e-01
5.312695e-01
5.000500e-01
1.000000e+00
9.687241e-01
9.374627e-01
9.061850e-01
8.730215e-01
8.436929e-01
8.124545e-01
7.812064e-01
7.499594e-01
7.187128e-01
6.874662e-01
6.562195e-01
6.249725e-01
5.937253e-01
5.624778e-01
5.312262e-01
5.000124e-01
1.000000e+00
9.686961e-01
9.374157e-01
9.060594e-01
8.678701e-01
8.435714e-01
8.123485e-01
7.811055e-01
7.498665e-01
7.186291e-01
6.873916e-01
6.561536e-01
6.249147e-01
5.936747e-01
5.624337e-01
5.311879e-01
4.999791e-01
1.000000e+00
9.686766e-01
9.373790e-01
9.059780e-01
8.651008e-01
8.435163e-01
8.122911e-01
7.810515e-01
7.498168e-01
7.185843e-01
6.873516e-01
6.561182e-01
6.248835e-01
5.936475e-01
5.624099e-01
5.311672e-01
4.999612e-01
1.000000e+00
9.686812e-01
9.373891e-01
9.060007e-01
8.656734e-01
8.435274e-01
8.123029e-01
7.810625e-01
7.498269e-01
7.185933e-01
6.873595e-01
6.561251e-01
6.248896e-01
5.936527e-01
5.624145e-01
5.311711e-01
4.999646e-01
1.000000e+00
9.687012e-01
9.374273e-01
9.061021e-01
8.693947e-01
8.436049e-01
8.123794e-01
7.811346e-01
7.498931e-01
7.186529e-01
6.874126e-01
6.561720e-01
6.249307e-01
5.936886e-01
5.624458e-01
5.311983e-01
4.999881e-01
1.000000e+00
9.687387e-01
9.374868e-01
9.062318e-01
8.749870e-01
8.437436e-01
8.124933e-01
7.812435e-01
7.499933e-01
7.187431e-01
6.874929e-01
6.562429e-01
6.249929e-01
5.937430e-01
5.624931e-01
5.312395e-01
5.000238e-01
1.000000e+00
9.687785e-01
9.375658e-01
9.063702e-01
8.806009e-01
8.439057e-01
8.126052e-01
7.813525e-01
7.500935e-01
7.188333e-01
6.875734e-01
6.563140e-01
6.250554e-01
5.937976e-01
5.625407e-01
5.312808e-01
5.000598e-01
1.000000e+00
9.688069e-01
9.376124e-01
9.064346e-01
8.843141e-01
8.440273e-01
8.126783e-01
7.814249e-01
7.501601e-01
7.188935e-01
6.876271e-01
6.563615e-01
6.250972e-01
5.938342e-01
5.625727e-01
5.313087e-01
5.000840e-01
1.000000e+00
9.688078e-01
9.376133e-01
9.064354e-01
8.848902e-01
8.440471e-01
8.126896e-01
7.814364e-01
7.501710e-01
7.189035e-01
6.876363e-01
6.563699e-01
6.251047e-01
5.938410e-01
5.625788e-01
5.313142e-01
5.000889e-01
1.000000e+00
9.687944e-01
9.375867e-01
9.063967e-01
8.821283e-01
8.439548e-01
8.126359e-01
7.813837e-01
7.501229e-01
7.188607e-01
6.875986e-01
6.563369e-01
6.250761e-01
5.938163e-01
5.625575e-01
5.312959e-01
5.000732e-01
1.000000e+00
9.687520e-01
9.375119e-01
9.062830e-01
8.769567e-01
8.437986e-01
8.125343e-01
7.812848e-01
7.500327e-01
7.187800e-01
6.875272e-01
6.562744e-01
6.250216e-01
5.937690e-01
5.625166e-01
5.312606e-01
5.000427e-01
1.000000e+00
9.687115e-01
9.374419e-01
9.061468e-01
8.711314e-01
8.436471e-01
8.124180e-01
7.811736e-01
7.499311e-01
7.186891e-01
6.874468e-01
6.562038e-01
6.249601e-01
5.937156e-01
5.624703e-01
5.312206e-01
5.000082e-01
1.000000e+00
9.686882e-01
9.373996e-01
9.060302e-01
8.666052e-01
8.435483e-01
8.123269e-01
7.810876e-01
7.498525e-01
7.186187e-01
6.873843e-01
6.561490e-01
6.249123e-01
5.936740e-01
5.624344e-01
5.311895e-01
4.999814e-01
1.000000e+00
9.686750e-01
9.373753e-01
9.059723e-01
8.649096e-01
8.435157e-01
8.122924e-01
7.810553e-01
7.498229e-01
7.185921e-01
6.873606e-01
6.561281e-01
6.248940e-01
5.936582e-01
5.624206e-01
5.311776e-01
4.999711e-01
1.000000e+00
9.688044e-01
9.376067e-01
9.064268e-01
8.843171e-01
8.440293e-01
8.126802e-01
7.814270e-01
7.501624e-01
7.188958e-01
6.876294e-01
6.563637e-01
6.250992e-01
5.938360e-01
5.625743e-01
5.313101e-01
5.000852e-01
1.000000e+00
9.687978e-01
9.375939e-01
9.064086e-01
8.827451e-01
8.439766e-01
8.126494e-01
7.813963e-01
7.501341e-01
7.188703e-01
6.876066e-01
6.563436e-01
6.250815e-01
5.938206e-01
5.625609e-01
5.312984e-01
5.000751e-01
1.000000e+00
9.687645e-01
9.375374e-01
9.063255e-01
8.785601e-01
8.438455e-01
8.125662e-01
7.813145e-01
7.500589e-01
7.188024e-01
6.875461e-01
6.562901e-01
6.250345e-01
5.937795e-01
5.625251e-01
5.312674e-01
5.000482e-01
1.000000e+00
9.687260e-01
9.374658e-01
9.061927e-01
8.731717e-01
8.436968e-01
8.124576e-01
7.812093e-01
7.499620e-01
7.187152e-01
6.874683e-01
6.562214e-01
6.249742e-01
5.937268e-01
5.624791e-01
5.312274e-01
5.000135e-01
1.000000e+00
9.687000e-01
9.374207e-01
9.060761e-01
8.684081e-01
8.435835e-01
8.123597e-01
7.811160e-01
7.498762e-01
7.186379e-01
6.873994e-01
6.561605e-01
6.249207e-01
5.936800e-01
5.624383e-01
5.311919e-01
4.999827e-01
1.000000e+00
9.686814e-01
9.373866e-01
9.060006e-01
8.658537e-01
8.435311e-01
8.123068e-01
7.810662e-01
7.498303e-01
7.185965e-01
6.873624e-01
6.561278e-01
6.248919e-01
5.936549e-01
5.624164e-01
5.311728e-01
4.999661e-01
1.000000e+00
9.686856e-01
9.373959e-01
9.060188e-01
8.663830e-01
8.435416e-01
8.123177e-01
7.810764e-01
7.498396e-01
7.186048e-01
6.873698e-01
6.561342e-01
6.248976e-01
5.936597e-01
5.624206e-01
5.311765e-01
4.999693e-01
1.000000e+00
9.687055e-01
9.374337e-01
9.061138e-01
8.698188e-01
8.436148e-01
8.123883e-01
7.811430e-01
7.499009e-01
7.186599e-01
6.874189e-01
6.561775e-01
6.249356e-01
5.936929e-01
5.624495e-01
5.312016e-01
4.999910e-01
1.000000e+00
9.687390e-01
9.374876e-01
9.062350e-01
8.749883e-01
8.437438e-01
8.124934e-01
7.812436e-01
7.499934e-01
7.187432e-01
6.874931e-01
6.562431e-01
6.249931e-01
5.937432e-01
5.624933e-01
5.312396e-01
5.000240e-01
1.000000e+00
9.687768e-01
9.375611e-01
9.063601e-01
8.801733e-01
8.438927e-01
8.125968e-01
7.813443e-01
7.500859e-01
7.188266e-01
6.875675e-01
6.563088e-01
6.250508e-01
5.937936e-01
5.625372e-01
5.312778e-01
5.000572e-01
1.000000e+00
9.688014e-01
9.376022e-01
9.064196e-01
8.836049e-01
8.440034e-01
8.126644e-01
7.814111e-01
7.501475e-01
7.188822e-01
6.876171e-01
6.563527e-01
6.250895e-01
5.938275e-01
5.625668e-01
5.313036e-01
5.000796e-01
1.000000e+00
9.688029e-01
9.376040e-01
9.064235e-01
8.841368e-01
8.440214e-01
8.126749e-01
7.814218e-01
7.501576e-01
7.188915e-01
6.876256e-01
6.563604e-01
6.250964e-01
5.938337e-01
5.625725e-01
5.313086e-01
5.000840e-01
1.000000e+00
9.687899e-01
9.375786e-01
9.063856e-01
8.815838e-01
8.439375e-01
8.126252e-01
7.813731e-01
7.501132e-01
7.188519e-01
6.875907e-01
6.563300e-01
6.250700e-01
5.938109e-01
5.625528e-01
5.312917e-01
5.000695e-01
1.000000e+00
9.687516e-01
9.375112e-01
9.062816e-01
8.768075e-01
8.437944e-01
8.125313e-01
7.812818e-01
7.500298e-01
7.187774e-01
6.875248e-01
6.562722e-01
6.250196e-01
5.937672e-01
5.625150e-01
5.312591e-01
5.000414e-01
1.000000e+00
9.687148e-01
9.374473e-01
9.061549e-01
8.714247e-01
8.436541e-01
8.124239e-01
7.811790e-01
7.499359e-01
7.186934e-01
6.874505e-01
6.562070e-01
6.249628e-01
5.937179e-01
5.624722e-01
5.312222e-01
5.000095e-01
1.000000e+00
9.686921e-01
9.374061e-01
9.060464e-01
8.672438e-01
8.435613e-01
8.123398e-01
7.810996e-01
7.498633e-01
7.186284e-01
6.873928e-01
6.561564e-01
6.249186e-01
5.936795e-01
5.624390e-01
5.311934e-01
4.999847e-01
1.000000e+00
9.686801e-01
9.373843e-01
9.059959e-01
8.656769e-01
8.435303e-01
8.123080e-01
7.810697e-01
7.498359e-01
7.186037e-01
6.873709e-01
6.561371e-01
6.249017e-01
5.936648e-01
5.624263e-01
5.311824e-01
4.999752e-01
1.000000e+00
9.687911e-01
9.375840e-01
9.063898e-01
8.821291e-01
8.439563e-01
8.126369e-01
7.813840e-01
7.501229e-01
7.188602e-01
6.875977e-01
6.563358e-01
6.250747e-01
5.938147e-01
5.625558e-01
5.312941e-01
5.000713e-01
1.000000e+00
9.687824e-01
9.375684e-01
9.063704e-01
8.809255e-01
8.439179e-01
8.126132e-01
7.813605e-01
7.501013e-01
7.188407e-01
6.875803e-01
6.563204e-01
6.250612e-01
5.938029e-01
5.625455e-01
5.312852e-01
5.000636e-01
1.000000e+00
9.687610e-01
9.375280e-01
9.063061e-01
8.777228e-01
8.438209e-01
8.125493e-01
7.812980e-01
7.500437e-01
7.187888e-01
6.875340e-01
6.562795e-01
6.250253e-01
5.937715e-01
5.625181e-01
5.312614e-01
5.000430e-01
1.000000e+00
9.687316e-01
9.374752e-01
9.062090e-01
8.735999e-01
8.437079e-01
8.124662e-01
7.812175e-01
7.499696e-01
7.187220e-01
6.874745e-01
6.562268e-01
6.249791e-01
5.937311e-01
5.624829e-01
5.312308e-01
5.000164e-01
1.000000e+00
9.687094e-01
9.374363e-01
9.061179e-01
8.699493e-01
8.436186e-01
8.123916e-01
7.811461e-01
7.499039e-01
7.186629e-01
6.874217e-01
6.561802e-01
6.249381e-01
5.936953e-01
5.624517e-01
5.312036e-01
4.999929e-01
1.000000e+00
9.686960e-01
9.374143e-01
9.060644e-01
8.679976e-01
8.435754e-01
8.123513e-01
7.811080e-01
7.498688e-01
7.186312e-01
6.873934e-01
6.561551e-01
6.249161e-01
5.936760e-01
5.624349e-01
5.311890e-01
4.999802e-01
1.000000e+00
9.686981e-01
9.374182e-01
9.060758e-01
8.684031e-01
8.435841e-01
8.123596e-01
7.811158e-01
7.498759e-01
7.186376e-01
6.873990e-01
6.561601e-01
6.249203e-01
5.936798e-01
5.624381e-01
5.311918e-01
4.999826e-01
1.000000e+00
9.687160e-01
9.374484e-01
9.061458e-01
8.710302e-01
8.436437e-01
8.124134e-01
7.811668e-01
7.499228e-01
7.186798e-01
6.874366e-01
6.561933e-01
6.249495e-01
5.937052e-01
5.624602e-01
5.312110e-01
4.999992e-01
1.000000e+00
9.687409e-01
9.374915e-01
9.062413e-01
8.749912e-01
8.437440e-01
8.124937e-01
7.812439e-01
7.499937e-01
7.187436e-01
6.874935e-01
6.562435e-01
6.249936e-01
5.937436e-01
5.624937e-01
5.312401e-01
5.000244e-01
1.000000e+00
9.687700e-01
9.375446e-01
9.063316e-01
8.789565e-01
8.438562e-01
8.125730e-01
7.813209e-01
7.500646e-01
7.188074e-01
6.875505e-01
6.562939e-01
6.250378e-01
5.937823e-01
5.625274e-01
5.312693e-01
5.000498e-01
1.000000e+00
9.687862e-01
9.375758e-01
9.063816e-01
8.815843e-01
8.439376e-01
8.126250e-01
7.813721e-01
7.501117e-01
7.188500e-01
6.875885e-01
6.563275e-01
6.250674e-01
5.938082e-01
5.625500e-01
5.312890e-01
5.000669e-01
1.000000e+00
9.687901e-01
9.375819e-01
9.063883e-01
8.819908e-01
8.439507e-01
8.126331e-01
7.813803e-01
7.501194e-01
7.188571e-01
6.875950e-01
6.563334e-01
6.250727e-01
5.938130e-01
5.625543e-01
5.312929e-01
5.000703e-01
1.000000e+00
9.687766e-01
9.375564e-01
9.063522e-01
8.800366e-01
8.438893e-01
8.125949e-01
7.813430e-01
7.500855e-01
7.188269e-01
6.875683e-01
6.563101e-01
6.250525e-01
5.937955e-01
5.625393e-01
5.312799e-01
5.000592e-01
1.000000e+00
9.687509e-01
9.375090e-01
9.062743e-01
8.763829e-01
8.437825e-01
8.125228e-01
7.812731e-01
7.500217e-01
7.187698e-01
6.875179e-01
6.562659e-01
6.250139e-01
5.937621e-01
5.625103e-01
5.312549e-01
5.000377e-01
1.000000e+00
9.687233e-01
9.374604e-01
9.061769e-01
8.722619e-01
8.436746e-01
8.124407e-01
7.811945e-01
7.499498e-01
7.187055e-01
6.874610e-01
6.562160e-01
6.249704e-01
5.937243e-01
5.624776e-01
5.312266e-01
5.000133e-01
1.000000e+00
9.687033e-01
9.374247e-01
9.060941e-01
8.690624e-01
8.436002e-01
8.123765e-01
7.811337e-01
7.498942e-01
7.186557e-01
6.874169e-01
6.561772e-01
6.249366e-01
5.936949e-01
5.624521e-01
5.312046e-01
4.999943e-01
1.000000e+00
9.686950e-01
9.374100e-01
9.060602e-01
8.678622e-01
8.435746e-01
8.123522e-01
7.811108e-01
7.498732e-01
7.186369e-01
6.874001e-01
6.561625e-01
6.249237e-01
5.936836e-01
5.624424e-01
5.311962e-01
4.999870e-01
1.000000e+00
9.687685e-01
9.375445e-01
9.063298e-01
8.788543e-01
8.438541e-01
8.125718e-01
7.813199e-01
7.500640e-01
7.188072e-01
6.875505e-01
6.562941e-01
6.250382e-01
5.937828e-01
5.625280e-01
5.312700e-01
5.000505e-01
1.000000e+00
9.687632e-01
9.375336e-01
9.063150e-01
8.782037e-01
8.438348e-01
8.125588e-01
7.813072e-01
7.500523e-01
7.187967e-01
6.875411e-01
6.562858e-01
6.250309e-01
5.937765e-01
5.625225e-01
5.312652e-01
5.000463e-01
1.000000e+00
9.687537e-01
9.375127e-01
9.062775e-01
8.764709e-01
8.437849e-01
8.125241e-01
7.812734e-01
7.500212e-01
7.187686e-01
6.875161e-01
6.562637e-01
6.250115e-01
5.937595e-01
5.625077e-01
5.312523e-01
5.000351e-01
1.000000e+00
9.687381e-01
9.374855e-01
9.062265e-01
8.742402e-01
8.437244e-01
8.124792e-01
7.812298e-01
7.499810e-01
7.187324e-01
6.874838e-01
6.562352e-01
6.249864e-01
5.937376e-01
5.624886e-01
5.312358e-01
5.000208e-01
1.000000e+00
9.687240e-01
9.374621e-01
9.061778e-01
8.722633e-01
8.436740e-01
8.124389e-01
7.811912e-01
7.499455e-01
7.187004e-01
6.874552e-01
6.562099e-01
6.249642e-01
5.937182e-01
5.624717e-01
5.312211e-01
5.000080e-01
1.000000e+00
9.687155e-01
9.374500e-01
9.061528e-01
8.712065e-01
8.436483e-01
8.124172e-01
7.811705e-01
7.499265e-01
7.186832e-01
6.874399e-01
6.561963e-01
6.249523e-01
5.937078e-01
5.624627e-01
5.312132e-01
5.000012e-01
1.000000e+00
9.687173e-01
9.374515e-01
9.061577e-01
8.714262e-01
8.436535e-01
8.124217e-01
7.811748e-01
7.499303e-01
7.186867e-01
6.874429e-01
6.561990e-01
6.249546e-01
5.937098e-01
5.624644e-01
5.312147e-01
5.000025e-01
1.000000e+00
9.687290e-01
9.374691e-01
9.061923e-01
8.728483e-01
8.436885e-01
8.124507e-01
7.812025e-01
7.499558e-01
7.187096e-01
6.874633e-01
6.562170e-01
6.249704e-01
5.937235e-01
5.624763e-01
5.312250e-01
5.000115e-01
1.000000e+00
9.687428e-01
9.374943e-01
9.062443e-01
8.749935e-01
8.437442e-01
8.124941e-01
7.812442e-01
7.499942e-01
7.187441e-01
6.874942e-01
6.562442e-01
6.249943e-01
5.937443e-01
5.624944e-01
5.312407e-01
5.000250e-01
1.000000e+00
9.687581e-01
9.375209e-01
9.062918e-01
8.771382e-01
8.438035e-01
8.125372e-01
7.812860e-01
7.500326e-01
7.187787e-01
6.875250e-01
6.562715e-01
6.250182e-01
5.937652e-01
5.625126e-01
5.312565e-01
5.000387e-01
1.000000e+00
9.687656e-01
9.375379e-01
9.063232e-01
8.785599e-01
8.438448e-01
8.125655e-01
7.813137e-01
7.500581e-01
7.188018e-01
6.875456e-01
6.562898e-01
6.250343e-01
5.937793e-01
5.625248e-01
5.312672e-01
5.000480e-01
1.000000e+00
9.687675e-01
9.375427e-01
9.063292e-01
8.787794e-01
8.438514e-01
8.125699e-01
7.813182e-01
7.500623e-01
7.188057e-01
6.875492e-01
6.562930e-01
6.250372e-01
5.937819e-01
5.625272e-01
5.312692e-01
5.000498e-01
1.000000e+00
9.687602e-01
9.375274e-01
9.063045e-01
8.777229e-01
8.438204e-01
8.125491e-01
7.812980e-01
7.500439e-01
7.187893e-01
6.875347e-01
6.562803e-01
6.250262e-01
5.937724e-01
5.625190e-01
5.312622e-01
5.000438e-01
1.000000e+00
9.687483e-01
9.375034e-01
9.062611e-01
8.757465e-01
8.437649e-01
8.125100e-01
7.812601e-01
7.500094e-01
7.187584e-01
6.875074e-01
6.562563e-01
6.250053e-01
5.937543e-01
5.625034e-01
5.312487e-01
5.000322e-01
1.000000e+00
9.687331e-01
9.374766e-01
9.062088e-01
8.735161e-01
8.437061e-01
8.124656e-01
7.812176e-01
7.499705e-01
7.187236e-01
6.874766e-01
6.562293e-01
6.249817e-01
5.937338e-01
5.624856e-01
5.312334e-01
5.000190e-01
1.000000e+00
9.687216e-01
9.374561e-01
9.061656e-01
8.717837e-01
8.436632e-01
8.124310e-01
7.811847e-01
7.499404e-01
7.186967e-01
6.874527e-01
6.562083e-01
6.249634e-01
5.937179e-01
5.624718e-01
5.312215e-01
5.000087e-01
1.000000e+00
9.687171e-01
9.374486e-01
9.061490e-01
8.711334e-01
8.436478e-01
8.124179e-01
7.811723e-01
7.499290e-01
7.186864e-01
6.874436e-01
6.562003e-01
6.249564e-01
5.937118e-01
5.624665e-01
5.312169e-01
5.000047e-01
1.000000e+00
9.687408e-01
9.374915e-01
9.062433e-01
8.749929e-01
8.437444e-01
8.124942e-01
7.812446e-01
7.499947e-01
7.187448e-01
6.874949e-01
6.562450e-01
6.249951e-01
5.937452e-01
5.624953e-01
5.312416e-01
5.000258e-01
1.000000e+00
9.687421e-01
9.374930e-01
9.062436e-01
8.749933e-01
8.437444e-01
8.124943e-01
7.812446e-01
7.499947e-01
7.187448e-01
6.874950e-01
6.562451e-01
6.249952e-01
5.937453e-01
5.624953e-01
5.312416e-01
5.000259e-01
1.000000e+00
9.687432e-01
9.374943e-01
9.062441e-01
8.749940e-01
8.437443e-01
8.124944e-01
7.812446e-01
7.499946e-01
7.187448e-01
6.874949e-01
6.562450e-01
6.249951e-01
5.937452e-01
5.624953e-01
5.312416e-01
5.000259e-01
1.000000e+00
9.687433e-01
9.374944e-01
9.062443e-01
8.749941e-01
8.437443e-01
8.124944e-01
7.812446e-01
7.499946e-01
7.187448e-01
6.874949e-01
6.562450e-01
6.249951e-01
5.937452e-01
5.624953e-01
5.312416e-01
5.000258e-01
1.000000e+00
9.687423e-01
9.374932e-01
9.062437e-01
8.749935e-01
8.437444e-01
8.124943e-01
7.812445e-01
7.499946e-01
7.187447e-01
6.874948e-01
6.562449e-01
6.249950e-01
5.937452e-01
5.624953e-01
5.312416e-01
5.000258e-01
1.000000e+00
9.687409e-01
9.374910e-01
9.062430e-01
8.749928e-01
8.437444e-01
8.124942e-01
7.812445e-01
7.499946e-01
7.187448e-01
6.874948e-01
6.562449e-01
6.249950e-01
5.937452e-01
5.624953e-01
5.312415e-01
5.000258e-01
1.000000e+00
9.687414e-01
9.374920e-01
9.062432e-01
8.749930e-01
8.437444e-01
8.124942e-01
7.812446e-01
7.499946e-01
7.187448e-01
6.874948e-01
6.562449e-01
6.249950e-01
5.937452e-01
5.624953e-01
5.312415e-01
5.000258e-01
1.000000e+00
9.687426e-01
9.374941e-01
9.062440e-01
8.749938e-01
8.437444e-01
8.124944e-01
7.812446e-01
7.499947e-01
7.187448e-01
6.874949e-01
6.562450e-01
6.249950e-01
5.937452e-01
5.624953e-01
5.312415e-01
5.000258e-01
1.000000e+00
9.687432e-01
9.374943e-01
9.062444e-01
8.749943e-01
8.437444e-01
8.124945e-01
7.812447e-01
7.499947e-01
7.187448e-01
6.874949e-01
6.562450e-01
6.249951e-01
5.937452e-01
5.624953e-01
5.312415e-01
5.000258e-01
1.000000e+00
9.687429e-01
9.374943e-01
9.062441e-01
8.749939e-01
8.437444e-01
8.124945e-01
7.812447e-01
7.499948e-01
7.187449e-01
6.874950e-01
6.562451e-01
6.249952e-01
5.937452e-01
5.624952e-01
5.312415e-01
5.000258e-01
1.000000e+00
9.687417e-01
9.374925e-01
9.062433e-01
8.749930e-01
8.437445e-01
8.124944e-01
7.812447e-01
7.499949e-01
7.187449e-01
6.874950e-01
6.562451e-01
6.249952e-01
5.937452e-01
5.624952e-01
5.312415e-01
5.000258e-01
1.000000e+00
9.687410e-01
9.374911e-01
9.062431e-01
8.749927e-01
8.437445e-01
8.124944e-01
7.812448e-01
7.499949e-01
7.187449e-01
6.874950e-01
6.562451e-01
6.249952e-01
5.937452e-01
5.624952e-01
5.312415e-01
5.000258e-01
1.000000e+00
9.687424e-01
9.374932e-01
9.062437e-01
8.749934e-01
8.437445e-01
8.124945e-01
7.812448e-01
7.499949e-01
7.187449e-01
6.874950e-01
6.562451e-01
6.249952e-01
5.937452e-01
5.624952e-01
5.312415e-01
5.000258e-01
1.000000e+00
9.687432e-01
9.374944e-01
9.062444e-01
8.749943e-01
8.437444e-01
8.124946e-01
7.812448e-01
7.499949e-01
7.187449e-01
6.874950e-01
6.562451e-01
6.249951e-01
5.937452e-01
5.624952e-01
5.312415e-01
5.000257e-01
1.000000e+00
9.687429e-01
9.374942e-01
9.062443e-01
8.749943e-01
8.437445e-01
8.124946e-01
7.812448e-01
7.499948e-01
7.187449e-01
6.874949e-01
6.562450e-01
6.249951e-01
5.937451e-01
5.624952e-01
5.312414e-01
5.000257e-01
1.000000e+00
9.687428e-01
9.374943e-01
9.062439e-01
8.749936e-01
8.437446e-01
8.124945e-01
7.812448e-01
7.499948e-01
7.187449e-01
6.874949e-01
6.562450e-01
6.249950e-01
5.937451e-01
5.624952e-01
5.312414e-01
5.000257e-01
1.000000e+00
9.687425e-01
9.374942e-01
9.062436e-01
8.749929e-01
8.437445e-01
8.124943e-01
7.812447e-01
7.499947e-01
7.187448e-01
6.874948e-01
6.562449e-01
6.249950e-01
5.937450e-01
5.624951e-01
5.312413e-01
5.000256e-01
1.000000e+00
9.687158e-01
9.374501e-01
9.061495e-01
8.711323e-01
8.436463e-01
8.124156e-01
7.811692e-01
7.499254e-01
7.186824e-01
6.874393e-01
6.561960e-01
6.249521e-01
5.937077e-01
5.624626e-01
5.312132e-01
5.000012e-01
1.000000e+00
9.687205e-01
9.374561e-01
9.061655e-01
8.717830e-01
8.436620e-01
8.124290e-01
7.811820e-01
7.499371e-01
7.186930e-01
6.874488e-01
6.562043e-01
6.249594e-01
5.937141e-01
5.624682e-01
5.312181e-01
5.000055e-01
1.000000e+00
9.687334e-01
9.374768e-01
9.062086e-01
8.735157e-01
8.437053e-01
8.124644e-01
7.812158e-01
7.499682e-01
7.187210e-01
6.874737e-01
6.562264e-01
6.249788e-01
5.937310e-01
5.624830e-01
5.312309e-01
5.000166e-01
1.000000e+00
9.687481e-01
9.375036e-01
9.062612e-01
8.757464e-01
8.437646e-01
8.125094e-01
7.812593e-01
7.500082e-01
7.187571e-01
6.875059e-01
6.562548e-01
6.250037e-01
5.937528e-01
5.625020e-01
5.312474e-01
5.000309e-01
1.000000e+00
9.687601e-01
9.375276e-01
9.063045e-01
8.777231e-01
8.438205e-01
8.125491e-01
7.812979e-01
7.500437e-01
7.187891e-01
6.875345e-01
6.562800e-01
6.250259e-01
5.937721e-01
5.625188e-01
5.312620e-01
5.000436e-01
1.000000e+00
9.687672e-01
9.375427e-01
9.063298e-01
8.787796e-01
8.438517e-01
8.125702e-01
7.813186e-01
7.500627e-01
7.188062e-01
6.875498e-01
6.562936e-01
6.250378e-01
5.937825e-01
5.625279e-01
5.312699e-01
5.000504e-01
1.000000e+00
9.687654e-01
9.375381e-01
9.063242e-01
8.785600e-01
8.438452e-01
8.125659e-01
7.813144e-01
7.500589e-01
7.188028e-01
6.875467e-01
6.562909e-01
6.250354e-01
5.937805e-01
5.625261e-01
5.312683e-01
5.000491e-01
1.000000e+00
9.687578e-01
9.375207e-01
9.062918e-01
8.771382e-01
8.438038e-01
8.125377e-01
7.812868e-01
7.500336e-01
7.187800e-01
6.875264e-01
6.562730e-01
6.250197e-01
5.937668e-01
5.625142e-01
5.312580e-01
5.000401e-01
1.000000e+00
9.687428e-01
9.374942e-01
9.062442e-01
8.749934e-01
8.437445e-01
8.124947e-01
7.812451e-01
7.499953e-01
7.187455e-01
6.874957e-01
6.562458e-01
6.249959e-01
5.937460e-01
5.624961e-01
5.312423e-01
5.000266e-01
1.000000e+00
9.687291e-01
9.374691e-01
9.061923e-01
8.728483e-01
8.436888e-01
8.124513e-01
7.812034e-01
7.499570e-01
7.187110e-01
6.874649e-01
6.562187e-01
6.249721e-01
5.937252e-01
5.624779e-01
5.312266e-01
5.000129e-01
1.000000e+00
9.687176e-01
9.374517e-01
9.061573e-01
8.714264e-01
8.436539e-01
8.124224e-01
7.811758e-01
7.499316e-01
7.186881e-01
6.874444e-01
6.562005e-01
6.249561e-01
5.937112e-01
5.624657e-01
5.312159e-01
5.000036e-01
1.000000e+00
9.687159e-01
9.374504e-01
9.061526e-01
8.712067e-01
8.436487e-01
8.124179e-01
7.811714e-01
7.499275e-01
7.186843e-01
6.874409e-01
6.561973e-01
6.249533e-01
5.937086e-01
5.624634e-01
5.312138e-01
5.000018e-01
1.000000e+00
9.687242e-01
9.374622e-01
9.061781e-01
8.722637e-01
8.436743e-01
8.124393e-01
7.811916e-01
7.499459e-01
7.187006e-01
6.874554e-01
6.562099e-01
6.249642e-01
5.937181e-01
5.624715e-01
5.312208e-01
5.000077e-01
1.000000e+00
9.687384e-01
9.374859e-01
9.062267e-01
8.742407e-01
8.437244e-01
8.124790e-01
7.812294e-01
7.499803e-01
7.187314e-01
6.874826e-01
6.562338e-01
6.249850e-01
5.937361e-01
5.624871e-01
5.312342e-01
5.000193e-01
1.000000e+00
9.687534e-01
9.375127e-01
9.062776e-01
8.764712e-01
8.437845e-01
8.125232e-01
7.812719e-01
7.500192e-01
7.187662e-01
6.875134e-01
6.562608e-01
6.250085e-01
5.937565e-01
5.625048e-01
5.312495e-01
5.000325e-01
1.000000e+00
9.687644e-01
9.375331e-01
9.063143e-01
8.782036e-01
8.438337e-01
8.125571e-01
7.813048e-01
7.500492e-01
7.187931e-01
6.875372e-01
6.562817e-01
6.250268e-01
5.937724e-01
5.625185e-01
5.312614e-01
5.000427e-01
1.000000e+00
9.687688e-01
9.375410e-01
9.063274e-01
8.788536e-01
8.438526e-01
8.125696e-01
7.813170e-01
7.500604e-01
7.188031e-01
6.875461e-01
6.562895e-01
6.250336e-01
5.937783e-01
5.625237e-01
5.312658e-01
5.000466e-01
1.000000e+00
9.686951e-01
9.374122e-01
9.060585e-01
8.678606e-01
8.435722e-01
8.123482e-01
7.811054e-01
7.498667e-01
7.186296e-01
6.873923e-01
6.561544e-01
6.249156e-01
5.936758e-01
5.624349e-01
5.311892e-01
4.999804e-01
1.000000e+00
9.687028e-01
9.374253e-01
9.060940e-01
8.690612e-01
8.435983e-01
8.123731e-01
7.811289e-01
7.498884e-01
7.186491e-01
6.874097e-01
6.561698e-01
6.249291e-01
5.936877e-01
5.624452e-01
5.311981e-01
4.999882e-01
1.000000e+00
9.687231e-01
9.374601e-01
9.061770e-01
8.722619e-01
8.436735e-01
8.124387e-01
7.811913e-01
7.499457e-01
7.187008e-01
6.874558e-01
6.562105e-01
6.249649e-01
5.937189e-01
5.624725e-01
5.312218e-01
5.000088e-01
1.000000e+00
9.687507e-01
9.375092e-01
9.062742e-01
8.763829e-01
8.437821e-01
8.125220e-01
7.812717e-01
7.500197e-01
7.187675e-01
6.875152e-01
6.562630e-01
6.250110e-01
5.937592e-01
5.625077e-01
5.312523e-01
5.000353e-01
1.000000e+00
9.687773e-01
9.375577e-01
9.063526e-01
8.800375e-01
8.438894e-01
8.125951e-01
7.813431e-01
7.500853e-01
7.188266e-01
6.875680e-01
6.563097e-01
6.250520e-01
5.937950e-01
5.625388e-01
5.312794e-01
5.000587e-01
1.000000e+00
9.687899e-01
9.375819e-01
9.063890e-01
8.819911e-01
8.439512e-01
8.126339e-01
7.813813e-01
7.501205e-01
7.188583e-01
6.875963e-01
6.563347e-01
6.250740e-01
5.938142e-01
5.625555e-01
5.312939e-01
5.000713e-01
1.000000e+00
9.687862e-01
9.375760e-01
9.063817e-01
8.815847e-01
8.439383e-01
8.126260e-01
7.813736e-01
7.501134e-01
7.188520e-01
6.875907e-01
6.563298e-01
6.250697e-01
5.938104e-01
5.625522e-01
5.312911e-01
5.000688e-01
1.000000e+00
9.687701e-01
9.375447e-01
9.063312e-01
8.789566e-01
8.438569e-01
8.125740e-01
7.813225e-01
7.500666e-01
7.188098e-01
6.875531e-01
6.562967e-01
6.250406e-01
5.937851e-01
5.625302e-01
5.312720e-01
5.000523e-01
1.000000e+00
9.687409e-01
9.374914e-01
9.062412e-01
8.749910e-01
8.437445e-01
8.124947e-01
7.812455e-01
7.499958e-01
7.187461e-01
6.874964e-01
6.562465e-01
6.249967e-01
5.937468e-01
5.624968e-01
5.312430e-01
5.000272e-01
1.000000e+00
9.687158e-01
9.374478e-01
9.061459e-01
8.710302e-01
8.436442e-01
8.124145e-01
7.811685e-01
7.499250e-01
7.186824e-01
6.874395e-01
6.561963e-01
6.249526e-01
5.937083e-01
5.624633e-01
5.312139e-01
5.000020e-01
1.000000e+00
9.686982e-01
9.374180e-01
9.060759e-01
8.684031e-01
8.435848e-01
8.123607e-01
7.811174e-01
7.498780e-01
7.186399e-01
6.874016e-01
6.561628e-01
6.249231e-01
5.936824e-01
5.624407e-01
5.311942e-01
4.999849e-01
1.000000e+00
9.686964e-01
9.374146e-01
9.060644e-01
8.679982e-01
8.435762e-01
8.123523e-01
7.811092e-01
7.498704e-01
7.186329e-01
6.873951e-01
6.561569e-01
6.249178e-01
5.936776e-01
5.624364e-01
5.311904e-01
4.999814e-01
1.000000e+00
9.687093e-01
9.374361e-01
9.061187e-01
8.699492e-01
8.436193e-01
8.123921e-01
7.811465e-01
7.499043e-01
7.186631e-01
6.874218e-01
6.561802e-01
6.249380e-01
5.936951e-01
5.624513e-01
5.312032e-01
4.999924e-01
1.000000e+00
9.687323e-01
9.374763e-01
9.062104e-01
8.736006e-01
8.437078e-01
8.124656e-01
7.812164e-01
7.499681e-01
7.187201e-01
6.874722e-01
6.562244e-01
6.249765e-01
5.937284e-01
5.624802e-01
5.312281e-01
5.000138e-01
1.000000e+00
9.687611e-01
9.375283e-01
9.063055e-01
8.777226e-01
8.438196e-01
8.125473e-01
7.812949e-01
7.500398e-01
7.187842e-01
6.875290e-01
6.562742e-01
6.250199e-01
5.937661e-01
5.625129e-01
5.312563e-01
5.000382e-01
1.000000e+00
9.687827e-01
9.375672e-01
9.063696e-01
8.809248e-01
8.439154e-01
8.126096e-01
7.813556e-01
7.500953e-01
7.188339e-01
6.875731e-01
6.563129e-01
6.250537e-01
5.937955e-01
5.625383e-01
5.312783e-01
5.000572e-01
1.000000e+00
9.687902e-01
9.375804e-01
9.063898e-01
8.821273e-01
8.439530e-01
8.126327e-01
7.813784e-01
7.501161e-01
7.188526e-01
6.875896e-01
6.563274e-01
6.250664e-01
5.938065e-01
5.625479e-01
5.312866e-01
5.000643e-01
1.000000e+00
9.686798e-01
9.373834e-01
9.059943e-01
8.656743e-01
8.435272e-01
8.123028e-01
7.810628e-01
7.498276e-01
7.185943e-01
6.873608e-01
6.561267e-01
6.248913e-01
5.936546e-01
5.624164e-01
5.311731e-01
4.999665e-01
1.000000e+00
9.686924e-01
9.374064e-01
9.060450e-01
8.672451e-01
8.435587e-01
8.123355e-01
7.810935e-01
7.498558e-01
7.186198e-01
6.873836e-01
6.561468e-01
6.249089e-01
5.936700e-01
5.624299e-01
5.311848e-01
4.999767e-01
1.000000e+00
9.687144e-01
9.374467e-01
9.061527e-01
8.714257e-01
8.436526e-01
8.124214e-01
7.811750e-01
7.499307e-01
7.186874e-01
6.874438e-01
6.562000e-01
6.249557e-01
5.937109e-01
5.624655e-01
5.312158e-01
5.000036e-01
1.000000e+00
9.687516e-01
9.375113e-01
9.062806e-01
8.768076e-01
8.437939e-01
8.125304e-01
7.812800e-01
7.500274e-01
7.187745e-01
6.875215e-01
6.562686e-01
6.250159e-01
5.937635e-01
5.625114e-01
5.312556e-01
5.000382e-01
1.000000e+00
9.687903e-01
9.375804e-01
9.063866e-01
8.815862e-01
8.439375e-01
8.126256e-01
7.813733e-01
7.501131e-01
7.188517e-01
6.875904e-01
6.563295e-01
6.250694e-01
5.938102e-01
5.625521e-01
5.312910e-01
5.000688e-01
1.000000e+00
9.688030e-01
9.376046e-01
9.064237e-01
8.841371e-01
8.440221e-01
8.126761e-01
7.814232e-01
7.501591e-01
7.188932e-01
6.876274e-01
6.563622e-01
6.250981e-01
5.938353e-01
5.625740e-01
5.313100e-01
5.000852e-01
1.000000e+00
9.688009e-01
9.376018e-01
9.064184e-01
8.836057e-01
8.440043e-01
8.126658e-01
7.814131e-01
7.501498e-01
7.188849e-01
6.876201e-01
6.563558e-01
6.250925e-01
5.938305e-01
5.625697e-01
5.313063e-01
5.000820e-01
1.000000e+00
9.687772e-01
9.375616e-01
9.063595e-01
8.801734e-01
8.438935e-01
8.125981e-01
7.813464e-01
7.500886e-01
7.188298e-01
6.875710e-01
6.563125e-01
6.250546e-01
5.937974e-01
5.625409e-01
5.312813e-01
5.000604e-01
1.000000e+00
9.687392e-01
9.374875e-01
9.062348e-01
8.749881e-01
8.437444e-01
8.124947e-01
7.812457e-01
7.499961e-01
7.187465e-01
6.874968e-01
6.562470e-01
6.249972e-01
5.937472e-01
5.624973e-01
5.312435e-01
5.000276e-01
1.000000e+00
9.687051e-01
9.374325e-01
9.061139e-01
8.698188e-01
8.436155e-01
8.123897e-01
7.811451e-01
7.499037e-01
7.186632e-01
6.874226e-01
6.561814e-01
6.249396e-01
5.936970e-01
5.624535e-01
5.312054e-01
4.999947e-01
1.000000e+00
9.686858e-01
9.373962e-01
9.060200e-01
8.663827e-01
8.435425e-01
8.123192e-01
7.810784e-01
7.498423e-01
7.186078e-01
6.873730e-01
6.561376e-01
6.249010e-01
5.936632e-01
5.624240e-01
5.311798e-01
4.999724e-01
1.000000e+00
9.686816e-01
9.373864e-01
9.060010e-01
8.658547e-01
8.435321e-01
8.123081e-01
7.810678e-01
7.498323e-01
7.185986e-01
6.873646e-01
6.561299e-01
6.248941e-01
5.936569e-01
5.624183e-01
5.311747e-01
4.999679e-01
1.000000e+00
9.687006e-01
9.374203e-01
9.060782e-01
8.684051e-01
8.435846e-01
8.123603e-01
7.811165e-01
7.498766e-01
7.186381e-01
6.873994e-01
6.561603e-01
6.249205e-01
5.936797e-01
5.624379e-01
5.311915e-01
4.999822e-01
1.000000e+00
9.687267e-01
9.374671e-01
9.061961e-01
8.731725e-01
8.436967e-01
8.124566e-01
7.812077e-01
7.499599e-01
7.187125e-01
6.874653e-01
6.562181e-01
6.249708e-01
5.937233e-01
5.624756e-01
5.312240e-01
5.000102e-01
1.000000e+00
9.687651e-01
9.375381e-01
9.063253e-01
8.785590e-01
8.438437e-01
8.125633e-01
7.813103e-01
7.500536e-01
7.187963e-01
6.875395e-01
6.562832e-01
6.250275e-01
5.937726e-01
5.625183e-01
5.312609e-01
5.000420e-01
1.000000e+00
9.687970e-01
9.375931e-01
9.064072e-01
8.827427e-01
8.439731e-01
8.126444e-01
7.813897e-01