<?xml version="1.0"?>
<VTKFile type="StructuredGrid" version="0.1">
  <StructuredGrid WholeExtent="0 16 0 16 0 16">
    <Piece Extent="0 16 0 16 0 16">
      <PointData Scalars="temperature" Vectors="velocity">
        <DataArray type="Float32" Name="temperature" format="ascii">
1.000000e+00
9.689391e-01
9.378711e-01
9.068386e-01
8.852978e-01
8.447179e-01
8.131404e-01
7.818820e-01
7.505870e-01
7.192841e-01
6.879808e-01
6.566789e-01
6.253803e-01
5.940855e-01
5.627949e-01
5.314974e-01
5.003165e-01
1.000000e+00
9.689204e-01
9.378316e-01
9.067868e-01
8.835677e-01
8.445326e-01
8.130305e-01
7.817726e-01
7.504851e-01
7.191910e-01
6.878966e-01
6.566034e-01
6.253129e-01
5.940257e-01
5.627420e-01
5.314508e-01
5.002754e-01
1.000000e+00
9.688002e-01
9.376280e-01
9.065035e-01
8.789263e-01
8.440805e-01
8.127354e-01
7.814812e-01
7.502138e-01
7.189433e-01
6.876727e-01
6.564027e-01
6.251341e-01
5.938670e-01
5.626015e-01
5.313268e-01
5.001660e-01
1.000000e+00
9.686685e-01
9.373795e-01
9.060367e-01
8.729528e-01
8.435674e-01
8.123510e-01
7.811064e-01
7.498649e-01
7.186249e-01
6.873850e-01
6.561449e-01
6.249043e-01
5.936630e-01
5.624208e-01
5.311673e-01
5.000252e-01
1.000000e+00
9.685750e-01
9.372280e-01
9.056494e-01
8.677313e-01
8.431827e-01
8.120055e-01
7.807746e-01
7.495561e-01
7.183430e-01
6.871302e-01
6.559165e-01
6.247007e-01
5.934821e-01
5.622606e-01
5.310257e-01
4.999003e-01
1.000000e+00
9.685167e-01
9.371133e-01
9.053986e-01
8.648701e-01
8.430078e-01
8.118192e-01
7.805980e-01
7.493907e-01
7.181920e-01
6.869937e-01
6.557939e-01
6.245913e-01
5.933848e-01
5.621743e-01
5.309495e-01
4.998330e-01
1.000000e+00
9.685321e-01
9.371435e-01
9.054648e-01
8.654638e-01
8.430418e-01
8.118574e-01
7.806340e-01
7.494240e-01
7.182222e-01
6.870207e-01
6.558179e-01
6.246125e-01
5.934036e-01
5.621909e-01
5.309641e-01
4.998457e-01
1.000000e+00
9.685935e-01
9.372628e-01
9.057770e-01
8.692779e-01
8.432915e-01
8.121057e-01
7.808701e-01
7.496443e-01
7.184229e-01
6.872019e-01
6.559803e-01
6.247570e-01
5.935318e-01
5.623043e-01
5.310641e-01
4.999340e-01
1.000000e+00
9.687152e-01
9.374579e-01
9.061868e-01
8.749501e-01
8.437286e-01
8.124774e-01
7.812284e-01
7.499775e-01
7.187268e-01
6.874763e-01
6.562261e-01
6.249760e-01
5.937262e-01
5.624764e-01
5.312160e-01
5.000680e-01
1.000000e+00
9.688400e-01
9.377089e-01
9.066269e-01
8.807175e-01
8.442474e-01
8.128438e-01
7.815873e-01
7.503115e-01
7.190316e-01
6.877518e-01
6.564730e-01
6.251962e-01
5.939217e-01
5.626497e-01
5.313691e-01
5.002031e-01
1.000000e+00
9.689341e-01
9.378618e-01
9.068298e-01
8.845105e-01
8.446266e-01
8.130856e-01
7.818266e-01
7.505344e-01
7.192354e-01
6.879363e-01
6.566388e-01
6.253444e-01
5.940537e-01
5.627669e-01
5.314728e-01
5.002949e-01
1.000000e+00
9.689359e-01
9.378638e-01
9.068291e-01
8.850982e-01
8.446920e-01
8.131244e-01
7.818661e-01
7.505721e-01
7.192709e-01
6.879694e-01
6.566693e-01
6.253725e-01
5.940794e-01
5.627903e-01
5.314942e-01
5.003143e-01
1.000000e+00
9.688936e-01
9.377811e-01
9.067118e-01
8.822815e-01
8.444014e-01
8.129490e-01
7.816939e-01
7.504140e-01
7.191283e-01
6.878422e-01
6.565568e-01
6.252735e-01
5.939928e-01
5.627147e-01
5.314283e-01
5.002569e-01
1.000000e+00
9.687588e-01
9.375413e-01
9.063543e-01
8.769794e-01
8.439083e-01
8.126182e-01
7.813709e-01
7.501157e-01
7.188584e-01
6.876004e-01
6.563420e-01
6.250837e-01
5.938257e-01
5.625679e-01
5.312998e-01
5.001444e-01
1.000000e+00
9.686295e-01
9.373159e-01
9.059199e-01
8.710401e-01
8.434292e-01
8.122407e-01
7.810072e-01
7.497797e-01
7.185541e-01
6.873275e-01
6.560994e-01
6.248690e-01
5.936364e-01
5.624014e-01
5.311538e-01
5.000164e-01
1.000000e+00
9.685569e-01
9.371827e-01
9.055604e-01
8.664289e-01
8.431168e-01
8.119450e-01
7.807262e-01
7.495199e-01
7.183185e-01
6.871159e-01
6.559108e-01
6.247021e-01
5.934891e-01
5.622719e-01
5.310401e-01
4.999166e-01
1.000000e+00
9.685142e-01
9.371033e-01
9.053864e-01
8.646882e-01
8.430146e-01
8.118333e-01
7.806205e-01
7.494219e-01
7.182293e-01
6.870356e-01
6.558391e-01
6.246385e-01
5.934330e-01
5.622225e-01
5.309967e-01
4.998785e-01
1.000000e+00
9.689238e-01
9.378410e-01
9.068010e-01
8.845127e-01
8.446342e-01
8.130906e-01
7.818323e-01
7.505409e-01
7.192420e-01
6.879428e-01
6.566450e-01
6.253501e-01
5.940589e-01
5.627714e-01
5.314768e-01
5.002983e-01
1.000000e+00
9.689044e-01
9.378021e-01
9.067471e-01
8.829101e-01
8.444662e-01
8.129891e-01
7.817313e-01
7.504467e-01
7.191559e-01
6.878650e-01
6.565752e-01
6.252879e-01
5.940037e-01
5.627226e-01
5.314337e-01
5.002603e-01
1.000000e+00
9.687962e-01
9.376185e-01
9.064848e-01
8.786254e-01
8.440520e-01
8.127164e-01
7.814622e-01
7.501961e-01
7.189272e-01
6.876582e-01
6.563898e-01
6.251227e-01
5.938570e-01
5.625927e-01
5.313191e-01
5.001592e-01
1.000000e+00
9.686743e-01
9.373893e-01
9.060611e-01
8.731083e-01
8.435802e-01
8.123613e-01
7.811161e-01
7.498739e-01
7.186331e-01
6.873924e-01
6.561516e-01
6.249104e-01
5.936684e-01
5.624257e-01
5.311717e-01
5.000292e-01
1.000000e+00
9.685896e-01
9.372454e-01
9.057010e-01
8.682706e-01
8.432212e-01
8.120424e-01
7.808095e-01
7.495886e-01
7.183727e-01
6.871570e-01
6.559406e-01
6.247222e-01
5.935013e-01
5.622776e-01
5.310409e-01
4.999138e-01
1.000000e+00
9.685325e-01
9.371377e-01
9.054670e-01
8.656394e-01
8.430555e-01
8.118703e-01
7.806460e-01
7.494359e-01
7.182332e-01
6.870309e-01
6.558273e-01
6.246211e-01
5.934114e-01
5.621980e-01
5.309705e-01
4.998516e-01
1.000000e+00
9.685463e-01
9.371663e-01
9.055255e-01
8.661827e-01
8.430882e-01
8.119055e-01
7.806792e-01
7.494666e-01
7.182611e-01
6.870558e-01
6.558495e-01
6.246407e-01
5.934288e-01
5.622133e-01
5.309840e-01
4.998634e-01
1.000000e+00
9.686077e-01
9.372836e-01
9.058183e-01
8.697042e-01
8.433215e-01
8.121350e-01
7.808978e-01
7.496702e-01
7.184466e-01
6.872233e-01
6.559995e-01
6.247743e-01
5.935472e-01
5.623181e-01
5.310764e-01
4.999449e-01
1.000000e+00
9.687163e-01
9.374604e-01
9.061964e-01
8.749576e-01
8.437290e-01
8.124781e-01
7.812288e-01
7.499780e-01
7.187273e-01
6.874769e-01
6.562267e-01
6.249767e-01
5.937269e-01
5.624771e-01
5.312167e-01
5.000686e-01
1.000000e+00
9.688345e-01
9.376937e-01
9.065964e-01
8.802794e-01
8.442032e-01
8.128167e-01
7.815604e-01
7.502866e-01
7.190090e-01
6.877315e-01
6.564549e-01
6.251802e-01
5.939076e-01
5.626372e-01
5.313581e-01
5.001934e-01
1.000000e+00
9.689163e-01
9.378289e-01
9.067840e-01
8.837832e-01
8.445520e-01
8.130399e-01
7.817812e-01
7.504924e-01
7.191972e-01
6.879020e-01
6.566081e-01
6.253172e-01
5.940295e-01
5.627455e-01
5.314540e-01
5.002782e-01
1.000000e+00
9.689200e-01
9.378333e-01
9.067911e-01
8.843276e-01
8.446111e-01
8.130757e-01
7.818176e-01
7.505273e-01
7.192300e-01
6.879325e-01
6.566363e-01
6.253431e-01
5.940533e-01
5.627672e-01
5.314737e-01
5.002962e-01
1.000000e+00
9.688794e-01
9.377548e-01
9.066766e-01
8.817209e-01
8.443465e-01
8.129138e-01
7.816588e-01
7.503812e-01
7.190983e-01
6.878150e-01
6.565324e-01
6.252516e-01
5.939732e-01
5.626973e-01
5.314128e-01
5.002431e-01
1.000000e+00
9.687573e-01
9.375383e-01
9.063492e-01
8.768281e-01
8.438948e-01
8.126081e-01
7.813604e-01
7.501057e-01
7.188490e-01
6.875916e-01
6.563339e-01
6.250763e-01
5.938188e-01
5.625616e-01
5.312941e-01
5.001392e-01
1.000000e+00
9.686394e-01
9.373323e-01
9.059499e-01
8.713368e-01
8.434515e-01
8.122593e-01
7.810244e-01
7.497952e-01
7.185678e-01
6.873396e-01
6.561097e-01
6.248779e-01
5.936439e-01
5.624078e-01
5.311591e-01
5.000209e-01
1.000000e+00
9.685691e-01
9.372033e-01
9.056159e-01
8.670740e-01
8.431582e-01
8.119865e-01
7.807648e-01
7.495552e-01
7.183502e-01
6.871441e-01
6.559357e-01
6.247237e-01
5.935079e-01
5.622881e-01
5.310541e-01
4.999287e-01
1.000000e+00
9.685305e-01
9.371321e-01
9.054597e-01
8.654714e-01
8.430609e-01
8.118835e-01
7.806671e-01
7.494646e-01
7.182678e-01
6.870699e-01
6.558693e-01
6.246649e-01
5.934560e-01
5.622424e-01
5.310140e-01
4.998935e-01
1.000000e+00
9.688828e-01
9.377699e-01
9.066918e-01
8.822747e-01
8.444034e-01
8.129489e-01
7.816914e-01
7.504098e-01
7.191225e-01
6.878350e-01
6.565486e-01
6.252644e-01
5.939830e-01
5.627045e-01
5.314178e-01
5.002465e-01
1.000000e+00
9.688549e-01
9.377199e-01
9.066287e-01
8.810445e-01
8.442814e-01
8.128709e-01
7.816141e-01
7.503378e-01
7.190567e-01
6.877755e-01
6.564952e-01
6.252169e-01
5.939408e-01
5.626672e-01
5.313849e-01
5.002174e-01
1.000000e+00
9.687854e-01
9.375900e-01
9.064255e-01
8.777684e-01
8.439740e-01
8.126619e-01
7.814083e-01
7.501461e-01
7.188818e-01
6.876173e-01
6.563534e-01
6.250904e-01
5.938285e-01
5.625677e-01
5.312972e-01
5.001400e-01
1.000000e+00
9.686922e-01
9.374196e-01
9.061176e-01
8.735505e-01
8.436160e-01
8.123902e-01
7.811435e-01
7.498996e-01
7.186567e-01
6.874139e-01
6.561711e-01
6.249279e-01
5.936842e-01
5.624399e-01
5.311843e-01
5.000404e-01
1.000000e+00
9.686215e-01
9.372957e-01
9.058361e-01
8.698270e-01
8.433331e-01
8.121467e-01
7.809090e-01
7.496812e-01
7.184573e-01
6.872337e-01
6.560095e-01
6.247837e-01
5.935562e-01
5.623265e-01
5.310843e-01
4.999521e-01
1.000000e+00
9.685794e-01
9.372259e-01
9.056716e-01
8.678309e-01
8.431966e-01
8.120152e-01
7.807834e-01
7.495643e-01
7.183506e-01
6.871370e-01
6.559226e-01
6.247063e-01
5.934874e-01
5.622655e-01
5.310304e-01
4.999046e-01
1.000000e+00
9.685856e-01
9.372380e-01
9.057068e-01
8.682441e-01
8.432240e-01
8.120421e-01
7.808089e-01
7.495878e-01
7.183719e-01
6.871562e-01
6.559397e-01
6.247214e-01
5.935007e-01
5.622772e-01
5.310406e-01
4.999136e-01
1.000000e+00
9.686418e-01
9.373329e-01
9.059237e-01
8.709296e-01
8.434122e-01
8.122175e-01
7.809766e-01
7.497437e-01
7.185140e-01
6.872845e-01
6.560546e-01
6.248236e-01
5.935914e-01
5.623574e-01
5.311113e-01
4.999759e-01
1.000000e+00
9.687220e-01
9.374721e-01
9.062193e-01
8.749707e-01
8.437303e-01
8.124797e-01
7.812300e-01
7.499794e-01
7.187289e-01
6.874787e-01
6.562286e-01
6.249787e-01
5.937289e-01
5.624791e-01
5.312186e-01
5.000705e-01
1.000000e+00
9.688138e-01
9.376433e-01
9.065073e-01
8.790306e-01
8.440858e-01
8.127392e-01
7.814838e-01
7.502156e-01
7.189445e-01
6.876736e-01
6.564034e-01
6.251345e-01
5.938672e-01
5.626016e-01
5.313268e-01
5.001659e-01
1.000000e+00
9.688665e-01
9.377433e-01
9.066650e-01
8.817155e-01
8.443444e-01
8.129102e-01
7.816527e-01
7.503731e-01
7.190886e-01
6.878041e-01
6.565207e-01
6.252393e-01
5.939605e-01
5.626844e-01
5.314001e-01
5.002307e-01
1.000000e+00
9.688800e-01
9.377637e-01
9.066891e-01
8.821321e-01
8.443869e-01
8.129376e-01
7.816805e-01
7.503998e-01
7.191137e-01
6.878275e-01
6.565423e-01
6.252592e-01
5.939787e-01
5.627010e-01
5.314152e-01
5.002444e-01
1.000000e+00
9.688365e-01
9.376822e-01
9.065731e-01
8.801339e-01
8.441933e-01
8.128135e-01
7.815592e-01
7.502881e-01
7.190129e-01
6.877376e-01
6.564627e-01
6.251892e-01
5.939174e-01
5.626475e-01
5.313686e-01
5.002039e-01
1.000000e+00
9.687543e-01
9.375308e-01
9.063271e-01
8.763973e-01
8.438564e-01
8.125792e-01
7.813308e-01
7.500772e-01
7.188221e-01
6.875666e-01
6.563108e-01
6.250549e-01
5.937992e-01
5.625437e-01
5.312777e-01
5.001243e-01
1.000000e+00
9.686665e-01
9.373749e-01
9.060238e-01
8.721892e-01
8.435156e-01
8.123125e-01
7.810737e-01
7.498396e-01
7.186069e-01
6.873736e-01
6.561391e-01
6.249030e-01
5.936653e-01
5.624259e-01
5.311744e-01
5.000338e-01
1.000000e+00
9.686041e-01
9.372621e-01
9.057669e-01
8.689241e-01
8.432809e-01
8.121042e-01
7.808750e-01
7.496559e-01
7.184404e-01
6.872241e-01
6.560059e-01
6.247850e-01
5.935611e-01
5.623342e-01
5.310939e-01
4.999631e-01
1.000000e+00
9.685775e-01
9.372145e-01
9.056599e-01
8.677012e-01
8.432002e-01
8.120256e-01
7.808000e-01
7.495864e-01
7.183772e-01
6.871672e-01
6.559552e-01
6.247400e-01
5.935214e-01
5.622992e-01
5.310632e-01
4.999361e-01
1.000000e+00
9.688094e-01
9.376424e-01
9.065048e-01
8.789262e-01
8.440801e-01
8.127358e-01
7.814812e-01
7.502142e-01
7.189443e-01
6.876742e-01
6.564047e-01
6.251363e-01
5.938695e-01
5.626041e-01
5.313294e-01
5.001686e-01
1.000000e+00
9.687922e-01
9.376075e-01
9.064551e-01
8.782611e-01
8.440191e-01
8.126935e-01
7.814394e-01
7.501754e-01
7.189088e-01
6.876421e-01
6.563759e-01
6.251107e-01
5.938467e-01
5.625840e-01
5.313117e-01
5.001529e-01
1.000000e+00
9.687628e-01
9.375424e-01
9.063373e-01
8.764899e-01
8.438612e-01
8.125801e-01
7.813281e-01
7.500717e-01
7.188142e-01
6.875566e-01
6.562992e-01
6.250423e-01
5.937860e-01
5.625302e-01
5.312642e-01
5.001110e-01
1.000000e+00
9.687134e-01
9.374543e-01
9.061769e-01
8.742097e-01
8.436693e-01
8.124331e-01
7.811849e-01
7.499382e-01
7.186923e-01
6.874464e-01
6.562004e-01
6.249543e-01
5.937078e-01
5.624610e-01
5.312032e-01
5.000571e-01
1.000000e+00
9.686684e-01
9.373774e-01
9.060245e-01
8.721888e-01
8.435091e-01
8.123016e-01
7.810578e-01
7.498200e-01
7.185843e-01
6.873487e-01
6.561128e-01
6.248762e-01
5.936386e-01
5.623997e-01
5.311490e-01
5.000094e-01
1.000000e+00
9.686406e-01
9.373372e-01
9.059444e-01
8.711144e-01
8.434273e-01
8.122307e-01
7.809898e-01
7.497567e-01
7.185265e-01
6.872964e-01
6.560658e-01
6.248342e-01
5.936013e-01
5.623667e-01
5.311199e-01
4.999837e-01
1.000000e+00
9.686463e-01
9.373435e-01
9.059594e-01
8.713363e-01
8.434440e-01
8.122452e-01
7.810036e-01
7.497694e-01
7.185381e-01
6.873067e-01
6.560750e-01
6.248424e-01
5.936085e-01
5.623730e-01
5.311254e-01
4.999886e-01
1.000000e+00
9.686844e-01
9.374015e-01
9.060703e-01
8.727856e-01
8.435551e-01
8.123398e-01
7.810945e-01
7.498539e-01
7.186150e-01
6.873762e-01
6.561373e-01
6.248977e-01
5.936575e-01
5.624163e-01
5.311636e-01
5.000222e-01
1.000000e+00
9.687284e-01
9.374822e-01
9.062322e-01
8.749796e-01
8.437318e-01
8.124817e-01
7.812318e-01
7.499815e-01
7.187314e-01
6.874814e-01
6.562315e-01
6.249817e-01
5.937319e-01
5.624820e-01
5.312215e-01
5.000733e-01
1.000000e+00
9.687765e-01
9.375684e-01
9.063825e-01
8.771709e-01
8.439197e-01
8.126224e-01
7.813692e-01
7.501094e-01
7.188481e-01
6.875870e-01
6.563262e-01
6.250660e-01
5.938067e-01
5.625482e-01
5.312800e-01
5.001248e-01
1.000000e+00
9.687999e-01
9.376222e-01
9.064810e-01
8.786258e-01
8.440507e-01
8.127153e-01
7.814607e-01
7.501947e-01
7.189261e-01
6.876576e-01
6.563897e-01
6.251228e-01
5.938571e-01
5.625930e-01
5.313196e-01
5.001598e-01
1.000000e+00
9.688056e-01
9.376360e-01
9.065019e-01
8.788519e-01
8.440717e-01
8.127302e-01
7.814757e-01
7.502091e-01
7.189397e-01
6.876703e-01
6.564014e-01
6.251335e-01
5.938670e-01
5.626020e-01
5.313277e-01
5.001672e-01
1.000000e+00
9.687828e-01
9.375875e-01
9.064224e-01
8.777697e-01
8.439744e-01
8.126628e-01
7.814100e-01
7.501487e-01
7.188852e-01
6.876216e-01
6.563583e-01
6.250956e-01
5.938338e-01
5.625730e-01
5.313025e-01
5.001453e-01
1.000000e+00
9.687461e-01
9.375130e-01
9.062864e-01
8.757503e-01
8.437994e-01
8.125356e-01
7.812864e-01
7.500346e-01
7.187819e-01
6.875290e-01
6.562759e-01
6.250228e-01
5.937698e-01
5.625168e-01
5.312533e-01
5.001022e-01
1.000000e+00
9.686982e-01
9.374271e-01
9.061232e-01
8.734719e-01
8.436136e-01
8.123914e-01
7.811473e-01
7.499060e-01
7.186654e-01
6.874245e-01
6.561829e-01
6.249405e-01
5.936973e-01
5.624530e-01
5.311974e-01
5.000532e-01
1.000000e+00
9.686614e-01
9.373618e-01
9.059881e-01
8.717024e-01
8.434783e-01
8.122790e-01
7.810397e-01
7.498065e-01
7.185752e-01
6.873435e-01
6.561108e-01
6.248766e-01
5.936409e-01
5.624034e-01
5.311538e-01
5.000149e-01
1.000000e+00
9.686475e-01
9.373381e-01
9.059364e-01
8.710388e-01
8.434297e-01
8.122365e-01
7.809990e-01
7.497688e-01
7.185410e-01
6.873127e-01
6.560833e-01
6.248522e-01
5.936193e-01
5.623844e-01
5.311370e-01
5.000002e-01
1.000000e+00
9.687219e-01
9.374722e-01
9.062280e-01
8.749781e-01
8.437331e-01
8.124826e-01
7.812338e-01
7.499841e-01
7.187345e-01
6.874848e-01
6.562352e-01
6.249854e-01
5.937357e-01
5.624858e-01
5.312252e-01
5.000768e-01
1.000000e+00
9.687264e-01
9.374781e-01
9.062299e-01
8.749797e-01
8.437331e-01
8.124829e-01
7.812339e-01
7.499842e-01
7.187346e-01
6.874849e-01
6.562353e-01
6.249855e-01
5.937358e-01
5.624859e-01
5.312253e-01
5.000769e-01
1.000000e+00
9.687301e-01
9.374834e-01
9.062326e-01
8.749820e-01
8.437329e-01
8.124832e-01
7.812338e-01
7.499840e-01
7.187344e-01
6.874848e-01
6.562351e-01
6.249854e-01
5.937357e-01
5.624858e-01
5.312252e-01
5.000768e-01
1.000000e+00
9.687305e-01
9.374839e-01
9.062332e-01
8.749824e-01
8.437329e-01
8.124832e-01
7.812337e-01
7.499839e-01
7.187343e-01
6.874847e-01
6.562350e-01
6.249853e-01
5.937356e-01
5.624858e-01
5.312252e-01
5.000768e-01
1.000000e+00
9.687272e-01
9.374791e-01
9.062294e-01
8.749799e-01
8.437328e-01
8.124829e-01
7.812337e-01
7.499839e-01
7.187343e-01
6.874846e-01
6.562349e-01
6.249852e-01
5.937355e-01
5.624857e-01
5.312251e-01
5.000767e-01
1.000000e+00
9.687225e-01
9.374712e-01
9.062234e-01
8.749777e-01
8.437327e-01
8.124825e-01
7.812337e-01
7.499839e-01
7.187343e-01
6.874846e-01
6.562348e-01
6.249851e-01
5.937355e-01
5.624857e-01
5.312251e-01
5.000767e-01
1.000000e+00
9.687239e-01
9.374742e-01
9.062258e-01
8.749780e-01
8.437328e-01
8.124826e-01
7.812337e-01
7.499839e-01
7.187343e-01
6.874846e-01
6.562348e-01
6.249851e-01
5.937355e-01
5.624857e-01
5.312251e-01
5.000767e-01
1.000000e+00
9.687280e-01
9.374815e-01
9.062319e-01
8.749810e-01
8.437330e-01
8.124831e-01
7.812338e-01
7.499840e-01
7.187343e-01
6.874846e-01
6.562349e-01
6.249851e-01
5.937354e-01
5.624856e-01
5.312250e-01
5.000766e-01
1.000000e+00
9.687304e-01
9.374838e-01
9.062334e-01
8.749828e-01
8.437330e-01
8.124834e-01
7.812339e-01
7.499841e-01
7.187344e-01
6.874847e-01
6.562350e-01
6.249852e-01
5.937355e-01
5.624856e-01
5.312250e-01
5.000766e-01
1.000000e+00
9.687285e-01
9.374823e-01
9.062323e-01
8.749813e-01
8.437331e-01
8.124833e-01
7.812340e-01
7.499842e-01
7.187345e-01
6.874848e-01
6.562351e-01
6.249853e-01
5.937355e-01
5.624856e-01
5.312250e-01
5.000766e-01
1.000000e+00
9.687247e-01
9.374758e-01
9.062269e-01
8.749782e-01
8.437330e-01
8.124830e-01
7.812340e-01
7.499843e-01
7.187346e-01
6.874849e-01
6.562352e-01
6.249854e-01
5.937356e-01
5.624856e-01
5.312250e-01
5.000766e-01
1.000000e+00
9.687226e-01
9.374715e-01
9.062236e-01
8.749771e-01
8.437329e-01
8.124829e-01
7.812341e-01
7.499844e-01
7.187346e-01
6.874849e-01
6.562352e-01
6.249854e-01
5.937356e-01
5.624856e-01
5.312250e-01
5.000765e-01
1.000000e+00
9.687272e-01
9.374791e-01
9.062292e-01
8.749793e-01
8.437330e-01
8.124833e-01
7.812341e-01
7.499844e-01
7.187346e-01
6.874849e-01
6.562351e-01
6.249853e-01
5.937355e-01
5.624855e-01
5.312249e-01
5.000764e-01
1.000000e+00
9.687300e-01
9.374836e-01
9.062333e-01
8.749825e-01
8.437330e-01
8.124836e-01
7.812340e-01
7.499843e-01
7.187345e-01
6.874847e-01
6.562350e-01
6.249852e-01
5.937354e-01
5.624854e-01
5.312248e-01
5.000764e-01
1.000000e+00
9.687290e-01
9.374825e-01
9.062328e-01
8.749828e-01
8.437332e-01
8.124835e-01
7.812340e-01
7.499842e-01
7.187344e-01
6.874846e-01
6.562348e-01
6.249850e-01
5.937353e-01
5.624853e-01
5.312247e-01
5.000763e-01
1.000000e+00
9.687278e-01
9.374824e-01
9.062314e-01
8.749803e-01
8.437334e-01
8.124830e-01
7.812340e-01
7.499842e-01
7.187343e-01
6.874846e-01
6.562347e-01
6.249850e-01
5.937352e-01
5.624853e-01
5.312247e-01
5.000762e-01
1.000000e+00
9.687264e-01
9.374819e-01
9.062303e-01
8.749783e-01
8.437332e-01
8.124825e-01
7.812337e-01
7.499839e-01
7.187341e-01
6.874843e-01
6.562345e-01
6.249847e-01
5.937349e-01
5.624850e-01
5.312244e-01
5.000760e-01
1.000000e+00
9.686411e-01
9.373387e-01
9.059394e-01
8.710335e-01
8.434226e-01
8.122266e-01
7.809866e-01
7.497543e-01
7.185250e-01
6.872957e-01
6.560659e-01
6.248347e-01
5.936021e-01
5.623677e-01
5.311212e-01
4.999851e-01
1.000000e+00
9.686567e-01
9.373593e-01
9.059868e-01
8.716979e-01
8.434724e-01
8.122703e-01
7.810285e-01
7.497933e-01
7.185606e-01
6.873279e-01
6.560948e-01
6.248605e-01
5.936250e-01
5.623880e-01
5.311391e-01
5.000010e-01
1.000000e+00
9.686987e-01
9.374272e-01
9.061216e-01
8.734691e-01
8.436097e-01
8.123855e-01
7.811395e-01
7.498965e-01
7.186548e-01
6.874131e-01
6.561711e-01
6.249286e-01
5.936854e-01
5.624416e-01
5.311863e-01
5.000427e-01
1.000000e+00
9.687454e-01
9.375126e-01
9.062864e-01
8.757494e-01
8.437975e-01
8.125328e-01
7.812826e-01
7.500297e-01
7.187764e-01
6.875229e-01
6.562695e-01
6.250163e-01
5.937633e-01
5.625106e-01
5.312472e-01
5.000964e-01
1.000000e+00
9.687825e-01
9.375879e-01
9.064230e-01
8.777698e-01
8.439743e-01
8.126625e-01
7.814095e-01
7.501478e-01
7.188842e-01
6.876204e-01
6.563569e-01
6.250942e-01
5.938324e-01
5.625718e-01
5.313012e-01
5.001440e-01
1.000000e+00
9.688051e-01
9.376366e-01
9.065035e-01
8.788537e-01
8.440728e-01
8.127317e-01
7.814776e-01
7.502112e-01
7.189421e-01
6.876728e-01
6.564039e-01
6.251360e-01
5.938696e-01
5.626047e-01
5.313302e-01
5.001696e-01
1.000000e+00
9.687995e-01
9.376233e-01
9.064846e-01
8.786275e-01
8.440525e-01
8.127176e-01
7.814639e-01
7.501985e-01
7.189306e-01
6.876624e-01
6.563947e-01
6.251279e-01
5.938624e-01
5.625983e-01
5.313246e-01
5.001647e-01
1.000000e+00
9.687756e-01
9.375675e-01
9.063834e-01
8.771714e-01
8.439217e-01
8.126251e-01
7.813730e-01
7.501141e-01
7.188536e-01
6.875930e-01
6.563325e-01
6.250726e-01
5.938134e-01
5.625549e-01
5.312864e-01
5.001310e-01
1.000000e+00
9.687286e-01
9.374824e-01
9.062328e-01
8.749804e-01
8.437338e-01
8.124847e-01
7.812359e-01
7.499867e-01
7.187374e-01
6.874880e-01
6.562385e-01
6.249888e-01
5.937391e-01
5.624892e-01
5.312285e-01
5.000800e-01
1.000000e+00
9.686850e-01
9.374027e-01
9.060710e-01
8.727868e-01
8.435571e-01
8.123430e-01
7.810988e-01
7.498592e-01
7.186210e-01
6.873828e-01
6.561442e-01
6.249048e-01
5.936645e-01
5.624231e-01
5.311702e-01
5.000285e-01
1.000000e+00
9.686476e-01
9.373448e-01
9.059593e-01
8.713361e-01
8.434461e-01
8.122483e-01
7.810076e-01
7.497743e-01
7.185434e-01
6.873124e-01
6.560810e-01
6.248483e-01
5.936142e-01
5.623784e-01
5.311307e-01
4.999935e-01
1.000000e+00
9.686415e-01
9.373383e-01
9.059454e-01
8.711140e-01
8.434290e-01
8.122330e-01
7.809926e-01
7.497600e-01
7.185299e-01
6.872999e-01
6.560693e-01
6.248376e-01
5.936044e-01
5.623694e-01
5.311225e-01
4.999861e-01
1.000000e+00
9.686683e-01
9.373777e-01
9.060247e-01
8.721899e-01
8.435097e-01
8.123022e-01
7.810583e-01
7.498203e-01
7.185843e-01
6.873484e-01
6.561122e-01
6.248753e-01
5.936374e-01
5.623982e-01
5.311475e-01
5.000078e-01
1.000000e+00
9.687139e-01
9.374553e-01
9.061767e-01
8.742098e-01
8.436680e-01
8.124310e-01
7.811817e-01
7.499341e-01
7.186872e-01
6.874407e-01
6.561942e-01
6.249477e-01
5.937011e-01
5.624541e-01
5.311964e-01
5.000506e-01
1.000000e+00
9.687617e-01
9.375410e-01
9.063360e-01
8.764890e-01
8.438576e-01
8.125747e-01
7.813207e-01
7.500625e-01
7.188035e-01
6.875449e-01
6.562870e-01
6.250297e-01
5.937734e-01
5.625177e-01
5.312522e-01
5.000995e-01
1.000000e+00
9.687966e-01
9.376059e-01
9.064498e-01
8.782584e-01
8.440129e-01
8.126849e-01
7.814282e-01
7.501619e-01
7.188936e-01
6.876258e-01
6.563589e-01
6.250935e-01
5.938296e-01
5.625673e-01
5.312956e-01
5.001376e-01
1.000000e+00
9.688110e-01
9.376315e-01
9.064907e-01
8.789215e-01
8.440723e-01
8.127257e-01
7.814684e-01
7.501990e-01
7.189274e-01
6.876561e-01
6.563859e-01
6.251174e-01
5.938507e-01
5.625858e-01
5.313118e-01
5.001519e-01
1.000000e+00
9.685767e-01
9.372198e-01
9.056552e-01
8.676904e-01
8.431881e-01
8.120074e-01
7.807772e-01
7.495597e-01
7.183476e-01
6.871356e-01
6.559225e-01
6.247071e-01
5.934890e-01
5.622677e-01
5.310330e-01
4.999075e-01
1.000000e+00
9.686011e-01
9.372618e-01
9.057621e-01
8.689186e-01
8.432704e-01
8.120884e-01
7.808545e-01
7.496316e-01
7.184133e-01
6.871949e-01
6.559758e-01
6.247546e-01
5.935312e-01
5.623051e-01
5.310661e-01
4.999367e-01
1.000000e+00
9.686652e-01
9.373725e-01
9.060190e-01
8.721862e-01
8.435085e-01
8.123020e-01
7.810595e-01
7.498224e-01
7.185875e-01
6.873524e-01
6.561168e-01
6.248804e-01
5.936429e-01
5.624041e-01
5.311534e-01
5.000138e-01
1.000000e+00
9.687534e-01
9.375301e-01
9.063250e-01
8.763954e-01
8.438530e-01
8.125744e-01
7.813239e-01
7.500684e-01
7.188120e-01
6.875553e-01
6.562987e-01
6.250426e-01
5.937869e-01
5.625316e-01
5.312659e-01
5.001131e-01
1.000000e+00
9.688385e-01
9.376865e-01
9.065750e-01
8.801366e-01
8.441928e-01
8.128135e-01
7.815586e-01
7.502868e-01
7.190114e-01
6.877356e-01
6.564604e-01
6.251866e-01
5.939147e-01
5.626448e-01
5.313657e-01
5.002011e-01
1.000000e+00
9.688788e-01
9.377646e-01
9.066901e-01
8.821338e-01
8.443892e-01
8.129408e-01
7.816844e-01
7.504040e-01
7.191184e-01
6.878324e-01
6.565472e-01
6.252640e-01
5.939834e-01
5.627056e-01
5.314194e-01
5.002484e-01
1.000000e+00
9.688667e-01
9.377453e-01
9.066671e-01
8.817178e-01
8.443481e-01
8.129149e-01
7.816590e-01
7.503805e-01
7.190970e-01
6.878133e-01
6.565302e-01
6.252489e-01
5.939700e-01
5.626938e-01
5.314091e-01
5.002393e-01
1.000000e+00
9.688143e-01
9.376440e-01
9.065078e-01
8.790318e-01
8.440899e-01
8.127446e-01
7.814911e-01
7.502245e-01
7.189549e-01
6.876849e-01
6.564153e-01
6.251467e-01
5.938795e-01
5.626137e-01
5.313385e-01
5.001772e-01
1.000000e+00
9.687226e-01
9.374727e-01
9.062205e-01
8.749721e-01
8.437340e-01
8.124853e-01
7.812377e-01
7.499889e-01
7.187400e-01
6.874909e-01
6.562415e-01
6.249920e-01
5.937423e-01
5.624923e-01
5.312315e-01
5.000828e-01
1.000000e+00
9.686418e-01
9.373327e-01
9.059244e-01
8.709319e-01
8.434156e-01
8.122231e-01
7.809843e-01
7.497533e-01
7.185250e-01
6.872965e-01
6.560673e-01
6.248367e-01
5.936044e-01
5.623703e-01
5.311238e-01
4.999878e-01
1.000000e+00
9.685865e-01
9.372376e-01
9.057074e-01
8.682454e-01
8.432273e-01
8.120474e-01
7.808159e-01
7.495964e-01
7.183815e-01
6.871665e-01
6.559504e-01
6.247323e-01
5.935115e-01
5.622877e-01
5.310508e-01
4.999232e-01
1.000000e+00
9.685814e-01
9.372268e-01
9.056737e-01
8.678323e-01
8.431996e-01
8.120191e-01
7.807882e-01
7.495700e-01
7.183566e-01
6.871433e-01
6.559290e-01
6.247126e-01
5.934934e-01
5.622711e-01
5.310357e-01
4.999095e-01
1.000000e+00
9.686215e-01
9.372948e-01
9.058384e-01
8.698246e-01
8.433348e-01
8.121474e-01
7.809094e-01
7.496814e-01
7.184571e-01
6.872329e-01
6.560083e-01
6.247823e-01
5.935544e-01
5.623243e-01
5.310820e-01
4.999497e-01
1.000000e+00
9.686936e-01
9.374224e-01
9.061215e-01
8.735511e-01
8.436137e-01
8.123859e-01
7.811374e-01
7.498918e-01
7.186473e-01
6.874035e-01
6.561599e-01
6.249161e-01
5.936722e-01
5.624277e-01
5.311725e-01
5.000289e-01
1.000000e+00
9.687852e-01
9.375893e-01
9.064224e-01
8.777644e-01
8.439667e-01
8.126514e-01
7.813942e-01
7.501290e-01
7.188622e-01
6.875962e-01
6.563313e-01
6.250678e-01
5.938058e-01
5.625452e-01
5.312755e-01
5.001191e-01
1.000000e+00
9.688547e-01
9.377140e-01
9.066226e-01
8.810374e-01
8.442688e-01
8.128546e-01
7.815930e-01
7.503127e-01
7.190288e-01
6.877456e-01
6.564643e-01
6.251856e-01
5.939098e-01
5.626368e-01
5.313558e-01
5.001896e-01
1.000000e+00
9.688777e-01
9.377553e-01
9.066839e-01
8.822664e-01
8.443877e-01
8.129298e-01
7.816675e-01
7.503817e-01
7.190914e-01
6.878019e-01
6.565144e-01
6.252300e-01
5.939489e-01
5.626713e-01
5.313860e-01
5.002162e-01
1.000000e+00
9.685277e-01
9.371262e-01
9.054489e-01
8.654570e-01
8.430455e-01
8.118598e-01
7.806375e-01
7.494298e-01
7.182292e-01
6.870287e-01
6.558269e-01
6.246219e-01
5.934135e-01
5.622009e-01
5.309742e-01
4.998556e-01
1.000000e+00
9.685685e-01
9.372016e-01
9.056039e-01
8.670769e-01
8.431441e-01
8.119660e-01
7.807383e-01
7.495236e-01
7.183149e-01
6.871062e-01
6.558963e-01
6.246839e-01
5.934686e-01
5.622498e-01
5.310173e-01
4.998938e-01
1.000000e+00
9.686372e-01
9.373283e-01
9.059364e-01
8.713358e-01
8.434428e-01
8.122458e-01
7.810062e-01
7.497728e-01
7.185425e-01
6.873119e-01
6.560806e-01
6.248483e-01
5.936145e-01
5.623791e-01
5.311315e-01
4.999945e-01
1.000000e+00
9.687568e-01
9.375374e-01
9.063436e-01
8.768246e-01
8.438900e-01
8.126018e-01
7.813515e-01
7.500943e-01
7.188359e-01
6.875771e-01
6.563183e-01
6.250601e-01
5.938026e-01
5.625457e-01
5.312785e-01
5.001242e-01
1.000000e+00
9.688781e-01
9.377597e-01
9.066799e-01
8.817282e-01
8.443452e-01
8.129138e-01
7.816581e-01
7.503797e-01
7.190964e-01
6.878126e-01
6.565295e-01
6.252483e-01
5.939696e-01
5.626936e-01
5.314089e-01
5.002392e-01
1.000000e+00
9.689203e-01
9.378376e-01
9.067931e-01
8.843286e-01
8.446138e-01
8.130797e-01
7.818230e-01
7.505328e-01
7.192362e-01
6.879391e-01
6.566430e-01
6.253495e-01
5.940594e-01
5.627730e-01
5.314790e-01
5.003010e-01
1.000000e+00
9.689146e-01
9.378278e-01
9.067809e-01
8.837852e-01
8.445571e-01
8.130460e-01
7.817897e-01
7.505021e-01
7.192083e-01
6.879141e-01
6.566207e-01
6.253299e-01
5.940420e-01
5.627577e-01
5.314656e-01
5.002892e-01
1.000000e+00
9.688364e-01
9.376967e-01
9.065969e-01
8.802813e-01
8.442082e-01
8.128237e-01
7.815699e-01
7.502983e-01
7.190225e-01
6.877464e-01
6.564706e-01
6.251963e-01
5.939237e-01
5.626530e-01
5.313734e-01
5.002080e-01
1.000000e+00
9.687174e-01
9.374617e-01
9.061982e-01
8.749594e-01
8.437339e-01
8.124854e-01
7.812389e-01
7.499905e-01
7.187418e-01
6.874929e-01
6.562436e-01
6.249941e-01
5.937444e-01
5.624944e-01
5.312336e-01
5.000848e-01
1.000000e+00
9.686070e-01
9.372812e-01
9.058174e-01
8.697078e-01
8.433260e-01
8.121423e-01
7.809079e-01
7.496827e-01
7.184609e-01
6.872389e-01
6.560160e-01
6.247912e-01
5.935643e-01
5.623350e-01
5.310928e-01
4.999606e-01
1.000000e+00
9.685482e-01
9.371684e-01
9.055288e-01
8.661882e-01
8.430921e-01
8.119125e-01
7.806880e-01
7.494778e-01
7.182735e-01
6.870691e-01
6.558633e-01
6.246549e-01
5.934430e-01
5.622272e-01
5.309974e-01
4.998762e-01
1.000000e+00
9.685336e-01
9.371354e-01
9.054684e-01
8.656437e-01
8.430596e-01
8.118754e-01
7.806519e-01
7.494433e-01
7.182410e-01
6.870388e-01
6.558353e-01
6.246291e-01
5.934193e-01
5.622055e-01
5.309777e-01
4.998583e-01
1.000000e+00
9.685935e-01
9.372447e-01
9.057074e-01
8.682584e-01
8.432243e-01
8.120433e-01
7.808101e-01
7.495888e-01
7.183722e-01
6.871559e-01
6.559390e-01
6.247202e-01
5.934990e-01
5.622750e-01
5.310382e-01
4.999109e-01
1.000000e+00
9.686751e-01
9.373921e-01
9.060722e-01
8.731102e-01
8.435775e-01
8.123556e-01
7.811079e-01
7.498635e-01
7.186207e-01
6.873787e-01
6.561370e-01
6.248951e-01
5.936529e-01
5.624101e-01
5.311565e-01
5.000143e-01
1.000000e+00
9.687967e-01
9.376187e-01
9.064819e-01
8.786185e-01
8.440411e-01
8.127024e-01
7.814434e-01
7.501735e-01
7.189015e-01
6.876305e-01
6.563609e-01
6.250932e-01
5.938275e-01
5.625637e-01
5.312911e-01
5.001323e-01
1.000000e+00
9.689003e-01
9.377965e-01
9.067404e-01
8.828960e-01
8.444493e-01
8.129673e-01
7.817032e-01