<?xml version="1.0"?>
<VTKFile type="StructuredGrid" version="0.1">
  <StructuredGrid WholeExtent="16 32 0 16 0 16">
    <Piece Extent="16 32 0 16 0 16">
      <PointData Scalars="temperature" Vectors="velocity">
        <DataArray type="Float32" Name="temperature" format="ascii">
5.000817e-01
4.688010e-01
4.375457e-01
4.062891e-01
3.750331e-01
3.437780e-01
3.125234e-01
2.812692e-01
2.500158e-01
2.187624e-01
1.875096e-01
1.562570e-01
1.250046e-01
9.375252e-02
6.250047e-02
3.124806e-02
0.000000e+00
5.000707e-01
4.687915e-01
4.375375e-01
4.062820e-01
3.750270e-01
3.437727e-01
3.125189e-01
2.812655e-01
2.500126e-01
2.187598e-01
1.875074e-01
1.562552e-01
1.250033e-01
9.375155e-02
6.249985e-02
3.124777e-02
0.000000e+00
5.000414e-01
4.687661e-01
4.375156e-01
4.062630e-01
3.750107e-01
3.437588e-01
3.125070e-01
2.812555e-01
2.500041e-01
2.187528e-01
1.875016e-01
1.562506e-01
1.249997e-01
9.374889e-02
6.249814e-02
3.124692e-02
0.000000e+00
5.000037e-01
4.687334e-01
4.374873e-01
4.062386e-01
3.749898e-01
3.437408e-01
3.124917e-01
2.812426e-01
2.499931e-01
2.187437e-01
1.874941e-01
1.562445e-01
1.249951e-01
9.374548e-02
6.249594e-02
3.124583e-02
0.000000e+00
4.999701e-01
4.687043e-01
4.374621e-01
4.062169e-01
3.749712e-01
3.437249e-01
3.124781e-01
2.812311e-01
2.499834e-01
2.187357e-01
1.874874e-01
1.562392e-01
1.249910e-01
9.374245e-02
6.249399e-02
3.124487e-02
0.000000e+00
4.999521e-01
4.686887e-01
4.374486e-01
4.062052e-01
3.749611e-01
3.437163e-01
3.124708e-01
2.812249e-01
2.499781e-01
2.187314e-01
1.874838e-01
1.562363e-01
1.249887e-01
9.374081e-02
6.249294e-02
3.124435e-02
0.000000e+00
4.999555e-01
4.686916e-01
4.374512e-01
4.062074e-01
3.749630e-01
3.437179e-01
3.124722e-01
2.812261e-01
2.499791e-01
2.187322e-01
1.874844e-01
1.562368e-01
1.249891e-01
9.374112e-02
6.249314e-02
3.124445e-02
0.000000e+00
4.999792e-01
4.687122e-01
4.374689e-01
4.062227e-01
3.749761e-01
3.437291e-01
3.124818e-01
2.812341e-01
2.499860e-01
2.187379e-01
1.874892e-01
1.562406e-01
1.249921e-01
9.374327e-02
6.249452e-02
3.124513e-02
0.000000e+00
5.000151e-01
4.687433e-01
4.374958e-01
4.062460e-01
3.749961e-01
3.437462e-01
3.124963e-01
2.812464e-01
2.499964e-01
2.187465e-01
1.874964e-01
1.562464e-01
1.249965e-01
9.374653e-02
6.249662e-02
3.124617e-02
0.000000e+00
5.000513e-01
4.687746e-01
4.375229e-01
4.062694e-01
3.750162e-01
3.437635e-01
3.125111e-01
2.812589e-01
2.500070e-01
2.187552e-01
1.875036e-01
1.562522e-01
1.250010e-01
9.374983e-02
6.249875e-02
3.124722e-02
0.000000e+00
5.000757e-01
4.687958e-01
4.375413e-01
4.062853e-01
3.750299e-01
3.437752e-01
3.125211e-01
2.812673e-01
2.500143e-01
2.187611e-01
1.875086e-01
1.562562e-01
1.250040e-01
9.375210e-02
6.250022e-02
3.124794e-02
0.000000e+00
5.000806e-01
4.688001e-01
4.375451e-01
4.062886e-01
3.750329e-01
3.437778e-01
3.125233e-01
2.812692e-01
2.500159e-01
2.187625e-01
1.875098e-01
1.562571e-01
1.250047e-01
9.375262e-02
6.250056e-02
3.124810e-02
0.000000e+00
5.000648e-01
4.687866e-01
4.375335e-01
4.062787e-01
3.750244e-01
3.437706e-01
3.125173e-01
2.812642e-01
2.500116e-01
2.187590e-01
1.875068e-01
1.562548e-01
1.250030e-01
9.375130e-02
6.249971e-02
3.124768e-02
0.000000e+00
5.000341e-01
4.687602e-01
4.375109e-01
4.062593e-01
3.750078e-01
3.437565e-01
3.125052e-01
2.812540e-01
2.500030e-01
2.187519e-01
1.875010e-01
1.562501e-01
1.249994e-01
9.374865e-02
6.249800e-02
3.124684e-02
0.000000e+00
4.999994e-01
4.687303e-01
4.374851e-01
4.062371e-01
3.749889e-01
3.437403e-01
3.124915e-01
2.812425e-01
2.499932e-01
2.187439e-01
1.874943e-01
1.562447e-01
1.249952e-01
9.374562e-02
6.249604e-02
3.124587e-02
0.000000e+00
4.999724e-01
4.687070e-01
4.374651e-01
4.062199e-01
3.749741e-01
3.437277e-01
3.124808e-01
2.812335e-01
2.499855e-01
2.187376e-01
1.874890e-01
1.562405e-01
1.249920e-01
9.374325e-02
6.249452e-02
3.124512e-02
0.000000e+00
4.999621e-01
4.686982e-01
4.374574e-01
4.062133e-01
3.749684e-01
3.437228e-01
3.124766e-01
2.812300e-01
2.499826e-01
2.187352e-01
1.874870e-01
1.562389e-01
1.249908e-01
9.374229e-02
6.249388e-02
3.124477e-02
0.000000e+00
5.000769e-01
4.687968e-01
4.375421e-01
4.062859e-01
3.750304e-01
3.437757e-01
3.125214e-01
2.812676e-01
2.500144e-01
2.187613e-01
1.875087e-01
1.562562e-01
1.250040e-01
9.375209e-02
6.250019e-02
3.124792e-02
0.000000e+00
5.000667e-01
4.687880e-01
4.375345e-01
4.062794e-01
3.750248e-01
3.437708e-01
3.125173e-01
2.812641e-01
2.500115e-01
2.187588e-01
1.875067e-01
1.562546e-01
1.250028e-01
9.375120e-02
6.249963e-02
3.124766e-02
0.000000e+00
5.000396e-01
4.687645e-01
4.375142e-01
4.062618e-01
3.750097e-01
3.437579e-01
3.125063e-01
2.812549e-01
2.500036e-01
2.187524e-01
1.875013e-01
1.562503e-01
1.249995e-01
9.374875e-02
6.249806e-02
3.124687e-02
0.000000e+00
5.000047e-01
4.687343e-01
4.374881e-01
4.062393e-01
3.749904e-01
3.437413e-01
3.124922e-01
2.812429e-01
2.499934e-01
2.187440e-01
1.874943e-01
1.562447e-01
1.249952e-01
9.374559e-02
6.249602e-02
3.124587e-02
0.000000e+00
4.999737e-01
4.687075e-01
4.374649e-01
4.062193e-01
3.749732e-01
3.437266e-01
3.124796e-01
2.812324e-01
2.499844e-01
2.187366e-01
1.874881e-01
1.562398e-01
1.249914e-01
9.374279e-02
6.249421e-02
3.124498e-02
0.000000e+00
4.999570e-01
4.686930e-01
4.374524e-01
4.062085e-01
3.749639e-01
3.437187e-01
3.124728e-01
2.812266e-01
2.499796e-01
2.187326e-01
1.874848e-01
1.562371e-01
1.249894e-01
9.374127e-02
6.249323e-02
3.124449e-02
0.000000e+00
4.999602e-01
4.686958e-01
4.374548e-01
4.062105e-01
3.749657e-01
3.437202e-01
3.124741e-01
2.812277e-01
2.499805e-01
2.187333e-01
1.874854e-01
1.562376e-01
1.249897e-01
9.374155e-02
6.249341e-02
3.124458e-02
0.000000e+00
4.999821e-01
4.687147e-01
4.374711e-01
4.062246e-01
3.749778e-01
3.437305e-01
3.124830e-01
2.812352e-01
2.499868e-01
2.187386e-01
1.874898e-01
1.562411e-01
1.249924e-01
9.374353e-02
6.249469e-02
3.124521e-02
0.000000e+00
5.000153e-01
4.687434e-01
4.374959e-01
4.062461e-01
3.749962e-01
3.437463e-01
3.124964e-01
2.812465e-01
2.499965e-01
2.187465e-01
1.874964e-01
1.562464e-01
1.249965e-01
9.374655e-02
6.249664e-02
3.124617e-02
0.000000e+00
5.000487e-01
4.687723e-01
4.375209e-01
4.062677e-01
3.750148e-01
3.437622e-01
3.125100e-01
2.812580e-01
2.500063e-01
2.187546e-01
1.875031e-01
1.562518e-01
1.250006e-01
9.374960e-02
6.249860e-02
3.124715e-02
0.000000e+00
5.000712e-01
4.687919e-01
4.375379e-01
4.062823e-01
3.750274e-01
3.437731e-01
3.125193e-01
2.812658e-01
2.500130e-01
2.187601e-01
1.875077e-01
1.562555e-01
1.250035e-01
9.375169e-02
6.249996e-02
3.124781e-02
0.000000e+00
5.000757e-01
4.687959e-01
4.375414e-01
4.062855e-01
3.750301e-01
3.437755e-01
3.125214e-01
2.812676e-01
2.500145e-01
2.187613e-01
1.875088e-01
1.562563e-01
1.250041e-01
9.375218e-02
6.250027e-02
3.124796e-02
0.000000e+00
5.000611e-01
4.687834e-01
4.375307e-01
4.062763e-01
3.750223e-01
3.437688e-01
3.125157e-01
2.812629e-01
2.500105e-01
2.187581e-01
1.875061e-01
1.562541e-01
1.250025e-01
9.375095e-02
6.249948e-02
3.124757e-02
0.000000e+00
5.000328e-01
4.687591e-01
4.375098e-01
4.062584e-01
3.750070e-01
3.437558e-01
3.125046e-01
2.812535e-01
2.500026e-01
2.187515e-01
1.875006e-01
1.562498e-01
1.249992e-01
9.374850e-02
6.249789e-02
3.124679e-02
0.000000e+00
5.000007e-01
4.687314e-01
4.374860e-01
4.062379e-01
3.749895e-01
3.437408e-01
3.124919e-01
2.812429e-01
2.499935e-01
2.187441e-01
1.874944e-01
1.562449e-01
1.249954e-01
9.374569e-02
6.249609e-02
3.124589e-02
0.000000e+00
4.999758e-01
4.687099e-01
4.374675e-01
4.062220e-01
3.749759e-01
3.437291e-01
3.124820e-01
2.812345e-01
2.499864e-01
2.187383e-01
1.874896e-01
1.562410e-01
1.249924e-01
9.374351e-02
6.249468e-02
3.124520e-02
0.000000e+00
4.999663e-01
4.687017e-01
4.374604e-01
4.062159e-01
3.749706e-01
3.437247e-01
3.124782e-01
2.812313e-01
2.499837e-01
2.187361e-01
1.874877e-01
1.562395e-01
1.249912e-01
9.374262e-02
6.249410e-02
3.124488e-02
0.000000e+00
5.000630e-01
4.687848e-01
4.375317e-01
4.062770e-01
3.750228e-01
3.437691e-01
3.125159e-01
2.812629e-01
2.500104e-01
2.187580e-01
1.875059e-01
1.562540e-01
1.250024e-01
9.375086e-02
6.249940e-02
3.124752e-02
0.000000e+00
5.000552e-01
4.687780e-01
4.375259e-01
4.062719e-01
3.750184e-01
3.437654e-01
3.125127e-01
2.812603e-01
2.500082e-01
2.187561e-01
1.875044e-01
1.562528e-01
1.250014e-01
9.375018e-02
6.249899e-02
3.124733e-02
0.000000e+00
5.000344e-01
4.687600e-01
4.375103e-01
4.062585e-01
3.750069e-01
3.437555e-01
3.125043e-01
2.812531e-01
2.500021e-01
2.187512e-01
1.875003e-01
1.562495e-01
1.249989e-01
9.374831e-02
6.249778e-02
3.124673e-02
0.000000e+00
5.000077e-01
4.687369e-01
4.374903e-01
4.062413e-01
3.749921e-01
3.437428e-01
3.124934e-01
2.812440e-01
2.499944e-01
2.187448e-01
1.874949e-01
1.562452e-01
1.249956e-01
9.374590e-02
6.249623e-02
3.124596e-02
0.000000e+00
4.999840e-01
4.687163e-01
4.374726e-01
4.062260e-01
3.749790e-01
3.437316e-01
3.124838e-01
2.812359e-01
2.499875e-01
2.187391e-01
1.874902e-01
1.562415e-01
1.249927e-01
9.374374e-02
6.249483e-02
3.124527e-02
0.000000e+00
4.999712e-01
4.687053e-01
4.374631e-01
4.062177e-01
3.749719e-01
3.437255e-01
3.124786e-01
2.812315e-01
2.499837e-01
2.187360e-01
1.874876e-01
1.562394e-01
1.249911e-01
9.374257e-02
6.249407e-02
3.124490e-02
0.000000e+00
4.999736e-01
4.687074e-01
4.374649e-01
4.062193e-01
3.749732e-01
3.437266e-01
3.124796e-01
2.812323e-01
2.499844e-01
2.187366e-01
1.874881e-01
1.562398e-01
1.249914e-01
9.374278e-02
6.249420e-02
3.124496e-02
0.000000e+00
4.999903e-01
4.687219e-01
4.374774e-01
4.062301e-01
3.749825e-01
3.437346e-01
3.124864e-01
2.812380e-01
2.499893e-01
2.187406e-01
1.874914e-01
1.562424e-01
1.249935e-01
9.374430e-02
6.249518e-02
3.124545e-02
0.000000e+00
5.000157e-01
4.687438e-01
4.374963e-01
4.062464e-01
3.749965e-01
3.437466e-01
3.124967e-01
2.812467e-01
2.499967e-01
2.187467e-01
1.874965e-01
1.562465e-01
1.249966e-01
9.374661e-02
6.249667e-02
3.124619e-02
0.000000e+00
5.000412e-01
4.687659e-01
4.375154e-01
4.062629e-01
3.750107e-01
3.437587e-01
3.125070e-01
2.812555e-01
2.500042e-01
2.187528e-01
1.875017e-01
1.562506e-01
1.249998e-01
9.374895e-02
6.249818e-02
3.124694e-02
0.000000e+00
5.000585e-01
4.687809e-01
4.375283e-01
4.062741e-01
3.750203e-01
3.437670e-01
3.125141e-01
2.812615e-01
2.500093e-01
2.187570e-01
1.875052e-01
1.562534e-01
1.250019e-01
9.375055e-02
6.249922e-02
3.124745e-02
0.000000e+00
5.000619e-01
4.687839e-01
4.375310e-01
4.062765e-01
3.750224e-01
3.437688e-01
3.125157e-01
2.812628e-01
2.500104e-01
2.187580e-01
1.875060e-01
1.562541e-01
1.250024e-01
9.375091e-02
6.249945e-02
3.124757e-02
0.000000e+00
5.000508e-01
4.687744e-01
4.375229e-01
4.062695e-01
3.750164e-01
3.437638e-01
3.125114e-01
2.812592e-01
2.500074e-01
2.187555e-01
1.875039e-01
1.562524e-01
1.250011e-01
9.374996e-02
6.249884e-02
3.124726e-02
0.000000e+00
5.000291e-01
4.687558e-01
4.375069e-01
4.062558e-01
3.750047e-01
3.437538e-01
3.125029e-01
2.812521e-01
2.500013e-01
2.187505e-01
1.874997e-01
1.562491e-01
1.249986e-01
9.374808e-02
6.249762e-02
3.124666e-02
0.000000e+00
5.000045e-01
4.687346e-01
4.374887e-01
4.062401e-01
3.749913e-01
3.437424e-01
3.124932e-01
2.812439e-01
2.499943e-01
2.187448e-01
1.874950e-01
1.562453e-01
1.249957e-01
9.374593e-02
6.249623e-02
3.124597e-02
0.000000e+00
4.999854e-01
4.687181e-01
4.374745e-01
4.062279e-01
3.749809e-01
3.437334e-01
3.124856e-01
2.812375e-01
2.499889e-01
2.187403e-01
1.874913e-01
1.562423e-01
1.249934e-01
9.374426e-02
6.249516e-02
3.124544e-02
0.000000e+00
4.999781e-01
4.687117e-01
4.374690e-01
4.062232e-01
3.749768e-01
3.437299e-01
3.124826e-01
2.812350e-01
2.499868e-01
2.187386e-01
1.874898e-01
1.562412e-01
1.249925e-01
9.374357e-02
6.249471e-02
3.124519e-02
0.000000e+00
5.000420e-01
4.687666e-01
4.375161e-01
4.062635e-01
3.750112e-01
3.437592e-01
3.125075e-01
2.812559e-01
2.500044e-01
2.187531e-01
1.875018e-01
1.562508e-01
1.249998e-01
9.374900e-02
6.249820e-02
3.124692e-02
0.000000e+00
5.000378e-01
4.687630e-01
4.375129e-01
4.062608e-01
3.750089e-01
3.437572e-01
3.125057e-01
2.812544e-01
2.500032e-01
2.187521e-01
1.875010e-01
1.562501e-01
1.249994e-01
9.374865e-02
6.249799e-02
3.124684e-02
0.000000e+00
5.000265e-01
4.687532e-01
4.375045e-01
4.062535e-01
3.750026e-01
3.437519e-01
3.125012e-01
2.812506e-01
2.499999e-01
2.187494e-01
1.874988e-01
1.562483e-01
1.249980e-01
9.374763e-02
6.249734e-02
3.124651e-02
0.000000e+00
5.000120e-01
4.687407e-01
4.374937e-01
4.062442e-01
3.749946e-01
3.437450e-01
3.124953e-01
2.812456e-01
2.499957e-01
2.187459e-01
1.874959e-01
1.562460e-01
1.249962e-01
9.374632e-02
6.249650e-02
3.124609e-02
0.000000e+00
4.999992e-01
4.687296e-01
4.374841e-01
4.062359e-01
3.749875e-01
3.437389e-01
3.124901e-01
2.812412e-01
2.499920e-01
2.187428e-01
1.874933e-01
1.562439e-01
1.249946e-01
9.374515e-02
6.249574e-02
3.124572e-02
0.000000e+00
4.999923e-01
4.687236e-01
4.374789e-01
4.062314e-01
3.749837e-01
3.437356e-01
3.124873e-01
2.812388e-01
2.499900e-01
2.187412e-01
1.874919e-01
1.562428e-01
1.249938e-01
9.374451e-02
6.249532e-02
3.124551e-02
0.000000e+00
4.999936e-01
4.687247e-01
4.374799e-01
4.062323e-01
3.749844e-01
3.437362e-01
3.124878e-01
2.812393e-01
2.499903e-01
2.187415e-01
1.874922e-01
1.562430e-01
1.249939e-01
9.374462e-02
6.249539e-02
3.124555e-02
0.000000e+00
5.000026e-01
4.687326e-01
4.374866e-01
4.062381e-01
3.749894e-01
3.437405e-01
3.124915e-01
2.812423e-01
2.499930e-01
2.187436e-01
1.874940e-01
1.562445e-01
1.249950e-01
9.374544e-02
6.249592e-02
3.124581e-02
0.000000e+00
5.000164e-01
4.687444e-01
4.374969e-01
4.062469e-01
3.749969e-01
3.437470e-01
3.124970e-01
2.812470e-01
2.499969e-01
2.187469e-01
1.874967e-01
1.562467e-01
1.249967e-01
9.374670e-02
6.249673e-02
3.124622e-02
0.000000e+00
5.000301e-01
4.687563e-01
4.375072e-01
4.062558e-01
3.750046e-01
3.437535e-01
3.125026e-01
2.812518e-01
2.500010e-01
2.187502e-01
1.874995e-01
1.562489e-01
1.249984e-01
9.374796e-02
6.249755e-02
3.124663e-02
0.000000e+00
5.000395e-01
4.687644e-01
4.375142e-01
4.062619e-01
3.750098e-01
3.437580e-01
3.125064e-01
2.812550e-01
2.500037e-01
2.187525e-01
1.875014e-01
1.562504e-01
1.249996e-01
9.374883e-02
6.249811e-02
3.124690e-02
0.000000e+00
5.000413e-01
4.687661e-01
4.375156e-01
4.062631e-01
3.750109e-01
3.437590e-01
3.125073e-01
2.812557e-01
2.500044e-01
2.187530e-01
1.875018e-01
1.562508e-01
1.249999e-01
9.374902e-02
6.249823e-02
3.124697e-02
0.000000e+00
5.000353e-01
4.687609e-01
4.375112e-01
4.062594e-01
3.750077e-01
3.437563e-01
3.125050e-01
2.812538e-01
2.500027e-01
2.187516e-01
1.875007e-01
1.562498e-01
1.249992e-01
9.374850e-02
6.249790e-02
3.124680e-02
0.000000e+00
5.000236e-01
4.687508e-01
4.375025e-01
4.062519e-01
3.750014e-01
3.437508e-01
3.125004e-01
2.812499e-01
2.499994e-01
2.187489e-01
1.874984e-01
1.562480e-01
1.249978e-01
9.374748e-02
6.249723e-02
3.124647e-02
0.000000e+00
5.000102e-01
4.687394e-01
4.374927e-01
4.062435e-01
3.749941e-01
3.437447e-01
3.124951e-01
2.812454e-01
2.499956e-01
2.187458e-01
1.874959e-01
1.562460e-01
1.249962e-01
9.374631e-02
6.249648e-02
3.124609e-02
0.000000e+00
4.999998e-01
4.687304e-01
4.374850e-01
4.062368e-01
3.749884e-01
3.437398e-01
3.124910e-01
2.812420e-01
2.499927e-01
2.187434e-01
1.874938e-01
1.562444e-01
1.249950e-01
9.374541e-02
6.249590e-02
3.124581e-02
0.000000e+00
4.999958e-01
4.687269e-01
4.374820e-01
4.062343e-01
3.749862e-01
3.437379e-01
3.124893e-01
2.812406e-01
2.499915e-01
2.187425e-01
1.874930e-01
1.562437e-01
1.249944e-01
9.374501e-02
6.249563e-02
3.124565e-02
0.000000e+00
5.000172e-01
4.687452e-01
4.374976e-01
4.062476e-01
3.749976e-01
3.437475e-01
3.124975e-01
2.812475e-01
2.499973e-01
2.187472e-01
1.874970e-01
1.562469e-01
1.249969e-01
9.374679e-02
6.249678e-02
3.124622e-02
0.000000e+00
5.000172e-01
4.687452e-01
4.374976e-01
4.062476e-01
3.749976e-01
3.437476e-01
3.124975e-01
2.812475e-01
2.499973e-01
2.187472e-01
1.874970e-01
1.562469e-01
1.249969e-01
9.374682e-02
6.249682e-02
3.124626e-02
0.000000e+00
5.000172e-01
4.687452e-01
4.374976e-01
4.062476e-01
3.749976e-01
3.437475e-01
3.124975e-01
2.812475e-01
2.499973e-01
2.187472e-01
1.874970e-01
1.562469e-01
1.249969e-01
9.374682e-02
6.249682e-02
3.124625e-02
0.000000e+00
5.000171e-01
4.687451e-01
4.374976e-01
4.062475e-01
3.749975e-01
3.437475e-01
3.124975e-01
2.812475e-01
2.499973e-01
2.187472e-01
1.874970e-01
1.562469e-01
1.249969e-01
9.374682e-02
6.249682e-02
3.124625e-02
0.000000e+00
5.000171e-01
4.687451e-01
4.374975e-01
4.062475e-01
3.749975e-01
3.437475e-01
3.124975e-01
2.812474e-01
2.499973e-01
2.187472e-01
1.874970e-01
1.562469e-01
1.249969e-01
9.374681e-02
6.249681e-02
3.124625e-02
0.000000e+00
5.000171e-01
4.687451e-01
4.374975e-01
4.062475e-01
3.749975e-01
3.437475e-01
3.124975e-01
2.812474e-01
2.499973e-01
2.187472e-01
1.874970e-01
1.562469e-01
1.249969e-01
9.374681e-02
6.249681e-02
3.124625e-02
0.000000e+00
5.000171e-01
4.687451e-01
4.374975e-01
4.062475e-01
3.749975e-01
3.437475e-01
3.124975e-01
2.812474e-01
2.499973e-01
2.187472e-01
1.874970e-01
1.562469e-01
1.249969e-01
9.374681e-02
6.249680e-02
3.124625e-02
0.000000e+00
5.000171e-01
4.687451e-01
4.374975e-01
4.062475e-01
3.749975e-01
3.437475e-01
3.124974e-01
2.812474e-01
2.499973e-01
2.187472e-01
1.874970e-01
1.562469e-01
1.249969e-01
9.374680e-02
6.249680e-02
3.124625e-02
0.000000e+00
5.000171e-01
4.687451e-01
4.374975e-01
4.062475e-01
3.749975e-01
3.437475e-01
3.124974e-01
2.812474e-01
2.499973e-01
2.187472e-01
1.874969e-01
1.562469e-01
1.249969e-01
9.374680e-02
6.249680e-02
3.124625e-02
0.000000e+00
5.000171e-01
4.687451e-01
4.374975e-01
4.062475e-01
3.749975e-01
3.437475e-01
3.124974e-01
2.812474e-01
2.499973e-01
2.187472e-01
1.874969e-01
1.562468e-01
1.249968e-01
9.374680e-02
6.249680e-02
3.124625e-02
0.000000e+00
5.000171e-01
4.687451e-01
4.374975e-01
4.062475e-01
3.749975e-01
3.437474e-01
3.124974e-01
2.812474e-01
2.499972e-01
2.187471e-01
1.874969e-01
1.562468e-01
1.249968e-01
9.374679e-02
6.249680e-02
3.124625e-02
0.000000e+00
5.000171e-01
4.687451e-01
4.374975e-01
4.062475e-01
3.749974e-01
3.437474e-01
3.124974e-01
2.812474e-01
2.499972e-01
2.187471e-01
1.874969e-01
1.562468e-01
1.249968e-01
9.374679e-02
6.249679e-02
3.124625e-02
0.000000e+00
5.000171e-01
4.687451e-01
4.374975e-01
4.062475e-01
3.749974e-01
3.437474e-01
3.124974e-01
2.812473e-01
2.499972e-01
2.187471e-01
1.874969e-01
1.562468e-01
1.249968e-01
9.374678e-02
6.249679e-02
3.124625e-02
0.000000e+00
5.000171e-01
4.687451e-01
4.374974e-01
4.062474e-01
3.749974e-01
3.437474e-01
3.124974e-01
2.812473e-01
2.499972e-01
2.187471e-01
1.874969e-01
1.562468e-01
1.249968e-01
9.374677e-02
6.249678e-02
3.124624e-02
0.000000e+00
5.000170e-01
4.687450e-01
4.374974e-01
4.062474e-01
3.749974e-01
3.437474e-01
3.124974e-01
2.812473e-01
2.499972e-01
2.187471e-01
1.874969e-01
1.562468e-01
1.249968e-01
9.374677e-02
6.249678e-02
3.124624e-02
0.000000e+00
5.000170e-01
4.687450e-01
4.374974e-01
4.062474e-01
3.749974e-01
3.437474e-01
3.124973e-01
2.812473e-01
2.499972e-01
2.187471e-01
1.874969e-01
1.562468e-01
1.249968e-01
9.374677e-02
6.249678e-02
3.124624e-02
0.000000e+00
5.000169e-01
4.687449e-01
4.374973e-01
4.062473e-01
3.749973e-01
3.437473e-01
3.124973e-01
2.812473e-01
2.499971e-01
2.187470e-01
1.874968e-01
1.562467e-01
1.249968e-01
9.374672e-02
6.249673e-02
3.124619e-02
0.000000e+00
4.999924e-01
4.687238e-01
4.374791e-01
4.062317e-01
3.749839e-01
3.437359e-01
3.124875e-01
2.812391e-01
2.499902e-01
2.187414e-01
1.874921e-01
1.562430e-01
1.249939e-01
9.374460e-02
6.249537e-02
3.124552e-02
0.000000e+00
4.999967e-01
4.687274e-01
4.374823e-01
4.062344e-01
3.749863e-01
3.437379e-01
3.124893e-01
2.812405e-01
2.499914e-01
2.187424e-01
1.874930e-01
1.562437e-01
1.249944e-01
9.374501e-02
6.249564e-02
3.124568e-02
0.000000e+00
5.000078e-01
4.687371e-01
4.374907e-01
4.062416e-01
3.749925e-01
3.437432e-01
3.124938e-01
2.812444e-01
2.499947e-01
2.187451e-01
1.874952e-01
1.562455e-01
1.249958e-01
9.374601e-02
6.249629e-02
3.124599e-02
0.000000e+00
5.000222e-01
4.687496e-01
4.375014e-01
4.062509e-01
3.750005e-01
3.437500e-01
3.124997e-01
2.812493e-01
2.499989e-01
2.187485e-01
1.874981e-01
1.562478e-01
1.249976e-01
9.374732e-02
6.249714e-02
3.124641e-02
0.000000e+00
5.000350e-01
4.687606e-01
4.375110e-01
4.062591e-01
3.750075e-01
3.437561e-01
3.125048e-01
2.812537e-01
2.500026e-01
2.187516e-01
1.875007e-01
1.562498e-01
1.249992e-01
9.374849e-02
6.249789e-02
3.124679e-02
0.000000e+00
5.000419e-01
4.687666e-01
4.375161e-01
4.062636e-01
3.750113e-01
3.437593e-01
3.125076e-01
2.812560e-01
2.500046e-01
2.187532e-01
1.875020e-01
1.562509e-01
1.250000e-01
9.374913e-02
6.249830e-02
3.124699e-02
0.000000e+00
5.000405e-01
4.687654e-01
4.375151e-01
4.062627e-01
3.750106e-01
3.437587e-01
3.125071e-01
2.812556e-01
2.500042e-01
2.187529e-01
1.875018e-01
1.562507e-01
1.249998e-01
9.374900e-02
6.249822e-02
3.124695e-02
0.000000e+00
5.000315e-01
4.687576e-01
4.375084e-01
4.062569e-01
3.750056e-01
3.437544e-01
3.125034e-01
2.812525e-01
2.500016e-01
2.187507e-01
1.874999e-01
1.562493e-01
1.249987e-01
9.374817e-02
6.249769e-02
3.124669e-02
0.000000e+00
5.000179e-01
4.687458e-01
4.374981e-01
4.062481e-01
3.749980e-01
3.437479e-01
3.124979e-01
2.812478e-01
2.499976e-01
2.187474e-01
1.874972e-01
1.562470e-01
1.249970e-01
9.374691e-02
6.249687e-02
3.124628e-02
0.000000e+00
5.000041e-01
4.687339e-01
4.374878e-01
4.062392e-01
3.749904e-01
3.437414e-01
3.124922e-01
2.812430e-01
2.499935e-01
2.187441e-01
1.874944e-01
1.562448e-01
1.249953e-01
9.374563e-02
6.249604e-02
3.124587e-02
0.000000e+00
4.999948e-01
4.687258e-01
4.374808e-01
4.062331e-01
3.749852e-01
3.437369e-01
3.124884e-01
2.812398e-01
2.499907e-01
2.187418e-01
1.874924e-01
1.562432e-01
1.249941e-01
9.374475e-02
6.249548e-02
3.124559e-02
0.000000e+00
4.999930e-01
4.687242e-01
4.374794e-01
4.062318e-01
3.749840e-01
3.437359e-01
3.124875e-01
2.812390e-01
2.499901e-01
2.187413e-01
1.874920e-01
1.562429e-01
1.249938e-01
9.374454e-02
6.249534e-02
3.124553e-02
0.000000e+00
4.999990e-01
4.687293e-01
4.374838e-01
4.062356e-01
3.749872e-01
3.437386e-01
3.124898e-01
2.812409e-01
2.499917e-01
2.187426e-01
1.874931e-01
1.562438e-01
1.249945e-01
9.374505e-02
6.249567e-02
3.124569e-02
0.000000e+00
5.000106e-01
4.687393e-01
4.374924e-01
4.062430e-01
3.749935e-01
3.437440e-01
3.124944e-01
2.812448e-01
2.499950e-01
2.187453e-01
1.874954e-01
1.562456e-01
1.249959e-01
9.374607e-02
6.249633e-02
3.124602e-02
0.000000e+00
5.000238e-01
4.687507e-01
4.375022e-01
4.062514e-01
3.750007e-01
3.437501e-01
3.124996e-01
2.812492e-01
2.499988e-01
2.187484e-01
1.874979e-01
1.562476e-01
1.249974e-01
9.374724e-02
6.249708e-02
3.124639e-02
0.000000e+00
5.000341e-01
4.687596e-01
4.375098e-01
4.062580e-01
3.750063e-01
3.437550e-01
3.125037e-01
2.812527e-01
2.500017e-01
2.187508e-01
1.874999e-01
1.562492e-01
1.249987e-01
9.374814e-02
6.249767e-02
3.124668e-02
0.000000e+00
5.000380e-01
4.687630e-01
4.375127e-01
4.062604e-01
3.750084e-01
3.437568e-01
3.125053e-01
2.812539e-01
2.500028e-01
2.187516e-01
1.875007e-01
1.562498e-01
1.249991e-01
9.374843e-02
6.249784e-02
3.124674e-02
0.000000e+00
4.999714e-01
4.687056e-01
4.374635e-01
4.062182e-01
3.749723e-01
3.437260e-01
3.124791e-01
2.812320e-01
2.499841e-01
2.187364e-01
1.874880e-01
1.562397e-01
1.249913e-01
9.374274e-02
6.249417e-02
3.124493e-02
0.000000e+00
4.999793e-01
4.687124e-01
4.374693e-01
4.062232e-01
3.749767e-01
3.437297e-01
3.124823e-01
2.812347e-01
2.499864e-01
2.187383e-01
1.874896e-01
1.562410e-01
1.249923e-01
9.374347e-02
6.249465e-02
3.124518e-02
0.000000e+00
4.999999e-01
4.687303e-01
4.374848e-01
4.062366e-01
3.749882e-01
3.437395e-01
3.124907e-01
2.812418e-01
2.499925e-01
2.187433e-01
1.874937e-01
1.562443e-01
1.249949e-01
9.374534e-02
6.249585e-02
3.124577e-02
0.000000e+00
5.000265e-01
4.687533e-01
4.375047e-01
4.062538e-01
3.750029e-01
3.437522e-01
3.125015e-01
2.812509e-01
2.500002e-01
2.187497e-01
1.874990e-01
1.562486e-01
1.249982e-01
9.374776e-02
6.249741e-02
3.124655e-02
0.000000e+00
5.000501e-01
4.687738e-01
4.375223e-01
4.062690e-01
3.750160e-01
3.437634e-01
3.125111e-01
2.812590e-01
2.500071e-01
2.187553e-01
1.875038e-01
1.562524e-01
1.250011e-01
9.374992e-02
6.249881e-02
3.124724e-02
0.000000e+00
5.000628e-01
4.687847e-01
4.375318e-01
4.062772e-01
3.750230e-01
3.437694e-01
3.125162e-01
2.812633e-01
2.500108e-01
2.187584e-01
1.875063e-01
1.562544e-01
1.250027e-01
9.375109e-02
6.249957e-02
3.124762e-02
0.000000e+00
5.000604e-01
4.687827e-01
4.375300e-01
4.062756e-01
3.750217e-01
3.437682e-01
3.125152e-01
2.812625e-01
2.500101e-01
2.187578e-01
1.875058e-01
1.562540e-01
1.250024e-01
9.375087e-02
6.249943e-02
3.124755e-02
0.000000e+00
5.000438e-01
4.687682e-01
4.375176e-01
4.062649e-01
3.750125e-01
3.437603e-01
3.125085e-01
2.812568e-01
2.500053e-01
2.187538e-01
1.875025e-01
1.562513e-01
1.250003e-01
9.374933e-02
6.249844e-02
3.124706e-02
0.000000e+00
5.000185e-01
4.687464e-01
4.374987e-01
4.062486e-01
3.749985e-01
3.437483e-01
3.124982e-01
2.812481e-01
2.499979e-01
2.187477e-01
1.874974e-01
1.562472e-01
1.249971e-01
9.374700e-02
6.249693e-02
3.124631e-02
0.000000e+00
4.999931e-01
4.687244e-01
4.374797e-01
4.062321e-01
3.749843e-01
3.437362e-01
3.124878e-01
2.812393e-01
2.499904e-01
2.187415e-01
1.874922e-01
1.562430e-01
1.249939e-01
9.374464e-02
6.249540e-02
3.124555e-02
0.000000e+00
4.999759e-01
4.687095e-01
4.374668e-01
4.062210e-01
3.749747e-01
3.437280e-01
3.124808e-01
2.812333e-01
2.499852e-01
2.187373e-01
1.874886e-01
1.562402e-01
1.249917e-01
9.374302e-02
6.249435e-02
3.124503e-02
0.000000e+00
4.999725e-01
4.687065e-01
4.374641e-01
4.062186e-01
3.749727e-01
3.437262e-01
3.124792e-01
2.812319e-01
2.499841e-01
2.187363e-01
1.874878e-01
1.562395e-01
1.249912e-01
9.374264e-02
6.249411e-02
3.124492e-02
0.000000e+00
4.999836e-01
4.687160e-01
4.374722e-01
4.062256e-01
3.749786e-01
3.437312e-01
3.124834e-01
2.812355e-01
2.499871e-01
2.187388e-01
1.874899e-01
1.562412e-01
1.249925e-01
9.374358e-02
6.249473e-02
3.124522e-02
0.000000e+00
5.000052e-01
4.687345e-01
4.374881e-01
4.062392e-01
3.749902e-01
3.437411e-01
3.124919e-01
2.812426e-01
2.499932e-01
2.187438e-01
1.874941e-01
1.562445e-01
1.249951e-01
9.374548e-02
6.249595e-02
3.124583e-02
0.000000e+00
5.000296e-01
4.687556e-01
4.375062e-01
4.062548e-01
3.750035e-01
3.437525e-01
3.125016e-01
2.812508e-01
2.500001e-01
2.187494e-01
1.874988e-01
1.562483e-01
1.249980e-01
9.374763e-02
6.249734e-02
3.124652e-02
0.000000e+00
5.000487e-01
4.687720e-01
4.375204e-01
4.062670e-01
3.750140e-01
3.437614e-01
3.125092e-01
2.812572e-01
2.500055e-01
2.187539e-01
1.875025e-01
1.562513e-01
1.250003e-01
9.374931e-02
6.249842e-02
3.124705e-02
0.000000e+00
5.000559e-01
4.687782e-01
4.375257e-01
4.062716e-01
3.750179e-01
3.437648e-01
3.125120e-01
2.812596e-01
2.500075e-01
2.187556e-01
1.875039e-01
1.562524e-01
1.250011e-01
9.374989e-02
6.249877e-02
3.124720e-02
0.000000e+00
4.999574e-01
4.686935e-01
4.374530e-01
4.062092e-01
3.749646e-01
3.437193e-01
3.124735e-01
2.812272e-01
2.499801e-01
2.187331e-01
1.874852e-01
1.562375e-01
1.249897e-01
9.374150e-02
6.249337e-02
3.124453e-02
0.000000e+00
4.999676e-01
4.687024e-01
4.374607e-01
4.062158e-01
3.749703e-01
3.437242e-01
3.124777e-01
2.812308e-01
2.499831e-01
2.187356e-01
1.874873e-01
1.562392e-01
1.249909e-01
9.374245e-02
6.249399e-02
3.124486e-02
0.000000e+00
4.999946e-01
4.687258e-01
4.374809e-01
4.062332e-01
3.749853e-01
3.437371e-01
3.124886e-01
2.812400e-01
2.499910e-01
2.187421e-01
1.874927e-01
1.562435e-01
1.249943e-01
9.374488e-02
6.249555e-02
3.124563e-02
0.000000e+00
5.000294e-01
4.687559e-01
4.375069e-01
4.062557e-01
3.750046e-01
3.437536e-01
3.125028e-01
2.812519e-01
2.500012e-01
2.187504e-01
1.874997e-01
1.562491e-01
1.249985e-01
9.374804e-02
6.249759e-02
3.124664e-02
0.000000e+00
5.000602e-01
4.687825e-01
4.375299e-01
4.062755e-01
3.750217e-01
3.437682e-01
3.125153e-01
2.812625e-01
2.500102e-01
2.187578e-01
1.875059e-01
1.562540e-01
1.250024e-01
9.375087e-02
6.249942e-02
3.124755e-02
0.000000e+00
5.000768e-01
4.687969e-01
4.375424e-01
4.062863e-01
3.750308e-01
3.437761e-01
3.125220e-01
2.812682e-01
2.500150e-01
2.187618e-01
1.875092e-01
1.562567e-01
1.250044e-01
9.375240e-02
6.250042e-02
3.124804e-02
0.000000e+00
5.000737e-01
4.687942e-01
4.375400e-01
4.062842e-01
3.750291e-01
3.437746e-01
3.125207e-01
2.812671e-01
2.500141e-01
2.187610e-01
1.875086e-01
1.562562e-01
1.250041e-01
9.375211e-02
6.250024e-02
3.124795e-02
0.000000e+00
5.000519e-01
4.687753e-01
4.375237e-01
4.062702e-01
3.750171e-01
3.437643e-01
3.125119e-01
2.812596e-01
2.500077e-01
2.187558e-01
1.875042e-01
1.562527e-01
1.250013e-01
9.375010e-02
6.249894e-02
3.124731e-02
0.000000e+00
5.000189e-01
4.687468e-01
4.374991e-01
4.062489e-01
3.749988e-01
3.437486e-01
3.124984e-01
2.812483e-01
2.499980e-01
2.187478e-01
1.874975e-01
1.562473e-01
1.249972e-01
9.374706e-02
6.249697e-02
3.124633e-02
0.000000e+00
4.999857e-01
4.687181e-01
4.374742e-01
4.062274e-01
3.749803e-01
3.437328e-01
3.124849e-01
2.812368e-01
2.499882e-01
2.187398e-01
1.874907e-01
1.562419e-01
1.249930e-01
9.374397e-02
6.249497e-02
3.124534e-02
0.000000e+00
4.999633e-01
4.686986e-01
4.374574e-01
4.062129e-01
3.749678e-01
3.437220e-01
3.124756e-01
2.812290e-01
2.499816e-01
2.187342e-01
1.874861e-01
1.562382e-01
1.249902e-01
9.374186e-02
6.249360e-02
3.124466e-02
0.000000e+00
4.999589e-01
4.686947e-01
4.374539e-01
4.062098e-01
3.749651e-01
3.437196e-01
3.124736e-01
2.812272e-01
2.499800e-01
2.187330e-01
1.874850e-01
1.562373e-01
1.249895e-01
9.374137e-02
6.249329e-02
3.124451e-02
0.000000e+00
4.999734e-01
4.687071e-01
4.374645e-01
4.062189e-01
3.749728e-01
3.437262e-01
3.124792e-01
2.812319e-01
2.499840e-01
2.187362e-01
1.874878e-01
1.562395e-01
1.249912e-01
9.374260e-02
6.249410e-02
3.124491e-02
0.000000e+00
5.000015e-01
4.687313e-01
4.374853e-01
4.062367e-01
3.749880e-01
3.437392e-01
3.124902e-01
2.812412e-01
2.499919e-01
2.187427e-01
1.874932e-01
1.562438e-01
1.249945e-01
9.374508e-02
6.249570e-02
3.124571e-02
0.000000e+00
5.000335e-01
4.687588e-01
4.375089e-01
4.062570e-01
3.750054e-01
3.437541e-01
3.125029e-01
2.812519e-01
2.500010e-01
2.187502e-01
1.874994e-01
1.562488e-01
1.249983e-01
9.374789e-02
6.249751e-02
3.124661e-02
0.000000e+00
5.000584e-01
4.687803e-01
4.375274e-01
4.062730e-01
3.750190e-01
3.437657e-01
3.125128e-01
2.812602e-01