<?xml version="1.0"?>
<VTKFile type="StructuredGrid" version="0.1">
  <StructuredGrid WholeExtent="0 360 16 32 0 0">
    <Piece Extent="0 360 16 32 0 0">
      <PointData Scalars="temperature" Vectors="velocity">
        <DataArray type="Float32" Name="density" NumberOfComponents="1" format="ascii">
1.5343e+00
1.5341e+00
1.5340e+00
1.5338e+00
1.5336e+00
1.5334e+00
1.5332e+00
1.5331e+00
1.5329e+00
1.5327e+00
1.5325e+00
1.5323e+00
1.5321e+00
1.5319e+00
1.5317e+00
1.5315e+00
1.5313e+00
1.5311e+00
1.5309e+00
1.5307e+00
1.5305e+00
1.5303e+00
1.5301e+00
1.5298e+00
1.5296e+00
1.5294e+00
1.5292e+00
1.5290e+00
1.5288e+00
1.5286e+00
1.5283e+00
1.5281e+00
1.5279e+00
1.5277e+00
1.5275e+00
1.5272e+00
1.5270e+00
1.5268e+00
1.5266e+00
1.5263e+00
1.5261e+00
1.5259e+00
1.5257e+00
1.5254e+00
1.5252e+00
1.5250e+00
1.5248e+00
1.5245e+00
1.5243e+00
1.5241e+00
1.5238e+00
1.5236e+00
1.5234e+00
1.5231e+00
1.5229e+00
1.5227e+00
1.5224e+00
1.5222e+00
1.5220e+00
1.5217e+00
1.5215e+00
1.5213e+00
1.5210e+00
1.5208e+00
1.5206e+00
1.5203e+00
1.5201e+00
1.5198e+00
1.5196e+00
1.5183e+00
1.5181e+00
1.5178e+00
1.5176e+00
1.5174e+00
1.5171e+00
1.5169e+00
1.5167e+00
1.5164e+00
1.5162e+00
1.5159e+00
1.5157e+00
1.5155e+00
1.5152e+00
1.5150e+00
1.5147e+00
1.5145e+00
1.5143e+00
1.5140e+00
1.5138e+00
1.5135e+00
1.5133e+00
1.5131e+00
1.5128e+00
1.5097e+00
1.5095e+00
1.5093e+00
1.5090e+00
1.5088e+00
1.5085e+00
1.5083e+00
1.5081e+00
1.5078e+00
1.5076e+00
1.5073e+00
1.5071e+00
1.5069e+00
1.5066e+00
1.5064e+00
1.5061e+00
1.5059e+00
1.5057e+00
1.5054e+00
1.5052e+00
1.5049e+00
1.5047e+00
1.5045e+00
1.5042e+00
1.5040e+00
1.5037e+00
1.5035e+00
1.5032e+00
1.5030e+00
1.5028e+00
1.5025e+00
1.5023e+00
1.5020e+00
1.5018e+00
1.5015e+00
1.5013e+00
1.5011e+00
1.5008e+00
1.5006e+00
1.5003e+00
1.5001e+00
1.4998e+00
1.4996e+00
1.4993e+00
1.4991e+00
1.4988e+00
1.4986e+00
1.4984e+00
1.4981e+00
1.4979e+00
1.4976e+00
1.4974e+00
1.4971e+00
1.4969e+00
1.4966e+00
1.4964e+00
1.4961e+00
1.4959e+00
1.4956e+00
1.4954e+00
1.4951e+00
1.4949e+00
1.4947e+00
1.4944e+00
1.4942e+00
1.4939e+00
1.4937e+00
1.4934e+00
1.4932e+00
1.4929e+00
1.4927e+00
1.4924e+00
1.4922e+00
1.4919e+00
1.4917e+00
1.4914e+00
1.4912e+00
1.4909e+00
1.4907e+00
1.4904e+00
1.4902e+00
1.4899e+00
1.4897e+00
1.4894e+00
1.4892e+00
1.4889e+00
1.4887e+00
1.4884e+00
1.4881e+00
1.4879e+00
1.4876e+00
1.4874e+00
1.4871e+00
1.4869e+00
1.4866e+00
1.4864e+00
1.4861e+00
1.4859e+00
1.4856e+00
1.4854e+00
1.4851e+00
1.4849e+00
1.4846e+00
1.4844e+00
1.4841e+00
1.4838e+00
1.4836e+00
1.4833e+00
1.4831e+00
1.4828e+00
1.4826e+00
1.4823e+00
1.4821e+00
1.4818e+00
1.4815e+00
1.4813e+00
1.4810e+00
1.4808e+00
1.4805e+00
1.4803e+00
1.4800e+00
1.4798e+00
1.4795e+00
1.4792e+00
1.4790e+00
1.4787e+00
1.4785e+00
1.4782e+00
1.4780e+00
1.4777e+00
1.4774e+00
1.4772e+00
1.4769e+00
1.4767e+00
1.4764e+00
1.4762e+00
1.4759e+00
1.4756e+00
1.4754e+00
1.4751e+00
1.4749e+00
1.4746e+00
1.4743e+00
1.4741e+00
1.4738e+00
1.4736e+00
1.4733e+00
1.4730e+00
1.4728e+00
1.4725e+00
1.4723e+00
1.4720e+00
1.4717e+00
1.4715e+00
1.4712e+00
1.4710e+00
1.4707e+00
1.4704e+00
1.4702e+00
1.4699e+00
1.4697e+00
1.4694e+00
1.4691e+00
1.4689e+00
1.4686e+00
1.4683e+00
1.4681e+00
1.4678e+00
1.4676e+00
1.4673e+00
1.4670e+00
1.4668e+00
1.4665e+00
1.4662e+00
1.4660e+00
1.4657e+00
1.4654e+00
1.4652e+00
1.4649e+00
1.4647e+00
1.4644e+00
1.4641e+00
1.4639e+00
1.4636e+00
1.4633e+00
1.4631e+00
1.4628e+00
1.4625e+00
1.4623e+00
1.4620e+00
1.4617e+00
1.4615e+00
1.4612e+00
1.4609e+00
1.4607e+00
1.4604e+00
1.4601e+00
1.4599e+00
1.4596e+00
1.4593e+00
1.4591e+00
1.4588e+00
1.4585e+00
1.4583e+00
1.4580e+00
1.4577e+00
1.4575e+00
1.4572e+00
1.4569e+00
1.4567e+00
1.4564e+00
1.4561e+00
1.4559e+00
1.4556e+00
1.4553e+00
1.4550e+00
1.4548e+00
1.4545e+00
1.4542e+00
1.4540e+00
1.4537e+00
1.4534e+00
1.4532e+00
1.4529e+00
1.4526e+00
1.4523e+00
1.4521e+00
1.4518e+00
1.4515e+00
1.4513e+00
1.4510e+00
1.4507e+00
1.4504e+00
1.4502e+00
1.4499e+00
1.4496e+00
1.4494e+00
1.4491e+00
1.4488e+00
1.4485e+00
1.4483e+00
1.4480e+00
1.4477e+00
1.4474e+00
1.4472e+00
1.4469e+00
1.4466e+00
1.4464e+00
1.4461e+00
1.4458e+00
1.4455e+00
1.4453e+00
1.4450e+00
1.4447e+00
1.4444e+00
1.4442e+00
1.4439e+00
1.4436e+00
1.4433e+00
1.4431e+00
1.4428e+00
1.4425e+00
1.4422e+00
1.4419e+00
1.4417e+00
1.4414e+00
1.4411e+00
1.4408e+00
1.5199e+00
1.5197e+00
1.5195e+00
1.5194e+00
1.5192e+00
1.5190e+00
1.5188e+00
1.5186e+00
1.5184e+00
1.5182e+00
1.5180e+00
1.5178e+00
1.5176e+00
1.5174e+00
1.5172e+00
1.5170e+00
1.5168e+00
1.5166e+00
1.5164e+00
1.5162e+00
1.5159e+00
1.5157e+00
1.5155e+00
1.5153e+00
1.5151e+00
1.5149e+00
1.5146e+00
1.5144e+00
1.5142e+00
1.5140e+00
1.5138e+00
1.5135e+00
1.5133e+00
1.5131e+00
1.5129e+00
1.5126e+00
1.5124e+00
1.5122e+00
1.5119e+00
1.5117e+00
1.5115e+00
1.5112e+00
1.5110e+00
1.5108e+00
1.5105e+00
1.5103e+00
1.5101e+00
1.5098e+00
1.5096e+00
1.5094e+00
1.5091e+00
1.5089e+00
1.5087e+00
1.5084e+00
1.5082e+00
1.5079e+00
1.5066e+00
1.5064e+00
1.5061e+00
1.5059e+00
1.5057e+00
1.5054e+00
1.5052e+00
1.5049e+00
1.5047e+00
1.5045e+00
1.5042e+00
1.5040e+00
1.5037e+00
1.5035e+00
1.5033e+00
1.5030e+00
1.5028e+00
1.5025e+00
1.5023e+00
1.4992e+00
1.4989e+00
1.4987e+00
1.4984e+00
1.4982e+00
1.4980e+00
1.4977e+00
1.4975e+00
1.4972e+00
1.4970e+00
1.4968e+00
1.4965e+00
1.4963e+00
1.4960e+00
1.4958e+00
1.4955e+00
1.4953e+00
1.4951e+00
1.4948e+00
1.4946e+00
1.4943e+00
1.4941e+00
1.4938e+00
1.4936e+00
1.4933e+00
1.4931e+00
1.4928e+00
1.4926e+00
1.4924e+00
1.4921e+00
1.4919e+00
1.4916e+00
1.4914e+00
1.4911e+00
1.4909e+00
1.4906e+00
1.4904e+00
1.4901e+00
1.4899e+00
1.4896e+00
1.4894e+00
1.4891e+00
1.4889e+00
1.4886e+00
1.4884e+00
1.4881e+00
1.4879e+00
1.4876e+00
1.4874e+00
1.4871e+00
1.4869e+00
1.4866e+00
1.4864e+00
1.4861e+00
1.4859e+00
1.4856e+00
1.4854e+00
1.4851e+00
1.4849e+00
1.4846e+00
1.4844e+00
1.4841e+00
1.4839e+00
1.4836e+00
1.4834e+00
1.4831e+00
1.4829e+00
1.4826e+00
1.4824e+00
1.4821e+00
1.4819e+00
1.4816e+00
1.4814e+00
1.4811e+00
1.4808e+00
1.4806e+00
1.4803e+00
1.4801e+00
1.4798e+00
1.4796e+00
1.4793e+00
1.4791e+00
1.4788e+00
1.4786e+00
1.4783e+00
1.4780e+00
1.4778e+00
1.4775e+00
1.4773e+00
1.4770e+00
1.4768e+00
1.4765e+00
1.4762e+00
1.4760e+00
1.4757e+00
1.4755e+00
1.4752e+00
1.4750e+00
1.4747e+00
1.4744e+00
1.4742e+00
1.4739e+00
1.4737e+00
1.4734e+00
1.4731e+00
1.4729e+00
1.4726e+00
1.4724e+00
1.4721e+00
1.4719e+00
1.4716e+00
1.4713e+00
1.4711e+00
1.4708e+00
1.4706e+00
1.4703e+00
1.4700e+00
1.4698e+00
1.4695e+00
1.4693e+00
1.4690e+00
1.4687e+00
1.4685e+00
1.4682e+00
1.4679e+00
1.4677e+00
1.4674e+00
1.4672e+00
1.4669e+00
1.4666e+00
1.4664e+00
1.4661e+00
1.4658e+00
1.4656e+00
1.4653e+00
1.4651e+00
1.4648e+00
1.4645e+00
1.4643e+00
1.4640e+00
1.4637e+00
1.4635e+00
1.4632e+00
1.4629e+00
1.4627e+00
1.4624e+00
1.4622e+00
1.4619e+00
1.4616e+00
1.4614e+00
1.4611e+00
1.4608e+00
1.4606e+00
1.4603e+00
1.4600e+00
1.4598e+00
1.4595e+00
1.4592e+00
1.4590e+00
1.4587e+00
1.4584e+00
1.4582e+00
1.4579e+00
1.4576e+00
1.4574e+00
1.4571e+00
1.4568e+00
1.4566e+00
1.4563e+00
1.4560e+00
1.4557e+00
1.4555e+00
1.4552e+00
1.4549e+00
1.4547e+00
1.4544e+00
1.4541e+00
1.4539e+00
1.4536e+00
1.4533e+00
1.4531e+00
1.4528e+00
1.4525e+00
1.4522e+00
1.4520e+00
1.4517e+00
1.4514e+00
1.4512e+00
1.4509e+00
1.4506e+00
1.4504e+00
1.4501e+00
1.4498e+00
1.4495e+00
1.4493e+00
1.4490e+00
1.4487e+00
1.4484e+00
1.4482e+00
1.4479e+00
1.4476e+00
1.4474e+00
1.4471e+00
1.4468e+00
1.4465e+00
1.4463e+00
1.4460e+00
1.4457e+00
1.4454e+00
1.4452e+00
1.4449e+00
1.4446e+00
1.4443e+00
1.4441e+00
1.4438e+00
1.4435e+00
1.4432e+00
1.4430e+00
1.4427e+00
1.4424e+00
1.4421e+00
1.4419e+00
1.4416e+00
1.4413e+00
1.4410e+00
1.4408e+00
1.4405e+00
1.4402e+00
1.4399e+00
1.4396e+00
1.4394e+00
1.4391e+00
1.4388e+00
1.4385e+00
1.4383e+00
1.4380e+00
1.4377e+00
1.4374e+00
1.4371e+00
1.4369e+00
1.4366e+00
1.4363e+00
1.4360e+00
1.4357e+00
1.4355e+00
1.4352e+00
1.4349e+00
1.4346e+00
1.4343e+00
1.4341e+00
1.4338e+00
1.4335e+00
1.4332e+00
1.4329e+00
1.4327e+00
1.4324e+00
1.4321e+00
1.4318e+00
1.4315e+00
1.4313e+00
1.4310e+00
1.4307e+00
1.4304e+00
1.4301e+00
1.4298e+00
1.4296e+00
1.4293e+00
1.4290e+00
1.4287e+00
1.4284e+00
1.4281e+00
1.4279e+00
1.4276e+00
1.4273e+00
1.4270e+00
1.4267e+00
1.4264e+00
1.4261e+00
1.4259e+00
1.4256e+00
1.4253e+00
1.4250e+00
1.4247e+00
1.4244e+00
1.4241e+00
1.4239e+00
1.5051e+00
1.5049e+00
1.5047e+00
1.5045e+00
1.5044e+00
1.5042e+00
1.5040e+00
1.5038e+00
1.5036e+00
1.5034e+00
1.5032e+00
1.5030e+00
1.5028e+00
1.5025e+00
1.5023e+00
1.5021e+00
1.5019e+00
1.5017e+00
1.5015e+00
1.5013e+00
1.5010e+00
1.5008e+00
1.5006e+00
1.5004e+00
1.5001e+00
1.4999e+00
1.4997e+00
1.4995e+00
1.4992e+00
1.4990e+00
1.4988e+00
1.4986e+00
1.4983e+00
1.4981e+00
1.4979e+00
1.4976e+00
1.4974e+00
1.4972e+00
1.4969e+00
1.4967e+00
1.4964e+00
1.4962e+00
1.4960e+00
1.4957e+00
1.4955e+00
1.4952e+00
1.4950e+00
1.4948e+00
1.4945e+00
1.4943e+00
1.4929e+00
1.4927e+00
1.4924e+00
1.4922e+00
1.4920e+00
1.4917e+00
1.4915e+00
1.4912e+00
1.4910e+00
1.4907e+00
1.4905e+00
1.4873e+00
1.4871e+00
1.4869e+00
1.4866e+00
1.4864e+00
1.4861e+00
1.4859e+00
1.4856e+00
1.4854e+00
1.4852e+00
1.4849e+00
1.4847e+00
1.4844e+00
1.4842e+00
1.4839e+00
1.4837e+00
1.4834e+00
1.4832e+00
1.4829e+00
1.4827e+00
1.4825e+00
1.4822e+00
1.4820e+00
1.4817e+00
1.4815e+00
1.4812e+00
1.4810e+00
1.4807e+00
1.4805e+00
1.4802e+00
1.4800e+00
1.4797e+00
1.4795e+00
1.4792e+00
1.4790e+00
1.4787e+00
1.4785e+00
1.4782e+00
1.4780e+00
1.4777e+00
1.4775e+00
1.4772e+00
1.4769e+00
1.4767e+00
1.4764e+00
1.4762e+00
1.4759e+00
1.4757e+00
1.4754e+00
1.4752e+00
1.4749e+00
1.4747e+00
1.4744e+00
1.4742e+00
1.4739e+00
1.4736e+00
1.4734e+00
1.4731e+00
1.4729e+00
1.4726e+00
1.4724e+00
1.4721e+00
1.4718e+00
1.4716e+00
1.4713e+00
1.4711e+00
1.4708e+00
1.4706e+00
1.4703e+00
1.4700e+00
1.4698e+00
1.4695e+00
1.4693e+00
1.4690e+00
1.4688e+00
1.4685e+00
1.4682e+00
1.4680e+00
1.4677e+00
1.4675e+00
1.4672e+00
1.4669e+00
1.4667e+00
1.4664e+00
1.4662e+00
1.4659e+00
1.4656e+00
1.4654e+00
1.4651e+00
1.4648e+00
1.4646e+00
1.4643e+00
1.4641e+00
1.4638e+00
1.4635e+00
1.4633e+00
1.4630e+00
1.4627e+00
1.4625e+00
1.4622e+00
1.4620e+00
1.4617e+00
1.4614e+00
1.4612e+00
1.4609e+00
1.4606e+00
1.4604e+00
1.4601e+00
1.4598e+00
1.4596e+00
1.4593e+00
1.4590e+00
1.4588e+00
1.4585e+00
1.4582e+00
1.4580e+00
1.4577e+00
1.4574e+00
1.4572e+00
1.4569e+00
1.4567e+00
1.4564e+00
1.4561e+00
1.4558e+00
1.4556e+00
1.4553e+00
1.4550e+00
1.4548e+00
1.4545e+00
1.4542e+00
1.4540e+00
1.4537e+00
1.4534e+00
1.4532e+00
1.4529e+00
1.4526e+00
1.4524e+00
1.4521e+00
1.4518e+00
1.4516e+00
1.4513e+00
1.4510e+00
1.4507e+00
1.4505e+00
1.4502e+00
1.4499e+00
1.4497e+00
1.4494e+00
1.4491e+00
1.4488e+00
1.4486e+00
1.4483e+00
1.4480e+00
1.4478e+00
1.4475e+00
1.4472e+00
1.4469e+00
1.4467e+00
1.4464e+00
1.4461e+00
1.4458e+00
1.4456e+00
1.4453e+00
1.4450e+00
1.4448e+00
1.4445e+00
1.4442e+00
1.4439e+00
1.4437e+00
1.4434e+00
1.4431e+00
1.4428e+00
1.4426e+00
1.4423e+00
1.4420e+00
1.4417e+00
1.4415e+00
1.4412e+00
1.4409e+00
1.4406e+00
1.4404e+00
1.4401e+00
1.4398e+00
1.4395e+00
1.4392e+00
1.4390e+00
1.4387e+00
1.4384e+00
1.4381e+00
1.4379e+00
1.4376e+00
1.4373e+00
1.4370e+00
1.4367e+00
1.4365e+00
1.4362e+00
1.4359e+00
1.4356e+00
1.4354e+00
1.4351e+00
1.4348e+00
1.4345e+00
1.4342e+00
1.4340e+00
1.4337e+00
1.4334e+00
1.4331e+00
1.4328e+00
1.4325e+00
1.4323e+00
1.4320e+00
1.4317e+00
1.4314e+00
1.4311e+00
1.4309e+00
1.4306e+00
1.4303e+00
1.4300e+00
1.4297e+00
1.4294e+00
1.4292e+00
1.4289e+00
1.4286e+00
1.4283e+00
1.4280e+00
1.4277e+00
1.4275e+00
1.4272e+00
1.4269e+00
1.4266e+00
1.4263e+00
1.4260e+00
1.4258e+00
1.4255e+00
1.4252e+00
1.4249e+00
1.4246e+00
1.4243e+00
1.4240e+00
1.4238e+00
1.4235e+00
1.4232e+00
1.4229e+00
1.4226e+00
1.4223e+00
1.4220e+00
1.4218e+00
1.4215e+00
1.4212e+00
1.4209e+00
1.4206e+00
1.4203e+00
1.4200e+00
1.4197e+00
1.4194e+00
1.4192e+00
1.4189e+00
1.4186e+00
1.4183e+00
1.4180e+00
1.4177e+00
1.4174e+00
1.4171e+00
1.4168e+00
1.4165e+00
1.4163e+00
1.4160e+00
1.4157e+00
1.4154e+00
1.4151e+00
1.4148e+00
1.4145e+00
1.4142e+00
1.4139e+00
1.4136e+00
1.4133e+00
1.4130e+00
1.4128e+00
1.4125e+00
1.4122e+00
1.4119e+00
1.4116e+00
1.4113e+00
1.4110e+00
1.4107e+00
1.4104e+00
1.4101e+00
1.4098e+00
1.4095e+00
1.4092e+00
1.4089e+00
1.4086e+00
1.4083e+00
1.4080e+00
1.4077e+00
1.4074e+00
1.4071e+00
1.4069e+00
1.4066e+00
1.4063e+00
1.4899e+00
1.4897e+00
1.4895e+00
1.4893e+00
1.4891e+00
1.4889e+00
1.4887e+00
1.4885e+00
1.4883e+00
1.4881e+00
1.4879e+00
1.4877e+00
1.4875e+00
1.4873e+00
1.4871e+00
1.4868e+00
1.4866e+00
1.4864e+00
1.4862e+00
1.4859e+00
1.4857e+00
1.4855e+00
1.4853e+00
1.4850e+00
1.4848e+00
1.4846e+00
1.4843e+00
1.4841e+00
1.4839e+00
1.4790e+00
1.4787e+00
1.4785e+00
1.4783e+00
1.4780e+00
1.4778e+00
1.4775e+00
1.4773e+00
1.4771e+00
1.4757e+00
1.4755e+00
1.4752e+00
1.4750e+00
1.4747e+00
1.4745e+00
1.4742e+00
1.4740e+00
1.4738e+00
1.4735e+00
1.4733e+00
1.4730e+00
1.4728e+00
1.4725e+00
1.4723e+00
1.4721e+00
1.4718e+00
1.4716e+00
1.4713e+00
1.4711e+00
1.4708e+00
1.4706e+00
1.4703e+00
1.4701e+00
1.4698e+00
1.4696e+00
1.4693e+00
1.4691e+00
1.4688e+00
1.4686e+00
1.4683e+00
1.4681e+00
1.4678e+00
1.4676e+00
1.4673e+00
1.4670e+00
1.4668e+00
1.4665e+00
1.4663e+00
1.4660e+00
1.4658e+00
1.4655e+00
1.4653e+00
1.4650e+00
1.4647e+00
1.4645e+00
1.4642e+00
1.4640e+00
1.4637e+00
1.4635e+00
1.4632e+00
1.4629e+00
1.4627e+00
1.4624e+00
1.4622e+00
1.4619e+00
1.4616e+00
1.4614e+00
1.4611e+00
1.4609e+00
1.4606e+00
1.4603e+00
1.4601e+00
1.4616e+00
1.4613e+00
1.4611e+00
1.4608e+00
1.4606e+00
1.4603e+00
1.4600e+00
1.4598e+00
1.4595e+00
1.4593e+00
1.4590e+00
1.4587e+00
1.4585e+00
1.4582e+00
1.4579e+00
1.4577e+00
1.4574e+00
1.4572e+00
1.4569e+00
1.4566e+00
1.4564e+00
1.4561e+00
1.4558e+00
1.4556e+00
1.4553e+00
1.4550e+00
1.4548e+00
1.4545e+00
1.4542e+00
1.4540e+00
1.4537e+00
1.4534e+00
1.4532e+00
1.4529e+00
1.4526e+00
1.4524e+00
1.4521e+00
1.4518e+00
1.4516e+00
1.4513e+00
1.4510e+00
1.4508e+00
1.4505e+00
1.4502e+00
1.4500e+00
1.4497e+00
1.4494e+00
1.4492e+00
1.4489e+00
1.4486e+00
1.4483e+00
1.4481e+00
1.4478e+00
1.4475e+00
1.4473e+00
1.4470e+00
1.4467e+00
1.4464e+00
1.4462e+00
1.4459e+00
1.4456e+00
1.4454e+00
1.4451e+00
1.4448e+00
1.4445e+00
1.4443e+00
1.4440e+00
1.4437e+00
1.4435e+00
1.4432e+00
1.4429e+00
1.4426e+00
1.4424e+00
1.4421e+00
1.4418e+00
1.4415e+00
1.4413e+00
1.4410e+00
1.4407e+00
1.4404e+00
1.4402e+00
1.4399e+00
1.4396e+00
1.4393e+00
1.4391e+00
1.4388e+00
1.4385e+00
1.4382e+00
1.4380e+00
1.4377e+00
1.4374e+00
1.4371e+00
1.4368e+00
1.4366e+00
1.4363e+00
1.4360e+00
1.4357e+00
1.4355e+00
1.4352e+00
1.4349e+00
1.4346e+00
1.4343e+00
1.4341e+00
1.4338e+00
1.4335e+00
1.4332e+00
1.4329e+00
1.4327e+00
1.4324e+00
1.4321e+00
1.4318e+00
1.4315e+00
1.4313e+00
1.4310e+00
1.4307e+00
1.4304e+00
1.4301e+00
1.4299e+00
1.4296e+00
1.4293e+00
1.4290e+00
1.4287e+00
1.4284e+00
1.4282e+00
1.4279e+00
1.4276e+00
1.4273e+00
1.4270e+00
1.4267e+00
1.4265e+00
1.4262e+00
1.4259e+00
1.4256e+00
1.4253e+00
1.4250e+00
1.4248e+00
1.4245e+00
1.4242e+00
1.4239e+00
1.4236e+00
1.4233e+00
1.4230e+00
1.4228e+00
1.4225e+00
1.4222e+00
1.4219e+00
1.4216e+00
1.4213e+00
1.4210e+00
1.4207e+00
1.4205e+00
1.4202e+00
1.4199e+00
1.4196e+00
1.4193e+00
1.4190e+00
1.4187e+00
1.4184e+00
1.4182e+00
1.4179e+00
1.4176e+00
1.4173e+00
1.4170e+00
1.4167e+00
1.4164e+00
1.4161e+00
1.4158e+00
1.4155e+00
1.4153e+00
1.4150e+00
1.4147e+00
1.4144e+00
1.4141e+00
1.4138e+00
1.4135e+00
1.4132e+00
1.4129e+00
1.4126e+00
1.4123e+00
1.4120e+00
1.4118e+00
1.4115e+00
1.4112e+00
1.4109e+00
1.4106e+00
1.4103e+00
1.4100e+00
1.4097e+00
1.4094e+00
1.4091e+00
1.4088e+00
1.4085e+00
1.4082e+00
1.4079e+00
1.4076e+00
1.4073e+00
1.4070e+00
1.4067e+00
1.4064e+00
1.4061e+00
1.4058e+00
1.4056e+00
1.4053e+00
1.4050e+00
1.4047e+00
1.4044e+00
1.4041e+00
1.4038e+00
1.4035e+00
1.4032e+00
1.4029e+00
1.4026e+00
1.4023e+00
1.4020e+00
1.4017e+00
1.4014e+00
1.4011e+00
1.4008e+00
1.4005e+00
1.4002e+00
1.3999e+00
1.3996e+00
1.3993e+00
1.3990e+00
1.3987e+00
1.3984e+00
1.3981e+00
1.3978e+00
1.3975e+00
1.3972e+00
1.3969e+00
1.3965e+00
1.3962e+00
1.3959e+00
1.3956e+00
1.3953e+00
1.3950e+00
1.3947e+00
1.3944e+00
1.3941e+00
1.3938e+00
1.3935e+00
1.3932e+00
1.3929e+00
1.3926e+00
1.3923e+00
1.3920e+00
1.3917e+00
1.3914e+00
1.3911e+00
1.3907e+00
1.3904e+00
1.3901e+00
1.3898e+00
1.3895e+00
1.3892e+00
1.3889e+00
1.3886e+00
1.3883e+00
1.3880e+00
1.4715e+00
1.4713e+00
1.4711e+00
1.4709e+00
1.4707e+00
1.4705e+00
1.4703e+00
1.4701e+00
1.4699e+00
1.4697e+00
1.4694e+00
1.4692e+00
1.4690e+00
1.4688e+00
1.4686e+00
1.4684e+00
1.4681e+00
1.4679e+00
1.4677e+00
1.4675e+00
1.4672e+00
1.4670e+00
1.4668e+00
1.4665e+00
1.4663e+00
1.4661e+00
1.4658e+00
1.4656e+00
1.4653e+00
1.4639e+00
1.4637e+00
1.4635e+00
1.4632e+00
1.4630e+00
1.4627e+00
1.4625e+00
1.4623e+00
1.4620e+00
1.4618e+00
1.4615e+00
1.4613e+00
1.4610e+00
1.4608e+00
1.4605e+00
1.4603e+00
1.4600e+00
1.4598e+00
1.4595e+00
1.4593e+00
1.4590e+00
1.4588e+00
1.4585e+00
1.4583e+00
1.4580e+00
1.4578e+00
1.4575e+00
1.4573e+00
1.4570e+00
1.4568e+00
1.4565e+00
1.4563e+00
1.4560e+00
1.4557e+00
1.4555e+00
1.4552e+00
1.4550e+00
1.4547e+00
1.4545e+00
1.4542e+00
1.4539e+00
1.4537e+00
1.4534e+00
1.4532e+00
1.4529e+00
1.4526e+00
1.4524e+00
1.4521e+00
1.4518e+00
1.4516e+00
1.4513e+00
1.4511e+00
1.4508e+00
1.4505e+00
1.4503e+00
1.4500e+00
1.4497e+00
1.4495e+00
1.4492e+00
1.4489e+00
1.4487e+00
1.4484e+00
1.4481e+00
1.4479e+00
1.4476e+00
1.4473e+00
1.4471e+00
1.4468e+00
1.4465e+00
1.4463e+00
1.4460e+00
1.4457e+00
1.4455e+00
1.4452e+00
1.4449e+00
1.4447e+00
1.4444e+00
1.4441e+00
1.4439e+00
1.4436e+00
1.4433e+00
1.4430e+00
1.4428e+00
1.4425e+00
1.4422e+00
1.4420e+00
1.4417e+00
1.4414e+00
1.4411e+00
1.4409e+00
1.4406e+00
1.4403e+00
1.4400e+00
1.4398e+00
1.4395e+00
1.4392e+00
1.4390e+00
1.4387e+00
1.4384e+00
1.4381e+00
1.4379e+00
1.4376e+00
1.4373e+00
1.4370e+00
1.4367e+00
1.4365e+00
1.4362e+00
1.4359e+00
1.4356e+00
1.4354e+00
1.4351e+00
1.4348e+00
1.4345e+00
1.4343e+00
1.4340e+00
1.4337e+00
1.4334e+00
1.4331e+00
1.4329e+00
1.4326e+00
1.4323e+00
1.4320e+00
1.4335e+00
1.4332e+00
1.4329e+00
1.4326e+00
1.4324e+00
1.4321e+00
1.4318e+00
1.4315e+00
1.4312e+00
1.4310e+00
1.4307e+00
1.4304e+00
1.4301e+00
1.4298e+00
1.4296e+00
1.4293e+00
1.4290e+00
1.4287e+00
1.4284e+00
1.4281e+00
1.4279e+00
1.4276e+00
1.4273e+00
1.4270e+00
1.4267e+00
1.4265e+00
1.4262e+00
1.4259e+00
1.4256e+00
1.4253e+00
1.4250e+00
1.4248e+00
1.4245e+00
1.4242e+00
1.4239e+00
1.4236e+00
1.4233e+00
1.4231e+00
1.4228e+00
1.4225e+00
1.4222e+00
1.4219e+00
1.4216e+00
1.4213e+00
1.4211e+00
1.4208e+00
1.4205e+00
1.4202e+00
1.4199e+00
1.4196e+00
1.4193e+00
1.4190e+00
1.4188e+00
1.4185e+00
1.4182e+00
1.4179e+00
1.4176e+00
1.4173e+00
1.4170e+00
1.4167e+00
1.4164e+00
1.4162e+00
1.4159e+00
1.4156e+00
1.4153e+00
1.4150e+00
1.4147e+00
1.4144e+00
1.4141e+00
1.4138e+00
1.4135e+00
1.4133e+00
1.4130e+00
1.4127e+00
1.4124e+00
1.4121e+00
1.4118e+00
1.4115e+00
1.4112e+00
1.4109e+00
1.4106e+00
1.4103e+00
1.4100e+00
1.4097e+00
1.4095e+00
1.4092e+00
1.4089e+00
1.4086e+00
1.4083e+00
1.4080e+00
1.4077e+00
1.4074e+00
1.4071e+00
1.4068e+00
1.4065e+00
1.4062e+00
1.4059e+00
1.4056e+00
1.4053e+00
1.4050e+00
1.4047e+00
1.4044e+00
1.4041e+00
1.4038e+00
1.4035e+00
1.4032e+00
1.4029e+00
1.4026e+00
1.4023e+00
1.4020e+00
1.4017e+00
1.4014e+00
1.4011e+00
1.4008e+00
1.4005e+00
1.4002e+00
1.3999e+00
1.3996e+00
1.3993e+00
1.3990e+00
1.3987e+00
1.3984e+00
1.3981e+00
1.3978e+00
1.3975e+00
1.3972e+00
1.3969e+00
1.3966e+00
1.3963e+00
1.3960e+00
1.3957e+00
1.3954e+00
1.3951e+00
1.3948e+00
1.3945e+00
1.3942e+00
1.3939e+00
1.3936e+00
1.3933e+00
1.3930e+00
1.3927e+00
1.3924e+00
1.3921e+00
1.3918e+00
1.3915e+00
1.3911e+00
1.3908e+00
1.3905e+00
1.3902e+00
1.3899e+00
1.3896e+00
1.3893e+00
1.3890e+00
1.3887e+00
1.3884e+00
1.3881e+00
1.3878e+00
1.3875e+00
1.3871e+00
1.3868e+00
1.3865e+00
1.3862e+00
1.3859e+00
1.3856e+00
1.3853e+00
1.3850e+00
1.3847e+00
1.3844e+00
1.3840e+00
1.3837e+00
1.3834e+00
1.3831e+00
1.3828e+00
1.3825e+00
1.3822e+00
1.3819e+00
1.3815e+00
1.3812e+00
1.3809e+00
1.3806e+00
1.3803e+00
1.3800e+00
1.3797e+00
1.3793e+00
1.3790e+00
1.3787e+00
1.3784e+00
1.3781e+00
1.3778e+00
1.3775e+00
1.3771e+00
1.3768e+00
1.3765e+00
1.3762e+00
1.3759e+00
1.3756e+00
1.3752e+00
1.3749e+00
1.3746e+00
1.3743e+00
1.3740e+00
1.3736e+00
1.3733e+00
1.3730e+00
1.3727e+00
1.3724e+00
1.3720e+00
1.3717e+00
1.3714e+00
1.3711e+00
1.4557e+00
1.4555e+00
1.4553e+00
1.4551e+00
1.4549e+00
1.4547e+00
1.4544e+00
1.4542e+00
1.4540e+00
1.4538e+00
1.4536e+00
1.4533e+00
1.4531e+00
1.4529e+00
1.4527e+00
1.4512e+00
1.4510e+00
1.4508e+00
1.4505e+00
1.4503e+00
1.4501e+00
1.4498e+00
1.4496e+00
1.4494e+00
1.4491e+00
1.4489e+00
1.4486e+00
1.4484e+00
1.4481e+00
1.4479e+00
1.4477e+00
1.4474e+00
1.4472e+00
1.4469e+00
1.4467e+00
1.4464e+00
1.4462e+00
1.4459e+00
1.4457e+00
1.4454e+00
1.4452e+00
1.4449e+00
1.4446e+00
1.4444e+00
1.4441e+00
1.4439e+00
1.4436e+00
1.4434e+00
1.4431e+00
1.4428e+00
1.4426e+00
1.4423e+00
1.4421e+00
1.4418e+00
1.4415e+00
1.4413e+00
1.4410e+00
1.4408e+00
1.4405e+00
1.4402e+00
1.4400e+00
1.4397e+00
1.4394e+00
1.4392e+00
1.4389e+00
1.4386e+00
1.4384e+00
1.4381e+00
1.4378e+00
1.4376e+00
1.4373e+00
1.4370e+00
1.4368e+00
1.4365e+00
1.4362e+00
1.4359e+00
1.4357e+00
1.4354e+00
1.4351e+00
1.4349e+00
1.4346e+00
1.4343e+00
1.4340e+00
1.4338e+00
1.4335e+00
1.4332e+00
1.4330e+00
1.4327e+00
1.4324e+00
1.4321e+00
1.4319e+00
1.4316e+00
1.4313e+00
1.4310e+00
1.4308e+00
1.4305e+00
1.4302e+00
1.4299e+00
1.4297e+00
1.4294e+00
1.4291e+00
1.4288e+00
1.4285e+00
1.4283e+00
1.4280e+00
1.4277e+00
1.4274e+00
1.4272e+00
1.4269e+00
1.4266e+00
1.4263e+00
1.4260e+00
1.4258e+00
1.4255e+00
1.4252e+00
1.4249e+00
1.4246e+00
1.4243e+00
1.4241e+00
1.4238e+00
1.4235e+00
1.4232e+00
1.4229e+00
1.4227e+00
1.4224e+00
1.4221e+00
1.4218e+00
1.4215e+00
1.4212e+00
1.4209e+00
1.4207e+00
1.4204e+00
1.4201e+00
1.4198e+00
1.4195e+00
1.4192e+00
1.4190e+00
1.4187e+00
1.4184e+00
1.4181e+00
1.4178e+00
1.4175e+00
1.4172e+00
1.4169e+00
1.4167e+00
1.4164e+00
1.4161e+00
1.4158e+00
1.4155e+00
1.4152e+00
1.4149e+00
1.4146e+00
1.4143e+00
1.4141e+00
1.4138e+00
1.4135e+00
1.4132e+00
1.4129e+00
1.4126e+00
1.4123e+00
1.4120e+00
1.4117e+00
1.4114e+00
1.4111e+00
1.4109e+00
1.4106e+00
1.4103e+00
1.4100e+00
1.4097e+00
1.4094e+00
1.4091e+00
1.4088e+00
1.4085e+00
1.4082e+00
1.4079e+00
1.4076e+00
1.4073e+00
1.4070e+00
1.4067e+00
1.4065e+00
1.4062e+00
1.4059e+00
1.4056e+00
1.4053e+00
1.4050e+00
1.4047e+00
1.4044e+00
1.4041e+00
1.4038e+00
1.4035e+00
1.4032e+00
1.4029e+00
1.4026e+00
1.4023e+00
1.4020e+00
1.4017e+00
1.4014e+00
1.4011e+00
1.4008e+00
1.4005e+00
1.4002e+00
1.3999e+00
1.3996e+00
1.3993e+00
1.3990e+00
1.3987e+00
1.3984e+00
1.3981e+00
1.3978e+00
1.3975e+00
1.3972e+00
1.3969e+00
1.3966e+00
1.3963e+00
1.3960e+00
1.3957e+00
1.3954e+00
1.3951e+00
1.3948e+00
1.3945e+00
1.3942e+00
1.3939e+00
1.3936e+00
1.3933e+00
1.3930e+00
1.3926e+00
1.3923e+00
1.3920e+00
1.3917e+00
1.3914e+00
1.3911e+00
1.3908e+00
1.3905e+00
1.3902e+00
1.3899e+00
1.3896e+00
1.3893e+00
1.3890e+00
1.3887e+00
1.3884e+00
1.3880e+00
1.3877e+00
1.3874e+00
1.3871e+00
1.3868e+00
1.3865e+00
1.3862e+00
1.3859e+00
1.3873e+00
1.3870e+00
1.3867e+00
1.3864e+00
1.3861e+00
1.3858e+00
1.3854e+00
1.3851e+00
1.3848e+00
1.3845e+00
1.3842e+00
1.3839e+00
1.3836e+00
1.3833e+00
1.3830e+00
1.3826e+00
1.3823e+00
1.3820e+00
1.3817e+00
1.3814e+00
1.3811e+00
1.3808e+00
1.3805e+00
1.3801e+00
1.3798e+00
1.3795e+00
1.3792e+00
1.3789e+00
1.3786e+00
1.3783e+00
1.3779e+00
1.3776e+00
1.3773e+00
1.3770e+00
1.3767e+00
1.3764e+00
1.3761e+00
1.3757e+00
1.3754e+00
1.3751e+00
1.3748e+00
1.3745e+00
1.3741e+00
1.3738e+00
1.3735e+00
1.3732e+00
1.3729e+00
1.3726e+00
1.3722e+00
1.3719e+00
1.3716e+00
1.3713e+00
1.3710e+00
1.3706e+00
1.3703e+00
1.3700e+00
1.3697e+00
1.3694e+00
1.3690e+00
1.3687e+00
1.3684e+00
1.3681e+00
1.3677e+00
1.3674e+00
1.3671e+00
1.3668e+00
1.3664e+00
1.3661e+00
1.3658e+00
1.3655e+00
1.3651e+00
1.3648e+00
1.3645e+00
1.3642e+00
1.3638e+00
1.3635e+00
1.3632e+00
1.3629e+00
1.3625e+00
1.3622e+00
1.3619e+00
1.3616e+00
1.3612e+00
1.3609e+00
1.3606e+00
1.3602e+00
1.3599e+00
1.3596e+00
1.3593e+00
1.3589e+00
1.3586e+00
1.3583e+00
1.3579e+00
1.3576e+00
1.3573e+00
1.3569e+00
1.3566e+00
1.3563e+00
1.3559e+00
1.3417e+00
1.3413e+00
1.3408e+00
1.3404e+00
1.3365e+00
1.3360e+00
1.3356e+00
1.3352e+00
1.3347e+00
1.3343e+00
1.3338e+00
1.3334e+00
1.3330e+00
1.3325e+00
1.4394e+00
1.4392e+00
1.4377e+00
1.4375e+00
1.4373e+00
1.4371e+00
1.4368e+00
1.4366e+00
1.4364e+00
1.4362e+00
1.4360e+00
1.4357e+00
1.4355e+00
1.4353e+00
1.4350e+00
1.4348e+00
1.4345e+00
1.4343e+00
1.4341e+00
1.4338e+00
1.4336e+00
1.4333e+00
1.4331e+00
1.4328e+00
1.4326e+00
1.4323e+00
1.4321e+00
1.4318e+00
1.4316e+00
1.4313e+00
1.4311e+00
1.4308e+00
1.4306e+00
1.4303e+00
1.4301e+00
1.4298e+00
1.4295e+00
1.4293e+00
1.4290e+00
1.4288e+00
1.4285e+00
1.4282e+00
1.4280e+00
1.4277e+00
1.4274e+00
1.4272e+00
1.4269e+00
1.4266e+00
1.4264e+00
1.4261e+00
1.4258e+00
1.4256e+00
1.4253e+00
1.4250e+00
1.4248e+00
1.4245e+00
1.4242e+00
1.4239e+00
1.4237e+00
1.4234e+00
1.4231e+00
1.4228e+00
1.4226e+00
1.4223e+00
1.4220e+00
1.4217e+00
1.4215e+00
1.4212e+00
1.4209e+00
1.4206e+00
1.4204e+00
1.4201e+00
1.4198e+00
1.4195e+00
1.4193e+00
1.4190e+00
1.4187e+00
1.4184e+00
1.4181e+00
1.4179e+00
1.4176e+00
1.4173e+00
1.4170e+00
1.4167e+00
1.4164e+00
1.4162e+00
1.4159e+00
1.4156e+00
1.4153e+00
1.4150e+00
1.4147e+00
1.4145e+00
1.4142e+00
1.4139e+00
1.4136e+00
1.4133e+00
1.4130e+00
1.4127e+00
1.4125e+00
1.4122e+00
1.4119e+00
1.4116e+00
1.4113e+00
1.4110e+00
1.4107e+00
1.4104e+00
1.4102e+00
1.4099e+00
1.4096e+00
1.4093e+00
1.4090e+00
1.4087e+00
1.4084e+00
1.4081e+00
1.4078e+00
1.4075e+00
1.4073e+00
1.4070e+00
1.4067e+00
1.4064e+00
1.4061e+00
1.4058e+00
1.4055e+00
1.4052e+00
1.4049e+00
1.4046e+00
1.4043e+00
1.4040e+00
1.4037e+00
1.4034e+00
1.4031e+00
1.4028e+00
1.4026e+00
1.4023e+00
1.4020e+00
1.4017e+00
1.4014e+00
1.4011e+00
1.4008e+00
1.4005e+00
1.4002e+00
1.3999e+00
1.3996e+00
1.3993e+00
1.3990e+00
1.3987e+00
1.3984e+00
1.3981e+00
1.3978e+00
1.3975e+00
1.3972e+00
1.3969e+00
1.3966e+00
1.3963e+00
1.3960e+00
1.3957e+00
1.3954e+00
1.3951e+00
1.3948e+00
1.3945e+00
1.3942e+00
1.3939e+00
1.3936e+00
1.3933e+00
1.3930e+00
1.3927e+00
1.3924e+00
1.3921e+00
1.3918e+00
1.3915e+00
1.3911e+00
1.3908e+00
1.3905e+00
1.3902e+00
1.3899e+00
1.3896e+00
1.3893e+00
1.3890e+00
1.3887e+00
1.3884e+00
1.3881e+00
1.3878e+00
1.3875e+00
1.3872e+00
1.3869e+00
1.3866e+00
1.3862e+00
1.3859e+00
1.3856e+00
1.3853e+00
1.3850e+00
1.3847e+00
1.3844e+00
1.3841e+00
1.3838e+00
1.3835e+00
1.3831e+00
1.3828e+00
1.3825e+00
1.3822e+00
1.3819e+00
1.3816e+00
1.3813e+00
1.3810e+00
1.3807e+00
1.3803e+00
1.3800e+00
1.3797e+00
1.3794e+00
1.3791e+00
1.3788e+00
1.3785e+00
1.3781e+00
1.3778e+00
1.3775e+00
1.3772e+00
1.3769e+00
1.3766e+00
1.3763e+00
1.3759e+00
1.3756e+00
1.3753e+00
1.3750e+00
1.3747e+00
1.3744e+00
1.3740e+00
1.3737e+00
1.3734e+00
1.3731e+00
1.3728e+00
1.3724e+00
1.3721e+00
1.3718e+00
1.3715e+00
1.3712e+00
1.3708e+00
1.3705e+00
1.3702e+00
1.3699e+00
1.3696e+00
1.3692e+00
1.3689e+00
1.3686e+00
1.3683e+00
1.3680e+00
1.3676e+00
1.3673e+00
1.3670e+00
1.3667e+00
1.3663e+00
1.3660e+00
1.3657e+00
1.3654e+00
1.3650e+00
1.3647e+00
1.3644e+00
1.3641e+00
1.3637e+00
1.3634e+00
1.3631e+00
1.3628e+00
1.3624e+00
1.3621e+00
1.3618e+00
1.3615e+00
1.3611e+00
1.3608e+00
1.3605e+00
1.3601e+00
1.3598e+00
1.3595e+00
1.3592e+00
1.3588e+00
1.3585e+00
1.3582e+00
1.3578e+00
1.3575e+00
1.3572e+00
1.3568e+00
1.3565e+00
1.3562e+00
1.3558e+00
1.3555e+00
1.3552e+00
1.3548e+00
1.3545e+00
1.3542e+00
1.3538e+00
1.3535e+00
1.3532e+00
1.3528e+00
1.3525e+00
1.3522e+00
1.3518e+00
1.3515e+00
1.3512e+00
1.3508e+00
1.3505e+00
1.3502e+00
1.3498e+00
1.3495e+00
1.3491e+00
1.3488e+00
1.3485e+00
1.3481e+00
1.3478e+00
1.3475e+00
1.3471e+00
1.3468e+00
1.3464e+00
1.3461e+00
1.3458e+00
1.3454e+00
1.3451e+00
1.3447e+00
1.3444e+00
1.3440e+00
1.3437e+00
1.3434e+00
1.3430e+00
1.3427e+00
1.3423e+00
1.3420e+00
1.3416e+00
1.3413e+00
1.3410e+00
1.3250e+00
1.3246e+00
1.3241e+00
1.3237e+00
1.3232e+00
1.3228e+00
1.3223e+00
1.3219e+00
1.3214e+00
1.3209e+00
1.3205e+00
1.3200e+00
1.3196e+00
1.3191e+00
1.3187e+00
1.3182e+00
1.3177e+00
1.3173e+00
1.3168e+00
1.3164e+00
1.3159e+00
1.3154e+00
1.3150e+00
1.3145e+00
1.3140e+00
1.3136e+00
1.3131e+00
1.3126e+00
1.3122e+00
1.3117e+00
1.3112e+00
1.3108e+00
1.3103e+00
1.3098e+00
1.3094e+00
1.4232e+00
1.4230e+00
1.4227e+00
1.4225e+00
1.4223e+00
1.4221e+00
1.4218e+00
1.4216e+00
1.4214e+00
1.4212e+00
1.4209e+00
1.4207e+00
1.4204e+00
1.4202e+00
1.4200e+00
1.4197e+00
1.4195e+00
1.4192e+00
1.4190e+00
1.4187e+00
1.4185e+00
1.4182e+00
1.4180e+00
1.4177e+00
1.4174e+00
1.4172e+00
1.4169e+00
1.4167e+00
1.4164e+00
1.4161e+00
1.4159e+00
1.4156e+00
1.4154e+00
1.4151e+00
1.4148e+00
1.4146e+00
1.4143e+00
1.4140e+00
1.4137e+00
1.4135e+00
1.4132e+00
1.4129e+00
1.4127e+00
1.4124e+00
1.4121e+00
1.4118e+00
1.4116e+00
1.4113e+00
1.4110e+00
1.4107e+00
1.4105e+00
1.4102e+00
1.4099e+00
1.4096e+00
1.4093e+00
1.4091e+00
1.4088e+00
1.4085e+00
1.4082e+00
1.4079e+00
1.4077e+00
1.4074e+00
1.4071e+00
1.4068e+00
1.4065e+00
1.4062e+00
1.4060e+00
1.4057e+00
1.4054e+00
1.4051e+00
1.4048e+00
1.4045e+00
1.4042e+00
1.4040e+00
1.4037e+00
1.4034e+00
1.4031e+00
1.4028e+00
1.4025e+00
1.4022e+00
1.4019e+00
1.4016e+00
1.4013e+00
1.4011e+00
1.4008e+00
1.4005e+00
1.4002e+00
1.3999e+00
1.3996e+00
1.3993e+00
1.3990e+00
1.3987e+00
1.3984e+00
1.3981e+00
1.3978e+00
1.3975e+00
1.3972e+00
1.3969e+00
1.3966e+00
1.3963e+00
1.3960e+00
1.3958e+00
1.3955e+00
1.3952e+00
1.3949e+00
1.3946e+00
1.3943e+00
1.3940e+00
1.3937e+00
1.3934e+00
1.3931e+00
1.3928e+00
1.3925e+00
1.3922e+00
1.3919e+00
1.3916e+00
1.3913e+00
1.3910e+00
1.3907e+00
1.3904e+00
1.3901e+00
1.3897e+00
1.3894e+00
1.3891e+00
1.3888e+00
1.3885e+00
1.3882e+00
1.3879e+00
1.3876e+00
1.3873e+00
1.3870e+00
1.3867e+00
1.3864e+00
1.3861e+00
1.3858e+00
1.3855e+00
1.3852e+00
1.3849e+00
1.3846e+00
1.3843e+00
1.3839e+00
1.3836e+00
1.3833e+00
1.3830e+00
1.3827e+00
1.3824e+00
1.3821e+00
1.3818e+00
1.3815e+00
1.3812e+00
1.3809e+00
1.3805e+00
1.3802e+00
1.3799e+00
1.3796e+00
1.3793e+00
1.3790e+00
1.3787e+00
1.3784e+00
1.3780e+00
1.3777e+00
1.3774e+00
1.3771e+00
1.3768e+00
1.3765e+00
1.3762e+00
1.3758e+00
1.3755e+00
1.3752e+00
1.3749e+00
1.3746e+00
1.3743e+00