<?xml version="1.0"?>
<VTKFile type="StructuredGrid" version="0.1">
  <StructuredGrid WholeExtent="16 32 0 16 0 16">
    <Piece Extent="16 32 0 16 0 16">
      <PointData Scalars="temperature" Vectors="velocity">
        <DataArray type="Float32" Name="temperature" format="ascii">
5.002910e-01
4.689463e-01
4.376772e-01
4.064041e-01
3.751333e-01
3.438645e-01
3.125979e-01
2.813321e-01
2.500691e-01
2.188054e-01
1.875445e-01
1.562835e-01
1.250237e-01
9.376477e-02
6.250619e-02
3.124652e-02
0.000000e+00
5.002498e-01
4.689101e-01
4.376454e-01
4.063762e-01
3.751090e-01
3.438434e-01
3.125796e-01
2.813165e-01
2.500557e-01
2.187943e-01
1.875352e-01
1.562760e-01
1.250180e-01
9.376058e-02
6.250350e-02
3.124523e-02
0.000000e+00
5.001404e-01
4.688137e-01
4.375608e-01
4.063020e-01
3.750442e-01
3.437871e-01
3.125308e-01
2.812749e-01
2.500198e-01
2.187646e-01
1.875103e-01
1.562560e-01
1.250025e-01
9.374917e-02
6.249609e-02
3.124156e-02
0.000000e+00
4.999995e-01
4.686897e-01
4.374519e-01
4.062065e-01
3.749608e-01
3.437146e-01
3.124681e-01
2.812213e-01
2.499738e-01
2.187264e-01
1.874782e-01
1.562303e-01
1.249826e-01
9.373447e-02
6.248657e-02
3.123685e-02
0.000000e+00
4.998745e-01
4.685796e-01
4.373552e-01
4.061217e-01
3.748868e-01
3.436503e-01
3.124124e-01
2.811738e-01
2.499328e-01
2.186925e-01
1.874496e-01
1.562074e-01
1.249650e-01
9.372141e-02
6.247811e-02
3.123265e-02
0.000000e+00
4.998072e-01
4.685203e-01
4.373031e-01
4.060760e-01
3.748470e-01
3.436156e-01
3.123824e-01
2.811481e-01
2.499107e-01
2.186741e-01
1.874342e-01
1.561950e-01
1.249554e-01
9.371435e-02
6.247354e-02
3.123039e-02
0.000000e+00
4.998200e-01
4.685315e-01
4.373129e-01
4.060846e-01
3.748544e-01
3.436220e-01
3.123879e-01
2.811528e-01
2.499148e-01
2.186775e-01
1.874370e-01
1.561973e-01
1.249571e-01
9.371566e-02
6.247438e-02
3.123081e-02
0.000000e+00
4.999082e-01
4.686092e-01
4.373811e-01
4.061443e-01
3.749065e-01
3.436673e-01
3.124271e-01
2.811863e-01
2.499436e-01
2.187014e-01
1.874571e-01
1.562134e-01
1.249696e-01
9.372488e-02
6.248034e-02
3.123379e-02
0.000000e+00
5.000423e-01
4.687273e-01
4.374847e-01
4.062353e-01
3.749858e-01
3.437364e-01
3.124869e-01
2.812374e-01
2.499875e-01
2.187379e-01
1.874877e-01
1.562380e-01
1.249886e-01
9.373893e-02
6.248944e-02
3.123832e-02
0.000000e+00
5.001775e-01
4.688464e-01
4.375894e-01
4.063272e-01
3.750661e-01
3.438063e-01
3.125474e-01
2.812892e-01
2.500321e-01
2.187749e-01
1.875188e-01
1.562630e-01
1.250079e-01
9.375320e-02
6.249868e-02
3.124292e-02
0.000000e+00
5.002694e-01
4.689276e-01
4.376609e-01
4.063901e-01
3.751212e-01
3.438543e-01
3.125891e-01
2.813249e-01
2.500629e-01
2.188005e-01
1.875404e-01
1.562803e-01
1.250213e-01
9.376310e-02
6.250509e-02
3.124610e-02
0.000000e+00
5.002888e-01
4.689452e-01
4.376767e-01
4.064043e-01
3.751338e-01
3.438655e-01
3.125990e-01
2.813334e-01
2.500704e-01
2.188068e-01
1.875457e-01
1.562847e-01
1.250246e-01
9.376560e-02
6.250671e-02
3.124691e-02
0.000000e+00
5.002314e-01
4.688952e-01
4.376334e-01
4.063668e-01
3.751014e-01
3.438376e-01
3.125751e-01
2.813132e-01
2.500531e-01
2.187926e-01
1.875338e-01
1.562752e-01
1.250173e-01
9.376024e-02
6.250324e-02
3.124520e-02
0.000000e+00
5.001188e-01
4.687968e-01
4.375476e-01
4.062921e-01
3.750366e-01
3.437816e-01
3.125269e-01
2.812723e-01
2.500180e-01
2.187635e-01
1.875095e-01
1.562557e-01
1.250024e-01
9.374918e-02
6.249610e-02
3.124165e-02
0.000000e+00
4.999907e-01
4.686847e-01
4.374497e-01
4.062066e-01
3.749625e-01
3.437174e-01
3.124715e-01
2.812252e-01
2.499776e-01
2.187301e-01
1.874815e-01
1.562333e-01
1.249851e-01
9.373644e-02
6.248786e-02
3.123758e-02
0.000000e+00
4.998909e-01
4.685973e-01
4.373734e-01
4.061400e-01
3.749045e-01
3.436672e-01
3.124282e-01
2.811883e-01
2.499460e-01
2.187040e-01
1.874596e-01
1.562158e-01
1.249715e-01
9.372646e-02
6.248140e-02
3.123439e-02
0.000000e+00
4.998528e-01
4.685640e-01
4.373443e-01
4.061145e-01
3.748824e-01
3.436479e-01
3.124116e-01
2.811741e-01
2.499338e-01
2.186939e-01
1.874511e-01
1.562089e-01
1.249663e-01
9.372251e-02
6.247878e-02
3.123301e-02
0.000000e+00
5.002728e-01
4.689304e-01
4.376632e-01
4.063919e-01
3.751226e-01
3.438553e-01
3.125900e-01
2.813253e-01
2.500633e-01
2.188006e-01
1.875405e-01
1.562802e-01
1.250212e-01
9.376293e-02
6.250499e-02
3.124592e-02
0.000000e+00
5.002348e-01
4.688969e-01
4.376338e-01
4.063661e-01
3.751001e-01
3.438358e-01
3.125730e-01
2.813109e-01
2.500509e-01
2.187903e-01
1.875319e-01
1.562734e-01
1.250159e-01
9.375906e-02
6.250250e-02
3.124474e-02
0.000000e+00
5.001336e-01
4.688078e-01
4.375556e-01
4.062975e-01
3.750403e-01
3.437837e-01
3.125280e-01
2.812724e-01
2.500177e-01
2.187629e-01
1.875088e-01
1.562549e-01
1.250016e-01
9.374852e-02
6.249566e-02
3.124136e-02
0.000000e+00
5.000035e-01
4.686933e-01
4.374551e-01
4.062093e-01
3.749633e-01
3.437168e-01
3.124700e-01
2.812229e-01
2.499752e-01
2.187276e-01
1.874791e-01
1.562311e-01
1.249832e-01
9.373496e-02
6.248689e-02
3.123704e-02
0.000000e+00
4.998880e-01
4.685916e-01
4.373658e-01
4.061311e-01
3.748950e-01
3.436574e-01
3.124186e-01
2.811790e-01
2.499374e-01
2.186962e-01
1.874528e-01
1.562099e-01
1.249669e-01
9.372292e-02
6.247911e-02
3.123319e-02
0.000000e+00
4.998258e-01
4.685369e-01
4.373178e-01
4.060889e-01
3.748582e-01
3.436253e-01
3.123908e-01
2.811553e-01
2.499169e-01
2.186793e-01
1.874385e-01
1.561985e-01
1.249581e-01
9.371641e-02
6.247489e-02
3.123111e-02
0.000000e+00
4.998376e-01
4.685472e-01
4.373268e-01
4.060968e-01
3.748651e-01
3.436313e-01
3.123959e-01
2.811597e-01
2.499207e-01
2.186824e-01
1.874411e-01
1.562006e-01
1.249597e-01
9.371761e-02
6.247566e-02
3.123149e-02
0.000000e+00
4.999191e-01
4.686189e-01
4.373897e-01
4.061519e-01
3.749131e-01
3.436731e-01
3.124321e-01
2.811906e-01
2.499473e-01
2.187045e-01
1.874597e-01
1.562155e-01
1.249712e-01
9.372610e-02
6.248115e-02
3.123422e-02
0.000000e+00
5.000429e-01
4.687279e-01
4.374853e-01
4.062358e-01
3.749863e-01
3.437368e-01
3.124873e-01
2.812378e-01
2.499879e-01
2.187382e-01
1.874880e-01
1.562382e-01
1.249887e-01
9.373904e-02
6.248952e-02
3.123836e-02
0.000000e+00
5.001678e-01
4.688379e-01
4.375819e-01
4.063207e-01
3.750604e-01
3.438013e-01
3.125432e-01
2.812856e-01
2.500290e-01
2.187723e-01
1.875167e-01
1.562613e-01
1.250065e-01
9.375219e-02
6.249802e-02
3.124257e-02
0.000000e+00
5.002527e-01
4.689128e-01
4.376479e-01
4.063787e-01
3.751112e-01
3.438456e-01
3.125817e-01
2.813185e-01
2.500574e-01
2.187960e-01
1.875366e-01
1.562773e-01
1.250189e-01
9.376131e-02
6.250392e-02
3.124549e-02
0.000000e+00
5.002706e-01
4.689291e-01
4.376625e-01
4.063918e-01
3.751229e-01
3.438560e-01
3.125908e-01
2.813264e-01
2.500643e-01
2.188018e-01
1.875415e-01
1.562813e-01
1.250220e-01
9.376362e-02
6.250541e-02
3.124623e-02
0.000000e+00
5.002176e-01
4.688830e-01
4.376226e-01
4.063572e-01
3.750930e-01
3.438303e-01
3.125688e-01
2.813078e-01
2.500484e-01
2.187886e-01
1.875305e-01
1.562725e-01
1.250153e-01
9.375867e-02
6.250221e-02
3.124465e-02
0.000000e+00
5.001136e-01
4.687921e-01
4.375434e-01
4.062882e-01
3.750332e-01
3.437786e-01
3.125242e-01
2.812699e-01
2.500160e-01
2.187618e-01
1.875081e-01
1.562545e-01
1.250014e-01
9.374847e-02
6.249563e-02
3.124139e-02
0.000000e+00
4.999952e-01
4.686885e-01
4.374530e-01
4.062093e-01
3.749647e-01
3.437193e-01
3.124731e-01
2.812264e-01
2.499787e-01
2.187310e-01
1.874822e-01
1.562338e-01
1.249855e-01
9.373671e-02
6.248803e-02
3.123764e-02
0.000000e+00
4.999030e-01
4.686078e-01
4.373824e-01
4.061477e-01
3.749111e-01
3.436729e-01
3.124330e-01
2.811923e-01
2.499494e-01
2.187068e-01
1.874619e-01
1.562176e-01
1.249730e-01
9.372750e-02
6.248207e-02
3.123471e-02
0.000000e+00
4.998678e-01
4.685769e-01
4.373554e-01
4.061241e-01
3.748906e-01
3.436551e-01
3.124176e-01
2.811792e-01
2.499381e-01
2.186975e-01
1.874541e-01
1.562113e-01
1.249681e-01
9.372383e-02
6.247964e-02
3.123343e-02
0.000000e+00
5.002209e-01
4.688848e-01
4.376233e-01
4.063569e-01
3.750922e-01
3.438289e-01
3.125672e-01
2.813059e-01
2.500466e-01
2.187868e-01
1.875289e-01
1.562710e-01
1.250141e-01
9.375766e-02
6.250156e-02
3.124423e-02
0.000000e+00
5.001918e-01
4.688592e-01
4.376008e-01
4.063372e-01
3.750750e-01
3.438140e-01
3.125542e-01
2.812949e-01
2.500371e-01
2.187790e-01
1.875223e-01
1.562657e-01
1.250100e-01
9.375471e-02
6.249966e-02
3.124335e-02
0.000000e+00
5.001143e-01
4.687910e-01
4.375409e-01
4.062847e-01
3.750291e-01
3.437741e-01
3.125197e-01
2.812654e-01
2.500117e-01
2.187579e-01
1.875046e-01
1.562515e-01
1.249990e-01
9.374664e-02
6.249441e-02
3.124077e-02
0.000000e+00
5.000147e-01
4.687033e-01
4.374640e-01
4.062172e-01
3.749702e-01
3.437229e-01
3.124753e-01
2.812275e-01
2.499791e-01
2.187309e-01
1.874819e-01
1.562333e-01
1.249850e-01
9.373629e-02
6.248774e-02
3.123750e-02
0.000000e+00
4.999264e-01
4.686256e-01
4.373958e-01
4.061575e-01
3.749181e-01
3.436774e-01
3.124360e-01
2.811939e-01
2.499502e-01
2.187069e-01
1.874617e-01
1.562171e-01
1.249725e-01
9.372710e-02
6.248182e-02
3.123459e-02
0.000000e+00
4.998789e-01
4.685838e-01
4.373590e-01
4.061252e-01
3.748900e-01
3.436530e-01
3.124147e-01
2.811757e-01
2.499345e-01
2.186939e-01
1.874508e-01
1.562084e-01
1.249658e-01
9.372214e-02
6.247861e-02
3.123300e-02
0.000000e+00
4.998879e-01
4.685917e-01
4.373659e-01
4.061312e-01
3.748952e-01
3.436575e-01
3.124186e-01
2.811791e-01
2.499374e-01
2.186963e-01
1.874528e-01
1.562100e-01
1.249670e-01
9.372304e-02
6.247919e-02
3.123328e-02
0.000000e+00
4.999502e-01
4.686464e-01
4.374139e-01
4.061733e-01
3.749319e-01
3.436894e-01
3.124463e-01
2.812027e-01
2.499577e-01
2.187132e-01
1.874670e-01
1.562214e-01
1.249758e-01
9.372950e-02
6.248337e-02
3.123534e-02
0.000000e+00
5.000448e-01
4.687296e-01
4.374870e-01
4.062374e-01
3.749877e-01
3.437381e-01
3.124885e-01
2.812388e-01
2.499888e-01
2.187389e-01
1.874886e-01
1.562388e-01
1.249892e-01
9.373936e-02
6.248973e-02
3.123847e-02
0.000000e+00
5.001403e-01
4.688137e-01
4.375608e-01
4.063021e-01
3.750443e-01
3.437874e-01
3.125312e-01
2.812753e-01
2.500203e-01
2.187651e-01
1.875106e-01
1.562564e-01
1.250028e-01
9.374938e-02
6.249620e-02
3.124165e-02
0.000000e+00
5.002052e-01
4.688709e-01
4.376112e-01
4.063464e-01
3.750831e-01
3.438212e-01
3.125606e-01
2.813005e-01
2.500420e-01
2.187831e-01
1.875258e-01
1.562686e-01
1.250122e-01
9.375632e-02
6.250068e-02
3.124385e-02
0.000000e+00
5.002189e-01
4.688833e-01
4.376223e-01
4.063564e-01
3.750920e-01
3.438291e-01
3.125676e-01
2.813066e-01
2.500473e-01
2.187876e-01
1.875296e-01
1.562717e-01
1.250146e-01
9.375807e-02
6.250180e-02
3.124440e-02
0.000000e+00
5.001783e-01
4.688481e-01
4.375918e-01
4.063300e-01
3.750692e-01
3.438095e-01
3.125507e-01
2.812923e-01
2.500351e-01
2.187775e-01
1.875212e-01
1.562650e-01
1.250094e-01
9.375429e-02
6.249936e-02
3.124319e-02
0.000000e+00
5.000987e-01
4.687786e-01
4.375313e-01
4.062773e-01
3.750235e-01
3.437700e-01
3.125167e-01
2.812633e-01
2.500102e-01
2.187570e-01
1.875040e-01
1.562512e-01
1.249988e-01
9.374651e-02
6.249435e-02
3.124072e-02
0.000000e+00
5.000081e-01
4.686994e-01
4.374621e-01
4.062170e-01
3.749711e-01
3.437246e-01
3.124775e-01
2.812300e-01
2.499817e-01
2.187334e-01
1.874842e-01
1.562354e-01
1.249866e-01
9.373752e-02
6.248856e-02
3.123788e-02
0.000000e+00
4.999374e-01
4.686375e-01
4.374080e-01
4.061698e-01
3.749301e-01
3.436891e-01
3.124468e-01
2.812039e-01
2.499593e-01
2.187149e-01
1.874686e-01
1.562229e-01
1.249770e-01
9.373047e-02
6.248400e-02
3.123565e-02
0.000000e+00
4.999105e-01
4.686139e-01
4.373873e-01
4.061517e-01
3.749143e-01
3.436754e-01
3.124350e-01
2.811939e-01
2.499506e-01
2.187077e-01
1.874626e-01
1.562180e-01
1.249732e-01
9.372763e-02
6.248209e-02
3.123463e-02
0.000000e+00
5.001430e-01
4.688164e-01
4.375634e-01
4.063045e-01
3.750465e-01
3.437893e-01
3.125329e-01
2.812767e-01
2.500215e-01
2.187660e-01
1.875115e-01
1.562570e-01
1.250033e-01
9.374972e-02
6.249641e-02
3.124169e-02
0.000000e+00
5.001273e-01
4.688026e-01
4.375512e-01
4.062938e-01
3.750372e-01
3.437812e-01
3.125259e-01
2.812708e-01
2.500164e-01
2.187618e-01
1.875079e-01
1.562542e-01
1.250011e-01
9.374816e-02
6.249541e-02
3.124125e-02
0.000000e+00
5.000854e-01
4.687656e-01
4.375188e-01
4.062654e-01
3.750124e-01
3.437596e-01
3.125072e-01
2.812548e-01
2.500026e-01
2.187504e-01
1.874983e-01
1.562465e-01
1.249951e-01
9.374378e-02
6.249255e-02
3.123985e-02
0.000000e+00
5.000315e-01
4.687182e-01
4.374771e-01
4.062289e-01
3.749805e-01
3.437319e-01
3.124831e-01
2.812343e-01
2.499850e-01
2.187358e-01
1.874860e-01
1.562367e-01
1.249875e-01
9.373819e-02
6.248895e-02
3.123809e-02
0.000000e+00
4.999837e-01
4.686762e-01
4.374402e-01
4.061965e-01
3.749523e-01
3.437073e-01
3.124619e-01
2.812161e-01
2.499693e-01
2.187228e-01
1.874751e-01
1.562279e-01
1.249808e-01
9.373324e-02
6.248576e-02
3.123652e-02
0.000000e+00
4.999580e-01
4.686535e-01
4.374204e-01
4.061791e-01
3.749371e-01
3.436941e-01
3.124504e-01
2.812062e-01
2.499608e-01
2.187158e-01
1.874692e-01
1.562232e-01
1.249772e-01
9.373056e-02
6.248403e-02
3.123565e-02
0.000000e+00
4.999628e-01
4.686578e-01
4.374241e-01
4.061824e-01
3.749399e-01
3.436965e-01
3.124525e-01
2.812080e-01
2.499624e-01
2.187170e-01
1.874703e-01
1.562240e-01
1.249778e-01
9.373104e-02
6.248434e-02
3.123581e-02
0.000000e+00
4.999965e-01
4.686873e-01
4.374500e-01
4.062051e-01
3.749597e-01
3.437138e-01
3.124674e-01
2.812208e-01
2.499734e-01
2.187262e-01
1.874779e-01
1.562302e-01
1.249826e-01
9.373452e-02
6.248659e-02
3.123692e-02
0.000000e+00
5.000476e-01
4.687323e-01
4.374895e-01
4.062397e-01
3.749899e-01
3.437400e-01
3.124902e-01
2.812403e-01
2.499901e-01
2.187401e-01
1.874896e-01
1.562396e-01
1.249898e-01
9.373983e-02
6.249003e-02
3.123861e-02
0.000000e+00
5.000992e-01
4.687777e-01
4.375293e-01
4.062746e-01
3.750204e-01
3.437667e-01
3.125133e-01
2.812601e-01
2.500072e-01
2.187542e-01
1.875015e-01
1.562491e-01
1.249971e-01
9.374522e-02
6.249351e-02
3.124032e-02
0.000000e+00
5.001342e-01
4.688086e-01
4.375566e-01
4.062986e-01
3.750414e-01
3.437849e-01
3.125292e-01
2.812737e-01
2.500189e-01
2.187640e-01
1.875097e-01
1.562557e-01
1.250022e-01
9.374896e-02
6.249593e-02
3.124151e-02
0.000000e+00
5.001416e-01
4.688153e-01
4.375626e-01
4.063040e-01
3.750462e-01
3.437892e-01
3.125330e-01
2.812770e-01
2.500218e-01
2.187664e-01
1.875118e-01
1.562573e-01
1.250035e-01
9.374989e-02
6.249653e-02
3.124180e-02
0.000000e+00
5.001197e-01
4.687963e-01
4.375461e-01
4.062897e-01
3.750339e-01
3.437786e-01
3.125238e-01
2.812692e-01
2.500152e-01
2.187609e-01
1.875072e-01
1.562537e-01
1.250007e-01
9.374785e-02
6.249521e-02
3.124115e-02
0.000000e+00
5.000766e-01
4.687586e-01
4.375133e-01
4.062612e-01
3.750091e-01
3.437572e-01
3.125054e-01
2.812536e-01
2.500017e-01
2.187498e-01
1.874979e-01
1.562463e-01
1.249950e-01
9.374365e-02
6.249250e-02
3.123982e-02
0.000000e+00
5.000275e-01
4.687157e-01
4.374758e-01
4.062285e-01
3.749808e-01
3.437326e-01
3.124842e-01
2.812355e-01
2.499862e-01
2.187370e-01
1.874872e-01
1.562377e-01
1.249884e-01
9.373879e-02
6.248938e-02
3.123829e-02
0.000000e+00
4.999893e-01
4.686822e-01
4.374466e-01
4.062029e-01
3.749585e-01
3.437134e-01
3.124675e-01
2.812214e-01
2.499741e-01
2.187270e-01
1.874787e-01
1.562309e-01
1.249832e-01
9.373499e-02
6.248691e-02
3.123708e-02
0.000000e+00
4.999746e-01
4.686694e-01
4.374353e-01
4.061931e-01
3.749499e-01
3.437059e-01
3.124611e-01
2.812158e-01
2.499693e-01
2.187230e-01
1.874754e-01
1.562282e-01
1.249811e-01
9.373337e-02
6.248580e-02
3.123644e-02
0.000000e+00
5.000512e-01
4.687357e-01
4.374927e-01
4.062426e-01
3.749926e-01
3.437424e-01
3.124924e-01
2.812422e-01
2.499918e-01
2.187415e-01
1.874908e-01
1.562405e-01
1.249905e-01
9.374030e-02
6.249032e-02
3.123869e-02
0.000000e+00
5.000512e-01
4.687357e-01
4.374927e-01
4.062427e-01
3.749926e-01
3.437425e-01
3.124925e-01
2.812423e-01
2.499919e-01
2.187416e-01
1.874909e-01
1.562406e-01
1.249906e-01
9.374040e-02
6.249040e-02
3.123879e-02
0.000000e+00
5.000512e-01
4.687357e-01
4.374926e-01
4.062426e-01
3.749926e-01
3.437425e-01
3.124924e-01
2.812423e-01
2.499919e-01
2.187415e-01
1.874909e-01
1.562406e-01
1.249906e-01
9.374040e-02
6.249038e-02
3.123878e-02
0.000000e+00
5.000511e-01
4.687356e-01
4.374926e-01
4.062426e-01
3.749925e-01
3.437424e-01
3.124924e-01
2.812422e-01
2.499919e-01
2.187415e-01
1.874909e-01
1.562406e-01
1.249906e-01
9.374041e-02
6.249038e-02
3.123879e-02
0.000000e+00
5.000511e-01
4.687356e-01
4.374925e-01
4.062425e-01
3.749925e-01
3.437424e-01
3.124924e-01
2.812422e-01
2.499918e-01
2.187415e-01
1.874909e-01
1.562406e-01
1.249906e-01
9.374043e-02
6.249040e-02
3.123880e-02
0.000000e+00
5.000510e-01
4.687356e-01
4.374925e-01
4.062425e-01
3.749925e-01
3.437424e-01
3.124923e-01
2.812422e-01
2.499918e-01
2.187415e-01
1.874909e-01
1.562406e-01
1.249906e-01
9.374044e-02
6.249040e-02
3.123879e-02
0.000000e+00
5.000510e-01
4.687355e-01
4.374925e-01
4.062425e-01
3.749925e-01
3.437424e-01
3.124923e-01
2.812422e-01
2.499918e-01
2.187415e-01
1.874909e-01
1.562406e-01
1.249906e-01
9.374043e-02
6.249040e-02
3.123880e-02
0.000000e+00
5.000509e-01
4.687355e-01
4.374925e-01
4.062425e-01
3.749924e-01
3.437424e-01
3.124923e-01
2.812422e-01
2.499918e-01
2.187415e-01
1.874909e-01
1.562406e-01
1.249906e-01
9.374041e-02
6.249039e-02
3.123879e-02
0.000000e+00
5.000509e-01
4.687354e-01
4.374924e-01
4.062424e-01
3.749924e-01
3.437423e-01
3.124923e-01
2.812422e-01
2.499918e-01
2.187415e-01
1.874908e-01
1.562405e-01
1.249906e-01
9.374038e-02
6.249038e-02
3.123878e-02
0.000000e+00
5.000509e-01
4.687354e-01
4.374924e-01
4.062424e-01
3.749924e-01
3.437423e-01
3.124923e-01
2.812421e-01
2.499917e-01
2.187415e-01
1.874908e-01
1.562405e-01
1.249905e-01
9.374035e-02
6.249036e-02
3.123877e-02
0.000000e+00
5.000509e-01
4.687354e-01
4.374924e-01
4.062424e-01
3.749924e-01
3.437423e-01
3.124923e-01
2.812421e-01
2.499917e-01
2.187414e-01
1.874908e-01
1.562405e-01
1.249905e-01
9.374032e-02
6.249035e-02
3.123875e-02
0.000000e+00
5.000509e-01
4.687354e-01
4.374924e-01
4.062424e-01
3.749924e-01
3.437423e-01
3.124922e-01
2.812421e-01
2.499917e-01
2.187414e-01
1.874907e-01
1.562405e-01
1.249905e-01
9.374031e-02
6.249034e-02
3.123875e-02
0.000000e+00
5.000508e-01
4.687353e-01
4.374923e-01
4.062423e-01
3.749923e-01
3.437423e-01
3.124922e-01
2.812421e-01
2.499917e-01
2.187414e-01
1.874907e-01
1.562405e-01
1.249905e-01
9.374032e-02
6.249034e-02
3.123875e-02
0.000000e+00
5.000507e-01
4.687353e-01
4.374923e-01
4.062423e-01
3.749923e-01
3.437422e-01
3.124922e-01
2.812421e-01
2.499917e-01
2.187414e-01
1.874907e-01
1.562405e-01
1.249905e-01
9.374033e-02
6.249035e-02
3.123875e-02
0.000000e+00
5.000506e-01
4.687352e-01
4.374922e-01
4.062422e-01
3.749922e-01
3.437422e-01
3.124921e-01
2.812420e-01
2.499916e-01
2.187414e-01
1.874907e-01
1.562405e-01
1.249905e-01
9.374034e-02
6.249036e-02
3.123877e-02
0.000000e+00
5.000506e-01
4.687351e-01
4.374921e-01
4.062422e-01
3.749922e-01
3.437422e-01
3.124921e-01
2.812420e-01
2.499916e-01
2.187414e-01
1.874907e-01
1.562405e-01
1.249905e-01
9.374036e-02
6.249037e-02
3.123877e-02
0.000000e+00
5.000504e-01
4.687350e-01
4.374920e-01
4.062420e-01
3.749920e-01
3.437420e-01
3.124919e-01
2.812419e-01
2.499915e-01
2.187412e-01
1.874906e-01
1.562403e-01
1.249904e-01
9.374021e-02
6.249021e-02
3.123860e-02
0.000000e+00
4.999594e-01
4.686551e-01
4.374220e-01
4.061807e-01
3.749387e-01
3.436956e-01
3.124519e-01
2.812077e-01
2.499622e-01
2.187169e-01
1.874702e-01
1.562239e-01
1.249778e-01
9.373090e-02
6.248424e-02
3.123571e-02
0.000000e+00
4.999753e-01
4.686690e-01
4.374343e-01
4.061915e-01
3.749481e-01
3.437038e-01
3.124591e-01
2.812138e-01
2.499674e-01
2.187213e-01
1.874739e-01
1.562270e-01
1.249801e-01
9.373267e-02
6.248540e-02
3.123634e-02
0.000000e+00
5.000170e-01
4.687058e-01
4.374665e-01
4.062199e-01
3.749728e-01
3.437254e-01
3.124777e-01
2.812297e-01
2.499812e-01
2.187327e-01
1.874835e-01
1.562346e-01
1.249860e-01
9.373705e-02
6.248822e-02
3.123773e-02
0.000000e+00
5.000707e-01
4.687531e-01
4.375081e-01
4.062563e-01
3.750046e-01
3.437531e-01
3.125016e-01
2.812502e-01
2.499988e-01
2.187473e-01
1.874958e-01
1.562445e-01
1.249936e-01
9.374266e-02
6.249185e-02
3.123953e-02
0.000000e+00
5.001184e-01
4.687950e-01
4.375449e-01
4.062886e-01
3.750327e-01
3.437775e-01
3.125229e-01
2.812684e-01
2.500144e-01
2.187603e-01
1.875067e-01
1.562533e-01
1.250004e-01
9.374765e-02
6.249507e-02
3.124113e-02
0.000000e+00
5.001440e-01
4.688175e-01
4.375646e-01
4.063059e-01
3.750479e-01
3.437907e-01
3.125343e-01
2.812782e-01
2.500228e-01
2.187673e-01
1.875126e-01
1.562580e-01
1.250041e-01
9.375035e-02
6.249682e-02
3.124199e-02
0.000000e+00
5.001390e-01
4.688132e-01
4.375609e-01
4.063026e-01
3.750450e-01
3.437883e-01
3.125322e-01
2.812764e-01
2.500213e-01
2.187660e-01
1.875115e-01
1.562572e-01
1.250034e-01
9.374985e-02
6.249650e-02
3.124183e-02
0.000000e+00
5.001054e-01
4.687836e-01
4.375349e-01
4.062799e-01
3.750252e-01
3.437710e-01
3.125172e-01
2.812635e-01
2.500102e-01
2.187568e-01
1.875038e-01
1.562510e-01
1.249986e-01
9.374633e-02
6.249423e-02
3.124070e-02
0.000000e+00
5.000543e-01
4.687387e-01
4.374954e-01
4.062452e-01
3.749950e-01
3.437447e-01
3.124944e-01
2.812440e-01
2.499934e-01
2.187429e-01
1.874920e-01
1.562415e-01
1.249913e-01
9.374095e-02
6.249075e-02
3.123897e-02
0.000000e+00
5.000028e-01
4.686933e-01
4.374556e-01
4.062102e-01
3.749644e-01
3.437180e-01
3.124713e-01
2.812242e-01
2.499763e-01
2.187287e-01
1.874801e-01
1.562319e-01
1.249839e-01
9.373549e-02
6.248722e-02
3.123721e-02
0.000000e+00
4.999678e-01
4.686624e-01
4.374283e-01
4.061862e-01
3.749435e-01
3.436997e-01
3.124554e-01
2.812106e-01
2.499646e-01
2.187189e-01
1.874718e-01
1.562252e-01
1.249788e-01
9.373170e-02
6.248476e-02
3.123598e-02
0.000000e+00
4.999604e-01
4.686557e-01
4.374223e-01
4.061808e-01
3.749386e-01
3.436954e-01
3.124516e-01
2.812073e-01
2.499617e-01
2.187165e-01
1.874698e-01
1.562236e-01
1.249775e-01
9.373074e-02
6.248414e-02
3.123568e-02
0.000000e+00
4.999821e-01
4.686746e-01
4.374387e-01
4.061950e-01
3.749509e-01
3.437060e-01
3.124606e-01
2.812150e-01
2.499683e-01
2.187219e-01
1.874743e-01
1.562272e-01
1.249803e-01
9.373279e-02
6.248547e-02
3.123633e-02
0.000000e+00
5.000250e-01
4.687120e-01
4.374713e-01
4.062234e-01
3.749755e-01
3.437273e-01
3.124790e-01
2.812306e-01
2.499817e-01
2.187330e-01
1.874836e-01
1.562347e-01
1.249860e-01
9.373702e-02
6.248820e-02
3.123768e-02
0.000000e+00
5.000738e-01
4.687547e-01
4.375086e-01
4.062560e-01
3.750037e-01
3.437518e-01
3.125001e-01
2.812486e-01
2.499971e-01
2.187458e-01
1.874943e-01
1.562433e-01
1.249926e-01
9.374189e-02
6.249134e-02
3.123924e-02
0.000000e+00
5.001120e-01
4.687881e-01
4.375378e-01
4.062815e-01
3.750259e-01
3.437710e-01
3.125167e-01
2.812627e-01
2.500092e-01
2.187558e-01
1.875028e-01
1.562500e-01
1.249978e-01
9.374575e-02
6.249383e-02
3.124047e-02
0.000000e+00
5.001263e-01
4.688007e-01
4.375488e-01
4.062911e-01
3.750342e-01
3.437782e-01
3.125229e-01
2.812680e-01
2.500137e-01
2.187595e-01
1.875058e-01
1.562525e-01
1.249997e-01
9.374706e-02
6.249462e-02
3.124076e-02
0.000000e+00
4.998818e-01
4.685869e-01
4.373622e-01
4.061284e-01
3.748931e-01
3.436560e-01
3.124177e-01
2.811784e-01
2.499370e-01
2.186961e-01
1.874527e-01
1.562100e-01
1.249670e-01
9.372295e-02
6.247910e-02
3.123318e-02
0.000000e+00
4.999109e-01
4.686125e-01
4.373848e-01
4.061482e-01
3.749104e-01
3.436711e-01
3.124308e-01
2.811897e-01
2.499467e-01
2.187041e-01
1.874595e-01
1.562154e-01
1.249712e-01
9.372613e-02
6.248118e-02
3.123427e-02
0.000000e+00
4.999881e-01
4.686805e-01
4.374445e-01
4.062006e-01
3.749561e-01
3.437110e-01
3.124653e-01
2.812192e-01
2.499721e-01
2.187252e-01
1.874772e-01
1.562296e-01
1.249822e-01
9.373424e-02
6.248643e-02
3.123686e-02
0.000000e+00
5.000874e-01
4.687679e-01
4.375212e-01
4.062680e-01
3.750149e-01
3.437621e-01
3.125095e-01
2.812570e-01
2.500046e-01
2.187522e-01
1.874999e-01
1.562479e-01
1.249963e-01
9.374461e-02
6.249313e-02
3.124017e-02
0.000000e+00
5.001755e-01
4.688454e-01
4.375893e-01
4.063276e-01
3.750669e-01
3.438073e-01
3.125488e-01
2.812905e-01
2.500335e-01
2.187762e-01
1.875201e-01
1.562641e-01
1.250088e-01
9.375381e-02
6.249908e-02
3.124311e-02
0.000000e+00
5.002228e-01
4.688871e-01
4.376258e-01
4.063597e-01
3.750949e-01
3.438317e-01
3.125699e-01
2.813087e-01
2.500491e-01
2.187891e-01
1.875310e-01
1.562729e-01
1.250155e-01
9.375879e-02
6.250230e-02
3.124470e-02
0.000000e+00
5.002137e-01
4.688791e-01
4.376189e-01
4.063537e-01
3.750897e-01
3.438272e-01
3.125660e-01
2.813053e-01
2.500463e-01
2.187868e-01
1.875290e-01
1.562713e-01
1.250143e-01
9.375788e-02
6.250171e-02
3.124441e-02
0.000000e+00
5.001515e-01
4.688244e-01
4.375709e-01
4.063116e-01
3.750530e-01
3.437953e-01
3.125384e-01
2.812817e-01
2.500259e-01
2.187698e-01
1.875148e-01
1.562598e-01
1.250054e-01
9.375137e-02
6.249749e-02
3.124231e-02
0.000000e+00
5.000572e-01
4.687414e-01
4.374980e-01
4.062476e-01
3.749972e-01
3.437467e-01
3.124962e-01
2.812456e-01
2.499948e-01
2.187440e-01
1.874930e-01
1.562423e-01
1.249920e-01
9.374144e-02
6.249107e-02
3.123912e-02
0.000000e+00
4.999621e-01
4.686576e-01
4.374244e-01
4.061829e-01
3.749407e-01
3.436974e-01
3.124535e-01
2.812090e-01
2.499633e-01
2.187179e-01
1.874710e-01
1.562246e-01
1.249783e-01
9.373136e-02
6.248454e-02
3.123588e-02
0.000000e+00
4.998975e-01
4.686006e-01
4.373741e-01
4.061387e-01
3.749020e-01
3.436637e-01
3.124241e-01
2.811838e-01
2.499416e-01
2.186998e-01
1.874558e-01
1.562123e-01
1.249688e-01
9.372437e-02
6.248001e-02
3.123364e-02
0.000000e+00
4.998837e-01
4.685882e-01
4.373629e-01
4.061287e-01
3.748931e-01
3.436558e-01
3.124171e-01
2.811778e-01
2.499363e-01
2.186954e-01
1.874520e-01
1.562093e-01
1.249664e-01
9.372261e-02
6.247887e-02
3.123307e-02
0.000000e+00
4.999240e-01
4.686231e-01
4.373932e-01
4.061550e-01
3.749158e-01
3.436753e-01
3.124339e-01
2.811920e-01
2.499484e-01
2.187054e-01
1.874604e-01
1.562160e-01
1.249716e-01
9.372640e-02
6.248132e-02
3.123428e-02
0.000000e+00
5.000032e-01
4.686923e-01
4.374535e-01
4.062075e-01
3.749613e-01
3.437147e-01
3.124679e-01
2.812209e-01
2.499732e-01
2.187259e-01
1.874776e-01
1.562298e-01
1.249822e-01
9.373420e-02
6.248635e-02
3.123677e-02
0.000000e+00
5.000935e-01
4.687713e-01
4.375225e-01
4.062677e-01
3.750135e-01
3.437599e-01
3.125069e-01
2.812542e-01
2.500018e-01
2.187495e-01
1.874974e-01
1.562456e-01
1.249944e-01
9.374319e-02
6.249217e-02
3.123964e-02
0.000000e+00
5.001640e-01
4.688331e-01
4.375765e-01
4.063148e-01
3.750545e-01
3.437955e-01
3.125376e-01
2.812803e-01
2.500242e-01
2.187681e-01
1.875130e-01
1.562581e-01
1.250040e-01
9.375030e-02
6.249676e-02
3.124190e-02
0.000000e+00
5.001907e-01
4.688564e-01
4.375970e-01
4.063327e-01
3.750700e-01
3.438089e-01
3.125492e-01
2.812902e-01
2.500326e-01
2.187750e-01
1.875188e-01
1.562628e-01
1.250076e-01
9.375286e-02
6.249836e-02
3.124259e-02
0.000000e+00
4.998299e-01
4.685413e-01
4.373223e-01
4.060934e-01
3.748627e-01
3.436295e-01
3.123948e-01
2.811589e-01
2.499203e-01
2.186822e-01
1.874411e-01
1.562006e-01
1.249598e-01
9.371764e-02
6.247566e-02
3.123150e-02
0.000000e+00
4.998680e-01
4.685748e-01
4.373518e-01
4.061193e-01
3.748853e-01
3.436493e-01
3.124119e-01
2.811736e-01
2.499329e-01
2.186927e-01
1.874499e-01
1.562077e-01
1.249653e-01
9.372176e-02
6.247837e-02
3.123289e-02
0.000000e+00
4.999688e-01
4.686637e-01
4.374297e-01
4.061878e-01
3.749450e-01
3.437013e-01
3.124569e-01
2.812121e-01
2.499660e-01
2.187202e-01
1.874730e-01
1.562263e-01
1.249797e-01
9.373237e-02
6.248523e-02
3.123627e-02
0.000000e+00
5.000986e-01
4.687779e-01
4.375300e-01
4.062758e-01
3.750217e-01
3.437681e-01
3.125148e-01
2.812616e-01
2.500086e-01
2.187555e-01
1.875027e-01
1.562502e-01
1.249980e-01
9.374593e-02
6.249400e-02
3.124060e-02
0.000000e+00
5.002136e-01
4.688791e-01
4.376189e-01
4.063537e-01
3.750897e-01
3.438272e-01
3.125661e-01
2.813054e-01
2.500463e-01
2.187868e-01
1.875291e-01
1.562713e-01
1.250143e-01
9.375794e-02
6.250176e-02
3.124444e-02
0.000000e+00
5.002755e-01
4.689336e-01
4.376668e-01
4.063957e-01
3.751263e-01
3.438591e-01
3.125937e-01
2.813291e-01
2.500667e-01
2.188037e-01
1.875433e-01
1.562828e-01
1.250232e-01
9.376445e-02
6.250597e-02
3.124652e-02
0.000000e+00
5.002637e-01
4.689232e-01
4.376577e-01
4.063878e-01
3.751195e-01
3.438532e-01
3.125886e-01
2.813247e-01
2.500630e-01
2.188006e-01
1.875407e-01
1.562807e-01
1.250215e-01
9.376326e-02
6.250520e-02
3.124613e-02
0.000000e+00
5.001824e-01
4.688517e-01
4.375950e-01
4.063328e-01
3.750716e-01
3.438115e-01
3.125525e-01
2.812938e-01
2.500364e-01
2.187786e-01
1.875221e-01
1.562657e-01
1.250100e-01
9.375475e-02
6.249969e-02
3.124340e-02
0.000000e+00
5.000592e-01
4.687433e-01
4.374997e-01
4.062492e-01
3.749986e-01
3.437480e-01
3.124974e-01
2.812466e-01
2.499958e-01
2.187449e-01
1.874937e-01
1.562429e-01
1.249924e-01
9.374177e-02
6.249128e-02
3.123923e-02
0.000000e+00
4.999349e-01
4.686338e-01
4.374035e-01
4.061647e-01
3.749249e-01
3.436837e-01
3.124416e-01
2.811989e-01
2.499546e-01
2.187107e-01
1.874649e-01
1.562197e-01
1.249746e-01
9.372859e-02
6.248275e-02
3.123500e-02
0.000000e+00
4.998505e-01
4.685593e-01
4.373379e-01
4.061069e-01
3.748744e-01
3.436396e-01
3.124033e-01
2.811660e-01
2.499262e-01
2.186871e-01
1.874450e-01
1.562037e-01
1.249622e-01
9.371945e-02
6.247682e-02
3.123206e-02
0.000000e+00
4.998326e-01
4.685431e-01
4.373233e-01
4.060939e-01
3.748627e-01
3.436293e-01
3.123942e-01
2.811581e-01
2.499193e-01
2.186813e-01
1.874401e-01
1.561997e-01
1.249591e-01
9.371715e-02
6.247533e-02
3.123132e-02
0.000000e+00
4.998852e-01
4.685888e-01
4.373629e-01
4.061282e-01
3.748923e-01
3.436548e-01
3.124161e-01
2.811767e-01
2.499352e-01
2.186944e-01
1.874511e-01
1.562085e-01
1.249658e-01
9.372211e-02
6.247853e-02
3.123290e-02
0.000000e+00
4.999887e-01
4.686792e-01
4.374417e-01
4.061968e-01
3.749518e-01
3.437062e-01
3.124604e-01
2.812144e-01
2.499676e-01
2.187211e-01
1.874735e-01
1.562265e-01
1.249796e-01
9.373230e-02
6.248511e-02
3.123615e-02
0.000000e+00
5.001067e-01
4.687824e-01
4.375319e-01
4.062755e-01
3.750201e-01
3.437654e-01
3.125115e-01
2.812579e-01
2.500049e-01
2.187520e-01
1.874994e-01
1.562472e-01
1.249956e-01
9.374405e-02
6.249271e-02
3.123990e-02
0.000000e+00
5.001988e-01
4.688631e-01
4.376024e-01
4.063371e-01
3.750737e-01
3.438119e-01
3.125516e-01
2.812921e-01