<?xml version="1.0"?>
<VTKFile type="StructuredGrid" version="0.1">
  <StructuredGrid WholeExtent="0 16 0 16 0 16">
    <Piece Extent="0 16 0 16 0 16">
      <PointData Scalars="temperature" Vectors="velocity">
        <DataArray type="Float32" Name="temperature" format="ascii">
1.000000e+00
9.688124e-01
9.376215e-01
9.064164e-01
8.851344e-01
8.440360e-01
8.127008e-01
7.814450e-01
7.501795e-01
7.189111e-01
6.876433e-01
6.563760e-01
6.251101e-01
5.938457e-01
5.625828e-01
5.313190e-01
5.000817e-01
1.000000e+00
9.688059e-01
9.376073e-01
9.064042e-01
8.834261e-01
8.439815e-01
8.126668e-01
7.814116e-01
7.501487e-01
7.188833e-01
6.876185e-01
6.563541e-01
6.250909e-01
5.938289e-01
5.625682e-01
5.313063e-01
5.000707e-01
1.000000e+00
9.687689e-01
9.375430e-01
9.063246e-01
8.788743e-01
8.438477e-01
8.125754e-01
7.813227e-01
7.500666e-01
7.188095e-01
6.875526e-01
6.562959e-01
6.250398e-01
5.937843e-01
5.625294e-01
5.312725e-01
5.000414e-01
1.000000e+00
9.687269e-01
9.374641e-01
9.061920e-01
8.730147e-01
8.436994e-01
8.124559e-01
7.812083e-01
7.499611e-01
7.187145e-01
6.874679e-01
6.562211e-01
6.249742e-01
5.937269e-01
5.624794e-01
5.312291e-01
5.000037e-01
1.000000e+00
9.686989e-01
9.374164e-01
9.060804e-01
8.678389e-01
8.435899e-01
8.123482e-01
7.811070e-01
7.498676e-01
7.186304e-01
6.873928e-01
6.561549e-01
6.249159e-01
5.936760e-01
5.624350e-01
5.311904e-01
4.999701e-01
1.000000e+00
9.686791e-01
9.373788e-01
9.060039e-01
8.650564e-01
8.435413e-01
8.122899e-01
7.810528e-01
7.498176e-01
7.185854e-01
6.873526e-01
6.561193e-01
6.248846e-01
5.936486e-01
5.624111e-01
5.311696e-01
4.999521e-01
1.000000e+00
9.686839e-01
9.373889e-01
9.060262e-01
8.656318e-01
8.435511e-01
8.123019e-01
7.810639e-01
7.498277e-01
7.185944e-01
6.873606e-01
6.561263e-01
6.248907e-01
5.936539e-01
5.624157e-01
5.311736e-01
4.999555e-01
1.000000e+00
9.687039e-01
9.374279e-01
9.061196e-01
8.693708e-01
8.436199e-01
8.123797e-01
7.811363e-01
7.498945e-01
7.186544e-01
6.874140e-01
6.561734e-01
6.249321e-01
5.936900e-01
5.624471e-01
5.312009e-01
4.999792e-01
1.000000e+00
9.687416e-01
9.374887e-01
9.062338e-01
8.749894e-01
8.437459e-01
8.124954e-01
7.812456e-01
7.499953e-01
7.187450e-01
6.874948e-01
6.562447e-01
6.249947e-01
5.937447e-01
5.624948e-01
5.312423e-01
5.000151e-01
1.000000e+00
9.687816e-01
9.375690e-01
9.063598e-01
8.806286e-01
8.438956e-01
8.126091e-01
7.813550e-01
7.500962e-01
7.188358e-01
6.875758e-01
6.563162e-01
6.250575e-01
5.937996e-01
5.625426e-01
5.312840e-01
5.000513e-01
1.000000e+00
9.688102e-01
9.376171e-01
9.064151e-01
8.843597e-01
8.440092e-01
8.126834e-01
7.814277e-01
7.501633e-01
7.188962e-01
6.876298e-01
6.563640e-01
6.250996e-01
5.938365e-01
5.625748e-01
5.313120e-01
5.000757e-01
1.000000e+00
9.688112e-01
9.376188e-01
9.064138e-01
8.849386e-01
8.440277e-01
8.126949e-01
7.814393e-01
7.501742e-01
7.189063e-01
6.876391e-01
6.563724e-01
6.251072e-01
5.938433e-01
5.625810e-01
5.313175e-01
5.000806e-01
1.000000e+00
9.687974e-01
9.375908e-01
9.063826e-01
8.821637e-01
8.439413e-01
8.126404e-01
7.813863e-01
7.501259e-01
7.188633e-01
6.876011e-01
6.563393e-01
6.250784e-01
5.938184e-01
5.625595e-01
5.312991e-01
5.000648e-01
1.000000e+00
9.687550e-01
9.375144e-01
9.062804e-01
8.769682e-01
8.437965e-01
8.125372e-01
7.812871e-01
7.500351e-01
7.187822e-01
6.875293e-01
6.562764e-01
6.250236e-01
5.937709e-01
5.625184e-01
5.312636e-01
5.000341e-01
1.000000e+00
9.687143e-01
9.374430e-01
9.061591e-01
8.711159e-01
8.436581e-01
8.124191e-01
7.811755e-01
7.499328e-01
7.186909e-01
6.874484e-01
6.562055e-01
6.249617e-01
5.937172e-01
5.624719e-01
5.312234e-01
4.999994e-01
1.000000e+00
9.686912e-01
9.373998e-01
9.060537e-01
8.665685e-01
8.435697e-01
8.123263e-01
7.810892e-01
7.498536e-01
7.186201e-01
6.873857e-01
6.561504e-01
6.249136e-01
5.936754e-01
5.624357e-01
5.311921e-01
4.999724e-01
1.000000e+00
9.686778e-01
9.373750e-01
9.059989e-01
8.648644e-01
8.435411e-01
8.122913e-01
7.810567e-01
7.498238e-01
7.185934e-01
6.873618e-01
6.561294e-01
6.248953e-01
5.936595e-01
5.624219e-01
5.311802e-01
4.999621e-01
1.000000e+00
9.688076e-01
9.376119e-01
9.064065e-01
8.843628e-01
8.440111e-01
8.126853e-01
7.814298e-01
7.501655e-01
7.188984e-01
6.876320e-01
6.563661e-01
6.251015e-01
5.938382e-01
5.625764e-01
5.313134e-01
5.000769e-01
1.000000e+00
9.688010e-01
9.375981e-01
9.063928e-01
8.827833e-01
8.439617e-01
8.126539e-01
7.813990e-01
7.501370e-01
7.188728e-01
6.876091e-01
6.563459e-01
6.250837e-01
5.938227e-01
5.625629e-01
5.313016e-01
5.000667e-01
1.000000e+00
9.687676e-01
9.375402e-01
9.063193e-01
8.785787e-01
8.438397e-01
8.125695e-01
7.813169e-01
7.500612e-01
7.188046e-01
6.875482e-01
6.562921e-01
6.250365e-01
5.937814e-01
5.625269e-01
5.312704e-01
5.000396e-01
1.000000e+00
9.687288e-01
9.374673e-01
9.061994e-01
8.731656e-01
8.437031e-01
8.124590e-01
7.812112e-01
7.499637e-01
7.187169e-01
6.874700e-01
6.562231e-01
6.249758e-01
5.937284e-01
5.624807e-01
5.312302e-01
5.000047e-01
1.000000e+00
9.687029e-01
9.374214e-01
9.060955e-01
8.683796e-01
8.436007e-01
8.123596e-01
7.811176e-01
7.498774e-01
7.186393e-01
6.874007e-01
6.561619e-01
6.249221e-01
5.936814e-01
5.624397e-01
5.311945e-01
4.999737e-01
1.000000e+00
9.686839e-01
9.373865e-01
9.060247e-01
8.658128e-01
8.435543e-01
8.123058e-01
7.810676e-01
7.498312e-01
7.185977e-01
6.873636e-01
6.561290e-01
6.248931e-01
5.936561e-01
5.624176e-01
5.311753e-01
4.999570e-01
1.000000e+00
9.686882e-01
9.373959e-01
9.060422e-01
8.663447e-01
8.435636e-01
8.123169e-01
7.810778e-01
7.498406e-01
7.186060e-01
6.873710e-01
6.561354e-01
6.248988e-01
5.936609e-01
5.624218e-01
5.311790e-01
4.999602e-01
1.000000e+00
9.687083e-01
9.374347e-01
9.061298e-01
8.697968e-01
8.436288e-01
8.123887e-01
7.811447e-01
7.499022e-01
7.186614e-01
6.874203e-01
6.561790e-01
6.249370e-01
5.936943e-01
5.624509e-01
5.312042e-01
4.999821e-01
1.000000e+00
9.687420e-01
9.374896e-01
9.062371e-01
8.749907e-01
8.437460e-01
8.124956e-01
7.812457e-01
7.499954e-01
7.187451e-01
6.874950e-01
6.562449e-01
6.249949e-01
5.937449e-01
5.624949e-01
5.312425e-01
5.000153e-01
1.000000e+00
9.687798e-01
9.375644e-01
9.063505e-01
8.801992e-01
8.438835e-01
8.126007e-01
7.813468e-01
7.500886e-01
7.188290e-01
6.875698e-01
6.563109e-01
6.250529e-01
5.937956e-01
5.625392e-01
5.312810e-01
5.000487e-01
1.000000e+00
9.688047e-01
9.376070e-01
9.064016e-01
8.836472e-01
8.439869e-01
8.126694e-01
7.814139e-01
7.501506e-01
7.188848e-01
6.876197e-01
6.563551e-01
6.250918e-01
5.938297e-01
5.625689e-01
5.313069e-01
5.000712e-01
1.000000e+00
9.688063e-01
9.376093e-01
9.064037e-01
8.841817e-01
8.440037e-01
8.126801e-01
7.814246e-01
7.501607e-01
7.188942e-01
6.876282e-01
6.563629e-01
6.250988e-01
5.938360e-01
5.625746e-01
5.313119e-01
5.000757e-01
1.000000e+00
9.687930e-01
9.375827e-01
9.063726e-01
8.816168e-01
8.439253e-01
8.126296e-01
7.813757e-01
7.501161e-01
7.188544e-01
6.875932e-01
6.563322e-01
6.250722e-01
5.938130e-01
5.625548e-01
5.312949e-01
5.000611e-01
1.000000e+00
9.687546e-01
9.375137e-01
9.062793e-01
8.768183e-01
8.437927e-01
8.125342e-01
7.812841e-01
7.500322e-01
7.187795e-01
6.875269e-01
6.562742e-01
6.250216e-01
5.937691e-01
5.625168e-01
5.312621e-01
5.000328e-01
1.000000e+00
9.687175e-01
9.374486e-01
9.061664e-01
8.714105e-01
8.436645e-01
8.124250e-01
7.811809e-01
7.499377e-01
7.186952e-01
6.874522e-01
6.562087e-01
6.249644e-01
5.937194e-01
5.624738e-01
5.312249e-01
5.000007e-01
1.000000e+00
9.686949e-01
9.374065e-01
9.060683e-01
8.672098e-01
8.435813e-01
8.123394e-01
7.811011e-01
7.498646e-01
7.186298e-01
6.873942e-01
6.561578e-01
6.249200e-01
5.936808e-01
5.624403e-01
5.311960e-01
4.999758e-01
1.000000e+00
9.686829e-01
9.373842e-01
9.060206e-01
8.656353e-01
8.435540e-01
8.123072e-01
7.810712e-01
7.498370e-01
7.186051e-01
6.873722e-01
6.561384e-01
6.249031e-01
5.936661e-01
5.624276e-01
5.311850e-01
4.999663e-01
1.000000e+00
9.687944e-01
9.375886e-01
9.063748e-01
8.821646e-01
8.439427e-01
8.126413e-01
7.813866e-01
7.501257e-01
7.188627e-01
6.876002e-01
6.563381e-01
6.250770e-01
5.938169e-01
5.625579e-01
5.312973e-01
5.000630e-01
1.000000e+00
9.687857e-01
9.375724e-01
9.063586e-01
8.809554e-01
8.439070e-01
8.126172e-01
7.813630e-01
7.501039e-01
7.188431e-01
6.875827e-01
6.563226e-01
6.250634e-01
5.938050e-01
5.625475e-01
5.312883e-01
5.000552e-01
1.000000e+00
9.687640e-01
9.375309e-01
9.063018e-01
8.777378e-01
8.438170e-01
8.125524e-01
7.813003e-01
7.500460e-01
7.187910e-01
6.875361e-01
6.562814e-01
6.250272e-01
5.937734e-01
5.625199e-01
5.312644e-01
5.000344e-01
1.000000e+00
9.687345e-01
9.374771e-01
9.062147e-01
8.735958e-01
8.437132e-01
8.124679e-01
7.812194e-01
7.499714e-01
7.187239e-01
6.874762e-01
6.562286e-01
6.249807e-01
5.937327e-01
5.624845e-01
5.312336e-01
5.000077e-01
1.000000e+00
9.687122e-01
9.374375e-01
9.061327e-01
8.699279e-01
8.436322e-01
8.123920e-01
7.811478e-01
7.499053e-01
7.186644e-01
6.874232e-01
6.561817e-01
6.249396e-01
5.936967e-01
5.624531e-01
5.312063e-01
4.999840e-01
1.000000e+00
9.686987e-01
9.374148e-01
9.060838e-01
8.679669e-01
8.435936e-01
8.123510e-01
7.811095e-01
7.498699e-01
7.186326e-01
6.873948e-01
6.561566e-01
6.249174e-01
5.936774e-01
5.624362e-01
5.311916e-01
4.999712e-01
1.000000e+00
9.687008e-01
9.374188e-01
9.060943e-01
8.683743e-01
8.436013e-01
8.123595e-01
7.811173e-01
7.498771e-01
7.186390e-01
6.874004e-01
6.561615e-01
6.249217e-01
5.936811e-01
5.624395e-01
5.311944e-01
4.999736e-01
1.000000e+00
9.687189e-01
9.374498e-01
9.061581e-01
8.710139e-01
8.436548e-01
8.124142e-01
7.811686e-01
7.499244e-01
7.186814e-01
6.874382e-01
6.561949e-01
6.249510e-01
5.937066e-01
5.624617e-01
5.312137e-01
4.999903e-01
1.000000e+00
9.687438e-01
9.374938e-01
9.062436e-01
8.749935e-01
8.437463e-01
8.124959e-01
7.812460e-01
7.499957e-01
7.187455e-01
6.874954e-01
6.562453e-01
6.249953e-01
5.937453e-01
5.624954e-01
5.312429e-01
5.000157e-01
1.000000e+00
9.687730e-01
9.375480e-01
9.063246e-01
8.789772e-01
8.438498e-01
8.125765e-01
7.813233e-01
7.500671e-01
7.188097e-01
6.875527e-01
6.562959e-01
6.250398e-01
5.937842e-01
5.625292e-01
5.312724e-01
5.000412e-01
1.000000e+00
9.687894e-01
9.375801e-01
9.063682e-01
8.816174e-01
8.439254e-01
8.126293e-01
7.813747e-01
7.501145e-01
7.188524e-01
6.875909e-01
6.563297e-01
6.250695e-01
5.938102e-01
5.625520e-01
5.312922e-01
5.000585e-01
1.000000e+00
9.687933e-01
9.375863e-01
9.063740e-01
8.820258e-01
8.439376e-01
8.126376e-01
7.813830e-01
7.501223e-01
7.188596e-01
6.875974e-01
6.563357e-01
6.250749e-01
5.938151e-01
5.625563e-01
5.312961e-01
5.000619e-01
1.000000e+00
9.687797e-01
9.375603e-01
9.063425e-01
8.800626e-01
8.438805e-01
8.125988e-01
7.813455e-01
7.500881e-01
7.188292e-01
6.875706e-01
6.563122e-01
6.250545e-01
5.937975e-01
5.625412e-01
5.312830e-01
5.000508e-01
1.000000e+00
9.687539e-01
9.375117e-01
9.062732e-01
8.763917e-01
8.437817e-01
8.125255e-01
7.812754e-01
7.500239e-01
7.187719e-01
6.875199e-01
6.562678e-01
6.250158e-01
5.937639e-01
5.625121e-01
5.312579e-01
5.000291e-01
1.000000e+00
9.687262e-01
9.374621e-01
9.061861e-01
8.722515e-01
8.436830e-01
8.124420e-01
7.811964e-01
7.499516e-01
7.187073e-01
6.874627e-01
6.562177e-01
6.249721e-01
5.937259e-01
5.624792e-01
5.312295e-01
5.000045e-01
1.000000e+00
9.687060e-01
9.374255e-01
9.061110e-01
8.690368e-01
8.436160e-01
8.123768e-01
7.811354e-01
7.498956e-01
7.186573e-01
6.874183e-01
6.561787e-01
6.249380e-01
5.936963e-01
5.624535e-01
5.312073e-01
4.999854e-01
1.000000e+00
9.686977e-01
9.374106e-01
9.060797e-01
8.678310e-01
8.435932e-01
8.123522e-01
7.811124e-01
7.498745e-01
7.186384e-01
6.874015e-01
6.561639e-01
6.249251e-01
5.936850e-01
5.624438e-01
5.311988e-01
4.999781e-01
1.000000e+00
9.687715e-01
9.375479e-01
9.063230e-01
8.788746e-01
8.438477e-01
8.125751e-01
7.813223e-01
7.500664e-01
7.188095e-01
6.875528e-01
6.562962e-01
6.250403e-01
5.937848e-01
5.625299e-01
5.312731e-01
5.000420e-01
1.000000e+00
9.687663e-01
9.375369e-01
9.063096e-01
8.782210e-01
8.438298e-01
8.125620e-01
7.813096e-01
7.500547e-01
7.187989e-01
6.875433e-01
6.562879e-01
6.250329e-01
5.937784e-01
5.625244e-01
5.312682e-01
5.000378e-01
1.000000e+00
9.687567e-01
9.375156e-01
9.062763e-01
8.764802e-01
8.437838e-01
8.125268e-01
7.812756e-01
7.500233e-01
7.187707e-01
6.875181e-01
6.562656e-01
6.250133e-01
5.937613e-01
5.625094e-01
5.312553e-01
5.000265e-01
1.000000e+00
9.687410e-01
9.374878e-01
9.062307e-01
8.742391e-01
8.437283e-01
8.124811e-01
7.812319e-01
7.499830e-01
7.187343e-01
6.874857e-01
6.562369e-01
6.249881e-01
5.937392e-01
5.624902e-01
5.312386e-01
5.000120e-01
1.000000e+00
9.687268e-01
9.374638e-01
9.061869e-01
8.722528e-01
8.436823e-01
8.124402e-01
7.811931e-01
7.499472e-01
7.187021e-01
6.874569e-01
6.562115e-01
6.249658e-01
5.937198e-01
5.624733e-01
5.312238e-01
4.999992e-01
1.000000e+00
9.687184e-01
9.374516e-01
9.061651e-01
8.711910e-01
8.436591e-01
8.124181e-01
7.811723e-01
7.499280e-01
7.186849e-01
6.874415e-01
6.561979e-01
6.249538e-01
5.937093e-01
5.624641e-01
5.312159e-01
4.999923e-01
1.000000e+00
9.687201e-01
9.374530e-01
9.061693e-01
8.714118e-01
8.436638e-01
8.124226e-01
7.811766e-01
7.499319e-01
7.186883e-01
6.874446e-01
6.562006e-01
6.249562e-01
5.937113e-01
5.624659e-01
5.312174e-01
4.999936e-01
1.000000e+00
9.687320e-01
9.374711e-01
9.062000e-01
8.728406e-01
8.436955e-01
8.124522e-01
7.812044e-01
7.499575e-01
7.187113e-01
6.874651e-01
6.562186e-01
6.249720e-01
5.937251e-01
5.624779e-01
5.312278e-01
5.000026e-01
1.000000e+00
9.687458e-01
9.374968e-01
9.062467e-01
8.749958e-01
8.437465e-01
8.124963e-01
7.812463e-01
7.499962e-01
7.187461e-01
6.874960e-01
6.562460e-01
6.249960e-01
5.937461e-01
5.624961e-01
5.312436e-01
5.000164e-01
1.000000e+00
9.687611e-01
9.375239e-01
9.062890e-01
8.771506e-01
8.438010e-01
8.125401e-01
7.812883e-01
7.500349e-01
7.187809e-01
6.875271e-01
6.562735e-01
6.250201e-01
5.937671e-01
5.625144e-01
5.312595e-01
5.000301e-01
1.000000e+00
9.687686e-01
9.375412e-01
9.063170e-01
8.785789e-01
8.438393e-01
8.125688e-01
7.813161e-01
7.500606e-01
7.188040e-01
6.875478e-01
6.562918e-01
6.250362e-01
5.937812e-01
5.625267e-01
5.312702e-01
5.000395e-01
1.000000e+00
9.687704e-01
9.375459e-01
9.063225e-01
8.787994e-01
8.438453e-01
8.125733e-01
7.813206e-01
7.500648e-01
7.188079e-01
6.875513e-01
6.562950e-01
6.250392e-01
5.937838e-01
5.625290e-01
5.312723e-01
5.000413e-01
1.000000e+00
9.687633e-01
9.375306e-01
9.063003e-01
8.777380e-01
8.438167e-01
8.125522e-01
7.813003e-01
7.500463e-01
7.187915e-01
6.875368e-01
6.562823e-01
6.250281e-01
5.937743e-01
5.625209e-01
5.312653e-01
5.000353e-01
1.000000e+00
9.687513e-01
9.375061e-01
9.062617e-01
8.757523e-01
8.437655e-01
8.125124e-01
7.812623e-01
7.500115e-01
7.187604e-01
6.875093e-01
6.562582e-01
6.250071e-01
5.937561e-01
5.625051e-01
5.312517e-01
5.000236e-01
1.000000e+00
9.687362e-01
9.374787e-01
9.062147e-01
8.735114e-01
8.437117e-01
8.124673e-01
7.812196e-01
7.499724e-01
7.187255e-01
6.874783e-01
6.562310e-01
6.249834e-01
5.937355e-01
5.624873e-01
5.312362e-01
5.000102e-01
1.000000e+00
9.687244e-01
9.374577e-01
9.061757e-01
8.717710e-01
8.436728e-01
8.124322e-01
7.811866e-01
7.499421e-01
7.186984e-01
6.874543e-01
6.562099e-01
6.249650e-01
5.937194e-01
5.624734e-01
5.312242e-01
4.999998e-01
1.000000e+00
9.687200e-01
9.374501e-01
9.061608e-01
8.711177e-01
8.436589e-01
8.124189e-01
7.811742e-01
7.499307e-01
7.186881e-01
6.874452e-01
6.562019e-01
6.249579e-01
5.937133e-01
5.624680e-01
5.312196e-01
4.999958e-01
1.000000e+00
9.687437e-01
9.374938e-01
9.062456e-01
8.749952e-01
8.437467e-01
8.124964e-01
7.812467e-01
7.499967e-01
7.187468e-01
6.874968e-01
6.562469e-01
6.249969e-01
5.937470e-01
5.624970e-01
5.312445e-01
5.000172e-01
1.000000e+00
9.687450e-01
9.374954e-01
9.062459e-01
8.749956e-01
8.437466e-01
8.124965e-01
7.812467e-01
7.499967e-01
7.187468e-01
6.874969e-01
6.562469e-01
6.249969e-01
5.937470e-01
5.624970e-01
5.312445e-01
5.000172e-01
1.000000e+00
9.687462e-01
9.374968e-01
9.062465e-01
8.749963e-01
8.437465e-01
8.124966e-01
7.812467e-01
7.499967e-01
7.187468e-01
6.874968e-01
6.562469e-01
6.249969e-01
5.937470e-01
5.624970e-01
5.312445e-01
5.000172e-01
1.000000e+00
9.687462e-01
9.374969e-01
9.062467e-01
8.749965e-01
8.437465e-01
8.124966e-01
7.812467e-01
7.499967e-01
7.187467e-01
6.874968e-01
6.562468e-01
6.249968e-01
5.937469e-01
5.624969e-01
5.312445e-01
5.000171e-01
1.000000e+00
9.687452e-01
9.374955e-01
9.062460e-01
8.749958e-01
8.437466e-01
8.124965e-01
7.812466e-01
7.499967e-01
7.187467e-01
6.874968e-01
6.562468e-01
6.249968e-01
5.937469e-01
5.624969e-01
5.312444e-01
5.000171e-01
1.000000e+00
9.687438e-01
9.374932e-01
9.062454e-01
8.749951e-01
8.437467e-01
8.124964e-01
7.812466e-01
7.499967e-01
7.187467e-01
6.874968e-01
6.562468e-01
6.249968e-01
5.937469e-01
5.624969e-01
5.312444e-01
5.000171e-01
1.000000e+00
9.687443e-01
9.374942e-01
9.062456e-01
8.749953e-01
8.437467e-01
8.124964e-01
7.812466e-01
7.499967e-01
7.187467e-01
6.874968e-01
6.562468e-01
6.249968e-01
5.937469e-01
5.624969e-01
5.312444e-01
5.000171e-01
1.000000e+00
9.687456e-01
9.374965e-01
9.062464e-01
8.749961e-01
8.437466e-01
8.124966e-01
7.812467e-01
7.499967e-01
7.187468e-01
6.874968e-01
6.562468e-01
6.249968e-01
5.937469e-01
5.624969e-01
5.312444e-01
5.000171e-01
1.000000e+00
9.687462e-01
9.374969e-01
9.062468e-01
8.749966e-01
8.437466e-01
8.124967e-01
7.812468e-01
7.499968e-01
7.187468e-01
6.874968e-01
6.562469e-01
6.249969e-01
5.937469e-01
5.624969e-01
5.312444e-01
5.000171e-01
1.000000e+00
9.687458e-01
9.374968e-01
9.062465e-01
8.749962e-01
8.437467e-01
8.124967e-01
7.812468e-01
7.499968e-01
7.187468e-01
6.874969e-01
6.562469e-01
6.249969e-01
5.937469e-01
5.624969e-01
5.312444e-01
5.000171e-01
1.000000e+00
9.687447e-01
9.374949e-01
9.062457e-01
8.749954e-01
8.437468e-01
8.124966e-01
7.812469e-01
7.499968e-01
7.187469e-01
6.874969e-01
6.562470e-01
6.249970e-01
5.937469e-01
5.624969e-01
5.312444e-01
5.000171e-01
1.000000e+00
9.687440e-01
9.374934e-01
9.062454e-01
8.749950e-01
8.437468e-01
8.124966e-01
7.812469e-01
7.499968e-01
7.187469e-01
6.874969e-01
6.562470e-01
6.249970e-01
5.937469e-01
5.624969e-01
5.312444e-01
5.000171e-01
1.000000e+00
9.687454e-01
9.374957e-01
9.062461e-01
8.749957e-01
8.437467e-01
8.124967e-01
7.812469e-01
7.499968e-01
7.187469e-01
6.874969e-01
6.562469e-01
6.249970e-01
5.937469e-01
5.624969e-01
5.312444e-01
5.000171e-01
1.000000e+00
9.687462e-01
9.374969e-01
9.062468e-01
8.749966e-01
8.437467e-01
8.124968e-01
7.812469e-01
7.499968e-01
7.187469e-01
6.874968e-01
6.562469e-01
6.249969e-01
5.937469e-01
5.624969e-01
5.312444e-01
5.000171e-01
1.000000e+00
9.687459e-01
9.374967e-01
9.062468e-01
8.749966e-01
8.437468e-01
8.124967e-01
7.812469e-01
7.499968e-01
7.187468e-01
6.874968e-01
6.562468e-01
6.249969e-01
5.937468e-01
5.624969e-01
5.312443e-01
5.000170e-01
1.000000e+00
9.687457e-01
9.374968e-01
9.062464e-01
8.749959e-01
8.437469e-01
8.124966e-01
7.812469e-01
7.499968e-01
7.187468e-01
6.874968e-01
6.562468e-01
6.249968e-01
5.937468e-01
5.624968e-01
5.312443e-01
5.000170e-01
1.000000e+00
9.687455e-01
9.374967e-01
9.062460e-01
8.749953e-01
8.437469e-01
8.124965e-01
7.812468e-01
7.499968e-01
7.187468e-01
6.874967e-01
6.562467e-01
6.249967e-01
5.937467e-01
5.624968e-01
5.312442e-01
5.000169e-01
1.000000e+00
9.687186e-01
9.374518e-01
9.061616e-01
8.711166e-01
8.436574e-01
8.124166e-01
7.811711e-01
7.499270e-01
7.186841e-01
6.874409e-01
6.561975e-01
6.249536e-01
5.937091e-01
5.624641e-01
5.312159e-01
4.999924e-01
1.000000e+00
9.687232e-01
9.374577e-01
9.061757e-01
8.717703e-01
8.436715e-01
8.124302e-01
7.811839e-01
7.499388e-01
7.186947e-01
6.874504e-01
6.562059e-01
6.249610e-01
5.937156e-01
5.624697e-01
5.312208e-01
4.999967e-01
1.000000e+00
9.687364e-01
9.374789e-01
9.062146e-01
8.735111e-01
8.437109e-01
8.124661e-01
7.812178e-01
7.499701e-01
7.187229e-01
6.874756e-01
6.562282e-01
6.249805e-01
5.937327e-01
5.624845e-01
5.312337e-01
5.000078e-01
1.000000e+00
9.687510e-01
9.375062e-01
9.062618e-01
8.757523e-01
8.437652e-01
8.125119e-01
7.812615e-01
7.500104e-01
7.187592e-01
6.875079e-01
6.562567e-01
6.250056e-01
5.937546e-01
5.625036e-01
5.312503e-01
5.000222e-01
1.000000e+00
9.687632e-01
9.375307e-01
9.063002e-01
8.777381e-01
8.438166e-01
8.125522e-01
7.813002e-01
7.500462e-01
7.187913e-01
6.875367e-01
6.562821e-01
6.250278e-01
5.937740e-01
5.625206e-01
5.312650e-01
5.000350e-01
1.000000e+00
9.687701e-01
9.375456e-01
9.063231e-01
8.787995e-01
8.438455e-01
8.125736e-01
7.813210e-01
7.500654e-01
7.188086e-01
6.875521e-01
6.562957e-01
6.250398e-01
5.937845e-01
5.625297e-01
5.312729e-01
5.000419e-01
1.000000e+00
9.687684e-01
9.375412e-01
9.063179e-01
8.785788e-01
8.438395e-01
8.125693e-01
7.813168e-01
7.500615e-01
7.188051e-01
6.875490e-01
6.562930e-01
6.250375e-01
5.937825e-01
5.625280e-01
5.312714e-01
5.000405e-01
1.000000e+00
9.687608e-01
9.375237e-01
9.062890e-01
8.771505e-01
8.438013e-01
8.125405e-01
7.812890e-01
7.500359e-01
7.187822e-01
6.875285e-01
6.562750e-01
6.250217e-01
5.937687e-01
5.625159e-01
5.312610e-01
5.000315e-01
1.000000e+00
9.687457e-01
9.374967e-01
9.062466e-01
8.749958e-01
8.437467e-01
8.124969e-01
7.812472e-01
7.499974e-01
7.187475e-01
6.874976e-01
6.562477e-01
6.249977e-01
5.937478e-01
5.624978e-01
5.312452e-01
5.000179e-01
1.000000e+00
9.687321e-01
9.374711e-01
9.062000e-01
8.728407e-01
8.436959e-01
8.124528e-01
7.812054e-01
7.499588e-01
7.187128e-01
6.874666e-01
6.562203e-01
6.249737e-01
5.937268e-01
5.624795e-01
5.312293e-01
5.000041e-01
1.000000e+00
9.687204e-01
9.374532e-01
9.061687e-01
8.714121e-01
8.436643e-01
8.124234e-01
7.811776e-01
7.499331e-01
7.186897e-01
6.874460e-01
6.562021e-01
6.249577e-01
5.937127e-01
5.624672e-01
5.312186e-01
4.999948e-01
1.000000e+00
9.687187e-01
9.374520e-01
9.061648e-01
8.711913e-01
8.436595e-01
8.124188e-01
7.811732e-01
7.499289e-01
7.186859e-01
6.874424e-01
6.561989e-01
6.249548e-01
5.937101e-01
5.624649e-01
5.312166e-01
4.999930e-01
1.000000e+00
9.687270e-01
9.374639e-01
9.061873e-01
8.722532e-01
8.436827e-01
8.124405e-01
7.811935e-01
7.499474e-01
7.187023e-01
6.874570e-01
6.562115e-01
6.249658e-01
5.937196e-01
5.624731e-01
5.312236e-01
4.999990e-01
1.000000e+00
9.687414e-01
9.374883e-01
9.062310e-01
8.742395e-01
8.437284e-01
8.124809e-01
7.812314e-01
7.499821e-01
7.187333e-01
6.874844e-01
6.562356e-01
6.249867e-01
5.937377e-01
5.624887e-01
5.312371e-01
5.000106e-01
1.000000e+00
9.687564e-01
9.375156e-01
9.062765e-01
8.764805e-01
8.437835e-01
8.125258e-01
7.812741e-01
7.500212e-01
7.187682e-01
6.875153e-01
6.562627e-01
6.250103e-01
5.937583e-01
5.625065e-01
5.312524e-01
5.000238e-01
1.000000e+00
9.687676e-01
9.375365e-01
9.063090e-01
8.782209e-01
8.438288e-01
8.125602e-01
7.813071e-01
7.500515e-01
7.187952e-01
6.875393e-01
6.562837e-01
6.250287e-01
5.937742e-01
5.625203e-01
5.312644e-01
5.000341e-01
1.000000e+00
9.687720e-01
9.375447e-01
9.063206e-01
8.788740e-01
8.438463e-01
8.125730e-01
7.813194e-01
7.500629e-01
7.188054e-01
6.875483e-01
6.562916e-01
6.250356e-01
5.937802e-01
5.625255e-01
5.312689e-01
5.000380e-01
1.000000e+00
9.686978e-01
9.374129e-01
9.060780e-01
8.678294e-01
8.435908e-01
8.123481e-01
7.811070e-01
7.498679e-01
7.186310e-01
6.873936e-01
6.561558e-01
6.249169e-01
5.936771e-01
5.624362e-01
5.311917e-01
4.999714e-01
1.000000e+00
9.687054e-01
9.374262e-01
9.061110e-01
8.690356e-01
8.436141e-01
8.123734e-01
7.811306e-01
7.498897e-01
7.186506e-01
6.874111e-01
6.561713e-01
6.249305e-01
5.936890e-01
5.624466e-01
5.312007e-01
4.999793e-01
1.000000e+00
9.687260e-01
9.374618e-01
9.061863e-01
8.722514e-01
8.436819e-01
8.124400e-01
7.811933e-01
7.499476e-01
7.187027e-01
6.874576e-01
6.562123e-01
6.249665e-01
5.937205e-01
5.624740e-01
5.312246e-01
4.999999e-01
1.000000e+00
9.687536e-01
9.375117e-01
9.062729e-01
8.763916e-01
8.437813e-01
8.125247e-01
7.812740e-01
7.500221e-01
7.187697e-01
6.875174e-01
6.562651e-01
6.250129e-01
5.937611e-01
5.625093e-01
5.312553e-01
5.000265e-01
1.000000e+00
9.687804e-01
9.375613e-01
9.063429e-01
8.800631e-01
8.438804e-01
8.125989e-01
7.813456e-01
7.500882e-01
7.188291e-01
6.875704e-01
6.563120e-01
6.250541e-01
5.937971e-01
5.625406e-01
5.312825e-01
5.000501e-01
1.000000e+00
9.687930e-01
9.375861e-01
9.063745e-01
8.820257e-01
8.439380e-01
8.126383e-01
7.813840e-01
7.501236e-01
7.188610e-01
6.875989e-01
6.563372e-01
6.250763e-01
5.938164e-01
5.625575e-01
5.312971e-01
5.000628e-01
1.000000e+00
9.687894e-01
9.375801e-01
9.063681e-01
8.816175e-01
8.439259e-01
8.126303e-01
7.813762e-01
7.501164e-01
7.188546e-01
6.875933e-01
6.563322e-01
6.250720e-01
5.938127e-01
5.625543e-01
5.312943e-01
5.000604e-01
1.000000e+00
9.687730e-01
9.375480e-01
9.063240e-01
8.789771e-01
8.438503e-01
8.125775e-01
7.813249e-01
7.500692e-01
7.188122e-01
6.875555e-01
6.562989e-01
6.250427e-01
5.937871e-01
5.625321e-01
5.312751e-01
5.000438e-01
1.000000e+00
9.687439e-01
9.374936e-01
9.062434e-01
8.749934e-01
8.437468e-01
8.124969e-01
7.812476e-01
7.499979e-01
7.187481e-01
6.874983e-01
6.562484e-01
6.249985e-01
5.937485e-01
5.624985e-01
5.312459e-01
5.000185e-01
1.000000e+00
9.687187e-01
9.374493e-01
9.061584e-01
8.710141e-01
8.436554e-01
8.124154e-01
7.811703e-01
7.499265e-01
7.186840e-01
6.874410e-01
6.561978e-01
6.249541e-01
5.937097e-01
5.624647e-01
5.312166e-01
4.999931e-01
1.000000e+00
9.687009e-01
9.374187e-01
9.060946e-01
8.683747e-01
8.436020e-01
8.123607e-01
7.811190e-01
7.498791e-01
7.186413e-01
6.874029e-01
6.561641e-01
6.249244e-01
5.936837e-01
5.624420e-01
5.311968e-01
4.999759e-01
1.000000e+00
9.686993e-01
9.374153e-01
9.060841e-01
8.679678e-01
8.435944e-01
8.123521e-01
7.811108e-01
7.498714e-01
7.186342e-01
6.873963e-01
6.561582e-01
6.249190e-01
5.936789e-01
5.624377e-01
5.311930e-01
4.999725e-01
1.000000e+00
9.687122e-01
9.374373e-01
9.061337e-01
8.699279e-01
8.436330e-01
8.123925e-01
7.811482e-01
7.499056e-01
7.186646e-01
6.874232e-01
6.561816e-01
6.249394e-01
5.936965e-01
5.624528e-01
5.312059e-01
4.999836e-01
1.000000e+00
9.687353e-01
9.374783e-01
9.062163e-01
8.735964e-01
8.437132e-01
8.124673e-01
7.812183e-01
7.499697e-01
7.187218e-01
6.874739e-01
6.562260e-01
6.249781e-01
5.937300e-01
5.624818e-01
5.312309e-01
5.000052e-01
1.000000e+00
9.687641e-01
9.375314e-01
9.063014e-01
8.777376e-01
8.438158e-01
8.125503e-01
7.812972e-01
7.500420e-01
7.187863e-01
6.875310e-01
6.562761e-01
6.250218e-01
5.937680e-01
5.625147e-01
5.312593e-01
5.000296e-01
1.000000e+00
9.687860e-01
9.375714e-01
9.063578e-01
8.809547e-01
8.439046e-01
8.126136e-01
7.813581e-01
7.500979e-01
7.188363e-01
6.875754e-01
6.563150e-01
6.250558e-01
5.937975e-01
5.625403e-01
5.312814e-01
5.000487e-01
1.000000e+00
9.687936e-01
9.375851e-01
9.063750e-01
8.821629e-01
8.439396e-01
8.126371e-01
7.813810e-01
7.501189e-01
7.188551e-01
6.875921e-01
6.563297e-01
6.250686e-01
5.938086e-01
5.625499e-01
5.312898e-01
5.000559e-01
1.000000e+00
9.686823e-01
9.373831e-01
9.060189e-01
8.656327e-01
8.435509e-01
8.123020e-01
7.810642e-01
7.498285e-01
7.185955e-01
6.873620e-01
6.561279e-01
6.248924e-01
5.936557e-01
5.624176e-01
5.311756e-01
4.999574e-01
1.000000e+00
9.686951e-01
9.374066e-01
9.060671e-01
8.672111e-01
8.435787e-01
8.123352e-01
7.810951e-01
7.498570e-01
7.186212e-01
6.873849e-01
6.561481e-01
6.249102e-01
5.936713e-01
5.624311e-01
5.311873e-01
4.999676e-01
1.000000e+00
9.687171e-01
9.374477e-01
9.061643e-01
8.714115e-01
8.436630e-01
8.124225e-01
7.811769e-01
7.499325e-01
7.186891e-01
6.874456e-01
6.562017e-01
6.249572e-01
5.937124e-01
5.624669e-01
5.312185e-01
4.999946e-01
1.000000e+00
9.687546e-01
9.375136e-01
9.062782e-01
8.768181e-01
8.437920e-01
8.125332e-01
7.812823e-01
7.500299e-01
7.187767e-01
6.875237e-01
6.562707e-01
6.250179e-01
5.937654e-01
5.625131e-01
5.312586e-01
5.000294e-01
1.000000e+00
9.687931e-01
9.375842e-01
9.063735e-01
8.816187e-01
8.439251e-01
8.126299e-01
7.813759e-01
7.501162e-01
7.188544e-01
6.875930e-01
6.563320e-01
6.250717e-01
5.938124e-01
5.625540e-01
5.312941e-01
5.000602e-01
1.000000e+00
9.688063e-01
9.376097e-01
9.064036e-01
8.841815e-01
8.440042e-01
8.126811e-01
7.814261e-01
7.501625e-01
7.188960e-01
6.876302e-01
6.563649e-01
6.251006e-01
5.938377e-01
5.625761e-01
5.313132e-01
5.000768e-01
1.000000e+00
9.688041e-01
9.376064e-01
9.064000e-01
8.836477e-01
8.439876e-01
8.126707e-01
7.814159e-01
7.501531e-01
7.188877e-01
6.876228e-01
6.563584e-01
6.250950e-01
5.938328e-01
5.625718e-01
5.313096e-01
5.000737e-01
1.000000e+00
9.687801e-01
9.375648e-01
9.063497e-01
8.801991e-01
8.438843e-01
8.126020e-01
7.813489e-01
7.500914e-01
7.188323e-01
6.875734e-01
6.563148e-01
6.250568e-01
5.937995e-01
5.625429e-01
5.312844e-01
5.000519e-01
1.000000e+00
9.687421e-01
9.374895e-01
9.062368e-01
8.749905e-01
8.437467e-01
8.124969e-01
7.812479e-01
7.499982e-01
7.187485e-01
6.874987e-01
6.562489e-01
6.249989e-01
5.937490e-01
5.624989e-01
5.312463e-01
5.000189e-01
1.000000e+00
9.687078e-01
9.374334e-01
9.061301e-01
8.697972e-01
8.436295e-01
8.123902e-01
7.811468e-01
7.499050e-01
7.186648e-01
6.874240e-01
6.561828e-01
6.249409e-01
5.936983e-01
5.624548e-01
5.312080e-01
4.999857e-01
1.000000e+00
9.686886e-01
9.373963e-01
9.060440e-01
8.663447e-01
8.435644e-01
8.123185e-01
7.810798e-01
7.498431e-01
7.186090e-01
6.873741e-01
6.561387e-01
6.249021e-01
5.936643e-01
5.624252e-01
5.311822e-01
4.999633e-01
1.000000e+00
9.686842e-01
9.373863e-01
9.060254e-01
8.658142e-01
8.435553e-01
8.123072e-01
7.810691e-01
7.498330e-01
7.185997e-01
6.873656e-01
6.561310e-01
6.248952e-01
5.936581e-01
5.624196e-01
5.311772e-01
4.999589e-01
1.000000e+00
9.687036e-01
9.374211e-01
9.060976e-01
8.683766e-01
8.436019e-01
8.123602e-01
7.811180e-01
7.498776e-01
7.186394e-01
6.874006e-01
6.561616e-01
6.249218e-01
5.936810e-01
5.624393e-01
5.311942e-01
4.999734e-01
1.000000e+00
9.687295e-01
9.374687e-01
9.062031e-01
8.731664e-01
8.437031e-01
8.124581e-01
7.812096e-01
7.499615e-01
7.187142e-01
6.874668e-01
6.562196e-01
6.249723e-01
5.937248e-01
5.624772e-01
5.312269e-01
5.000015e-01
1.000000e+00
9.687680e-01
9.375410e-01
9.063191e-01
8.785778e-01
8.438381e-01
8.125665e-01
7.813126e-01
7.500559e-01
7.187985e-01
6.875415e-01
6.562851e-01
6.250295e-01
5.937744e-01
5.625202e-01
5.312639e-01
5.000335e-01
1.000000e+00
9.688002e-01
9.375975e-01
9.063913e-01
8.827811e-01
8.439583e-01
8.126490e-01
7.813923e-01