<?xml version="1.0"?>
<VTKFile type="StructuredGrid" version="0.1">
  <StructuredGrid WholeExtent="0 16 0 16 0 16">
    <Piece Extent="0 16 0 16 0 16">
      <PointData Scalars="temperature" Vectors="velocity">
        <DataArray type="Float32" Name="temperature" format="ascii">
1.000000e+00
9.689482e-01
9.378852e-01
9.067710e-01
8.854391e-01
8.446571e-01
8.131521e-01
7.818876e-01
7.505942e-01
7.192899e-01
6.879867e-01
6.566845e-01
6.253857e-01
5.940907e-01
5.628000e-01
5.315058e-01
5.002910e-01
1.000000e+00
9.689286e-01
9.378420e-01
9.067354e-01
8.836843e-01
8.444829e-01
8.130414e-01
7.817783e-01
7.504921e-01
7.191967e-01
6.879023e-01
6.566088e-01
6.253183e-01
5.940309e-01
5.627471e-01
5.314592e-01
5.002498e-01
1.000000e+00
9.688091e-01
9.376352e-01
9.064832e-01
8.789826e-01
8.440608e-01
8.127440e-01
7.814872e-01
7.502203e-01
7.189491e-01
6.876784e-01
6.564082e-01
6.251394e-01
5.938721e-01
5.626066e-01
5.313352e-01
5.001404e-01
1.000000e+00
9.686771e-01
9.373843e-01
9.060593e-01
8.729343e-01
8.435879e-01
8.123563e-01
7.811129e-01
7.498707e-01
7.186308e-01
6.873906e-01
6.561504e-01
6.249096e-01
5.936681e-01
5.624259e-01
5.311757e-01
4.999995e-01
1.000000e+00
9.685844e-01
9.372320e-01
9.057143e-01
8.676415e-01
8.432395e-01
8.120075e-01
7.807815e-01
7.495614e-01
7.183490e-01
6.871358e-01
6.559221e-01
6.247059e-01
5.934872e-01
5.622656e-01
5.310341e-01
4.998745e-01
1.000000e+00
9.685253e-01
9.371157e-01
9.054781e-01
8.647435e-01
8.430844e-01
8.118192e-01
7.806052e-01
7.493957e-01
7.181981e-01
6.869992e-01
6.557994e-01
6.245965e-01
5.933900e-01
5.621794e-01
5.309579e-01
4.998072e-01
1.000000e+00
9.685410e-01
9.371458e-01
9.055430e-01
8.653449e-01
8.431143e-01
8.118578e-01
7.806411e-01
7.494290e-01
7.182282e-01
6.870262e-01
6.558235e-01
6.246178e-01
5.934087e-01
5.621959e-01
5.309725e-01
4.998200e-01
1.000000e+00
9.686022e-01
9.372666e-01
9.058305e-01
8.692091e-01
8.433375e-01
8.121087e-01
7.808769e-01
7.496498e-01
7.184289e-01
6.872075e-01
6.559858e-01
6.247623e-01
5.935369e-01
5.623094e-01
5.310725e-01
4.999082e-01
1.000000e+00
9.687239e-01
9.374637e-01
9.061936e-01
8.749578e-01
8.437355e-01
8.124839e-01
7.812348e-01
7.499835e-01
7.187326e-01
6.874820e-01
6.562316e-01
6.249813e-01
5.937313e-01
5.624815e-01
5.312244e-01
5.000423e-01
1.000000e+00
9.688487e-01
9.377168e-01
9.065955e-01
8.807960e-01
8.442159e-01
8.128533e-01
7.815932e-01
7.503182e-01
7.190374e-01
6.877575e-01
6.564785e-01
6.252016e-01
5.939269e-01
5.626547e-01
5.313775e-01
5.001775e-01
1.000000e+00
9.689425e-01
9.378732e-01
9.067706e-01
8.846406e-01
8.445708e-01
8.130970e-01
7.818323e-01
7.505414e-01
7.192411e-01
6.879421e-01
6.566443e-01
6.253498e-01
5.940589e-01
5.627719e-01
5.314813e-01
5.002694e-01
1.000000e+00
9.689449e-01
9.378777e-01
9.067629e-01
8.852369e-01
8.446324e-01
8.131360e-01
7.818717e-01
7.505792e-01
7.192766e-01
6.879752e-01
6.566748e-01
6.253779e-01
5.940846e-01
5.627954e-01
5.315026e-01
5.002888e-01
1.000000e+00
9.689016e-01
9.377910e-01
9.066687e-01
8.823818e-01
8.443599e-01
8.129593e-01
7.816997e-01
7.504208e-01
7.191341e-01
6.878480e-01
6.565623e-01
6.252789e-01
5.939980e-01
5.627197e-01
5.314367e-01
5.002314e-01
1.000000e+00
9.687676e-01
9.375480e-01
9.063462e-01
8.770122e-01
8.439015e-01
8.126259e-01
7.813770e-01
7.501220e-01
7.188642e-01
6.876061e-01
6.563476e-01
6.250891e-01
5.938309e-01
5.625730e-01
5.313082e-01
5.001188e-01
1.000000e+00
9.686381e-01
9.373203e-01
9.059581e-01
8.709956e-01
8.434626e-01
8.122449e-01
7.810138e-01
7.497854e-01
7.185600e-01
6.873332e-01
6.561049e-01
6.248743e-01
5.936415e-01
5.624065e-01
5.311622e-01
4.999907e-01
1.000000e+00
9.685662e-01
9.371856e-01
9.056328e-01
8.663225e-01
8.431824e-01
8.119461e-01
7.807332e-01
7.495251e-01
7.183245e-01
6.871215e-01
6.559163e-01
6.247073e-01
5.934943e-01
5.622769e-01
5.310485e-01
4.998909e-01
1.000000e+00
9.685229e-01
9.371054e-01
9.054670e-01
8.645588e-01
8.430927e-01
8.118333e-01
7.806277e-01
7.494270e-01
7.182354e-01
6.870413e-01
6.558447e-01
6.246438e-01
5.934382e-01
5.622276e-01
5.310052e-01
4.998528e-01
1.000000e+00
9.689329e-01
9.378545e-01
9.067392e-01
8.846438e-01
8.445784e-01
8.131020e-01
7.818381e-01
7.505480e-01
7.192478e-01
6.879486e-01
6.566505e-01
6.253556e-01
5.940641e-01
5.627766e-01
5.314852e-01
5.002728e-01
1.000000e+00
9.689127e-01
9.378125e-01
9.066994e-01
8.830190e-01
8.444207e-01
8.129997e-01
7.817371e-01
7.504536e-01
7.191617e-01
6.878707e-01
6.565806e-01
6.252933e-01
5.940088e-01
5.627277e-01
5.314421e-01
5.002348e-01
1.000000e+00
9.688050e-01
9.376258e-01
9.064662e-01
8.786783e-01
8.440345e-01
8.127248e-01
7.814683e-01
7.502025e-01
7.189330e-01
6.876639e-01
6.563953e-01
6.251280e-01
5.938621e-01
5.625978e-01
5.313275e-01
5.001336e-01
1.000000e+00
9.686830e-01
9.373946e-01
9.060825e-01
8.730916e-01
8.435996e-01
8.123666e-01
7.811225e-01
7.498797e-01
7.186390e-01
6.873981e-01
6.561571e-01
6.249157e-01
5.936736e-01
5.624308e-01
5.311801e-01
5.000035e-01
1.000000e+00
9.685990e-01
9.372498e-01
9.057608e-01
8.681884e-01
8.432741e-01
8.120447e-01
7.808164e-01
7.495939e-01
7.183787e-01
6.871626e-01
6.559461e-01
6.247274e-01
5.935064e-01
5.622827e-01
5.310493e-01
4.998880e-01
1.000000e+00
9.685411e-01
9.371403e-01
9.055409e-01
8.655230e-01
8.431268e-01
8.118708e-01
7.806531e-01
7.494409e-01
7.182393e-01
6.870364e-01
6.558328e-01
6.246263e-01
5.934165e-01
5.622030e-01
5.309789e-01
4.998258e-01
1.000000e+00
9.685552e-01
9.371692e-01
9.055974e-01
8.660734e-01
8.431556e-01
8.119064e-01
7.806863e-01
7.494717e-01
7.182671e-01
6.870614e-01
6.558550e-01
6.246459e-01
5.934339e-01
5.622183e-01
5.309923e-01
4.998376e-01
1.000000e+00
9.686166e-01
9.372882e-01
9.058676e-01
8.696414e-01
8.433645e-01
8.121382e-01
7.809046e-01
7.496757e-01
7.184526e-01
6.872289e-01
6.560050e-01
6.247795e-01
5.935524e-01
5.623231e-01
5.310848e-01
4.999191e-01
1.000000e+00
9.687250e-01
9.374665e-01
9.062033e-01
8.749650e-01
8.437359e-01
8.124846e-01
7.812352e-01
7.499840e-01
7.187332e-01
6.874826e-01
6.562322e-01
6.249820e-01
5.937320e-01
5.624821e-01
5.312251e-01
5.000429e-01
1.000000e+00
9.688431e-01
9.377019e-01
9.065673e-01
8.803530e-01
8.441748e-01
8.128260e-01
7.815663e-01
7.502932e-01
7.190147e-01
6.877372e-01
6.564604e-01
6.251856e-01
5.939128e-01
5.626423e-01
5.313665e-01
5.001678e-01
1.000000e+00
9.689249e-01
9.378403e-01
9.067290e-01
8.839043e-01
8.445009e-01
8.130509e-01
7.817870e-01
7.504994e-01
7.192029e-01
6.879078e-01
6.566136e-01
6.253226e-01
5.940347e-01
5.627506e-01
5.314624e-01
5.002527e-01
1.000000e+00
9.689290e-01
9.378467e-01
9.067306e-01
8.844564e-01
8.445564e-01
8.130870e-01
7.818233e-01
7.505343e-01
7.192357e-01
6.879383e-01
6.566418e-01
6.253485e-01
5.940585e-01
5.627723e-01
5.314822e-01
5.002706e-01
1.000000e+00
9.688875e-01
9.377647e-01
9.066367e-01
8.818148e-01
8.443086e-01
8.129239e-01
7.816647e-01
7.503880e-01
7.191041e-01
6.878208e-01
6.565379e-01
6.252570e-01
5.939784e-01
5.627023e-01
5.314213e-01
5.002176e-01
1.000000e+00
9.687661e-01
9.375453e-01
9.063422e-01
8.768591e-01
8.438890e-01
8.126156e-01
7.813666e-01
7.501119e-01
7.188548e-01
6.875974e-01
6.563395e-01
6.250816e-01
5.938240e-01
5.625667e-01
5.313025e-01
5.001136e-01
1.000000e+00
9.686482e-01
9.373373e-01
9.059854e-01
8.712962e-01
8.434829e-01
8.122637e-01
7.810310e-01
7.498010e-01
7.185738e-01
6.873452e-01
6.561153e-01
6.248832e-01
5.936491e-01
5.624128e-01
5.311675e-01
4.999952e-01
1.000000e+00
9.685783e-01
9.372067e-01
9.056825e-01
8.669763e-01
8.432193e-01
8.119880e-01
7.807717e-01
7.495605e-01
7.183562e-01
6.871497e-01
6.559412e-01
6.247289e-01
5.935130e-01
5.622931e-01
5.310625e-01
4.999030e-01
1.000000e+00
9.685392e-01
9.371346e-01
9.055347e-01
8.653525e-01
8.431335e-01
8.118840e-01
7.806743e-01
7.494698e-01
7.182739e-01
6.870755e-01
6.558749e-01
6.246703e-01
5.934612e-01
5.622475e-01
5.310224e-01
4.998678e-01
1.000000e+00
9.688915e-01
9.377812e-01
9.066466e-01
8.823769e-01
8.443621e-01
8.129592e-01
7.816973e-01
7.504167e-01
7.191283e-01
6.878408e-01
6.565541e-01
6.252699e-01
5.939882e-01
5.627096e-01
5.314263e-01
5.002209e-01
1.000000e+00
9.688637e-01
9.377301e-01
9.065928e-01
8.811302e-01
8.442480e-01
8.128807e-01
7.816200e-01
7.503445e-01
7.190625e-01
6.877813e-01
6.565007e-01
6.252223e-01
5.939460e-01
5.626722e-01
5.313933e-01
5.001918e-01
1.000000e+00
9.687940e-01
9.375980e-01
9.064125e-01
8.778113e-01
8.439622e-01
8.126699e-01
7.814144e-01
7.501525e-01
7.188876e-01
6.876230e-01
6.563589e-01
6.250958e-01
5.938337e-01
5.625728e-01
5.313056e-01
5.001143e-01
1.000000e+00
9.687011e-01
9.374260e-01
9.061354e-01
8.735390e-01
8.436325e-01
8.123958e-01
7.811500e-01
7.499055e-01
7.186626e-01
6.874196e-01
6.561766e-01
6.249332e-01
5.936893e-01
5.624449e-01
5.311927e-01
5.000147e-01
1.000000e+00
9.686305e-01
9.373007e-01
9.058820e-01
8.697660e-01
8.433751e-01
8.121500e-01
7.809157e-01
7.496867e-01
7.184633e-01
6.872393e-01
6.560149e-01
6.247890e-01
5.935614e-01
5.623315e-01
5.310926e-01
4.999264e-01
1.000000e+00
9.685883e-01
9.372298e-01
9.057314e-01
8.677435e-01
8.432525e-01
8.120173e-01
7.807903e-01
7.495696e-01
7.183566e-01
6.871426e-01
6.559282e-01
6.247116e-01
5.934926e-01
5.622706e-01
5.310388e-01
4.998789e-01
1.000000e+00
9.685942e-01
9.372418e-01
9.057637e-01
8.681622e-01
8.432771e-01
8.120444e-01
7.808157e-01
7.495932e-01
7.183779e-01
6.871618e-01
6.559452e-01
6.247266e-01
5.935059e-01
5.622822e-01
5.310490e-01
4.998879e-01
1.000000e+00
9.686509e-01
9.373385e-01
9.059616e-01
8.708832e-01
8.434466e-01
8.122215e-01
7.809833e-01
7.497493e-01
7.185199e-01
6.872901e-01
6.560601e-01
6.248289e-01
5.935965e-01
5.623625e-01
5.311197e-01
4.999502e-01
1.000000e+00
9.687308e-01
9.374789e-01
9.062263e-01
8.749777e-01
8.437372e-01
8.124862e-01
7.812363e-01
7.499854e-01
7.187348e-01
6.874844e-01
6.562341e-01
6.249840e-01
5.937340e-01
5.624841e-01
5.312270e-01
5.000448e-01
1.000000e+00
9.688223e-01
9.376519e-01
9.064858e-01
8.790896e-01
8.440657e-01
8.127479e-01
7.814898e-01
7.502221e-01
7.189503e-01
6.876793e-01
6.564089e-01
6.251399e-01
5.938723e-01
5.626066e-01
5.313352e-01
5.001403e-01
1.000000e+00
9.688754e-01
9.377539e-01
9.066242e-01
8.818102e-01
8.443066e-01
8.129202e-01
7.816585e-01
7.503799e-01
7.190944e-01
6.878099e-01
6.565262e-01
6.252447e-01
5.939657e-01
5.626895e-01
5.314085e-01
5.002052e-01
1.000000e+00
9.688885e-01
9.377746e-01
9.066451e-01
8.822323e-01
8.443464e-01
8.129479e-01
7.816864e-01
7.504066e-01
7.191194e-01
6.878333e-01
6.565478e-01
6.252646e-01
5.939839e-01
5.627061e-01
5.314236e-01
5.002189e-01
1.000000e+00
9.688453e-01
9.376920e-01
9.065434e-01
8.802081e-01
8.441658e-01
8.128229e-01
7.815651e-01
7.502947e-01
7.190187e-01
6.877433e-01
6.564682e-01
6.251946e-01
5.939226e-01
5.626526e-01
5.313770e-01
5.001783e-01
1.000000e+00
9.687630e-01
9.375384e-01
9.063236e-01
8.764229e-01
8.438536e-01
8.125865e-01
7.813370e-01
7.500834e-01
7.188279e-01
6.875723e-01
6.563163e-01
6.250602e-01
5.938044e-01
5.625487e-01
5.312861e-01
5.000987e-01
1.000000e+00
9.686756e-01
9.373810e-01
9.060517e-01
8.721597e-01
8.435412e-01
8.123174e-01
7.810802e-01
7.498454e-01
7.186128e-01
6.873793e-01
6.561446e-01
6.249083e-01
5.936705e-01
5.624309e-01
5.311828e-01
5.000081e-01
1.000000e+00
9.686129e-01
9.372663e-01
9.058181e-01
8.688512e-01
8.433290e-01
8.121070e-01
7.808817e-01
7.496613e-01
7.184463e-01
6.872297e-01
6.560114e-01
6.247903e-01
5.935663e-01
5.623393e-01
5.311023e-01
4.999374e-01
1.000000e+00
9.685862e-01
9.372181e-01
9.057192e-01
8.676120e-01
8.432570e-01
8.120276e-01
7.808070e-01
7.495919e-01
7.183833e-01
6.871729e-01
6.559608e-01
6.247454e-01
5.935266e-01
5.623043e-01
5.310717e-01
4.999105e-01
1.000000e+00
9.688180e-01
9.376508e-01
9.064837e-01
8.789847e-01
8.440607e-01
8.127446e-01
7.814873e-01
7.502208e-01
7.189501e-01
6.876800e-01
6.564102e-01
6.251417e-01
5.938747e-01
5.626092e-01
5.313379e-01
5.001430e-01
1.000000e+00
9.688013e-01
9.376164e-01
9.064387e-01
8.783109e-01
8.440040e-01
8.127018e-01
7.814455e-01
7.501818e-01
7.189146e-01
6.876479e-01
6.563814e-01
6.251161e-01
5.938519e-01
5.625891e-01
5.313201e-01
5.001273e-01
1.000000e+00
9.687715e-01
9.375505e-01
9.063336e-01
8.765166e-01
8.438579e-01
8.125874e-01
7.813343e-01
7.500779e-01
7.188200e-01
6.875623e-01
6.563047e-01
6.250476e-01
5.937911e-01
5.625352e-01
5.312726e-01
5.000854e-01
1.000000e+00
9.687223e-01
9.374615e-01
9.061897e-01
8.742066e-01
8.436813e-01
8.124391e-01
7.811912e-01
7.499442e-01
7.186982e-01
6.874520e-01
6.562059e-01
6.249596e-01
5.937130e-01
5.624660e-01
5.312116e-01
5.000315e-01
1.000000e+00
9.686768e-01
9.373832e-01
9.060524e-01
8.721591e-01
8.435349e-01
8.123064e-01
7.810644e-01
7.498258e-01
7.185903e-01
6.873544e-01
6.561183e-01
6.248815e-01
5.936437e-01
5.624047e-01
5.311574e-01
4.999837e-01
1.000000e+00
9.686495e-01
9.373428e-01
9.059822e-01
8.710705e-01
8.434605e-01
8.122349e-01
7.809965e-01
7.497623e-01
7.185325e-01
6.873020e-01
6.560713e-01
6.248395e-01
5.936065e-01
5.623717e-01
5.311283e-01
4.999580e-01
1.000000e+00
9.686551e-01
9.373489e-01
9.059948e-01
8.712954e-01
8.434757e-01
8.122495e-01
7.810102e-01
7.497751e-01
7.185440e-01
6.873124e-01
6.560805e-01
6.248476e-01
5.936137e-01
5.623780e-01
5.311338e-01
4.999628e-01
1.000000e+00
9.686932e-01
9.374079e-01
9.060937e-01
8.727638e-01
8.435767e-01
8.123451e-01
7.811010e-01
7.498597e-01
7.186209e-01
6.873819e-01
6.561428e-01
6.249030e-01
5.936627e-01
5.624214e-01
5.311720e-01
4.999965e-01
1.000000e+00
9.687373e-01
9.374896e-01
9.062394e-01
8.749865e-01
8.437386e-01
8.124882e-01
7.812381e-01
7.499876e-01
7.187373e-01
6.874871e-01
6.562370e-01
6.249870e-01
5.937370e-01
5.624871e-01
5.312299e-01
5.000476e-01
1.000000e+00
9.687853e-01
9.375768e-01
9.063740e-01
8.772065e-01
8.439119e-01
8.126301e-01
7.813754e-01
7.501157e-01
7.188540e-01
6.875927e-01
6.563317e-01
6.250714e-01
5.938118e-01
5.625533e-01
5.312884e-01
5.000992e-01
1.000000e+00
9.688087e-01
9.376307e-01
9.064621e-01
8.786802e-01
8.440332e-01
8.127238e-01
7.814667e-01
7.502012e-01
7.189319e-01
6.876634e-01
6.563952e-01
6.251281e-01
5.938623e-01
5.625981e-01
5.313280e-01
5.001342e-01
1.000000e+00
9.688143e-01
9.376441e-01
9.064815e-01
8.789089e-01
8.440527e-01
8.127388e-01
7.814818e-01
7.502156e-01
7.189455e-01
6.876760e-01
6.564069e-01
6.251389e-01
5.938722e-01
5.626071e-01
5.313361e-01
5.001416e-01
1.000000e+00
9.687919e-01
9.375962e-01
9.064095e-01
8.778131e-01
8.439625e-01
8.126708e-01
7.814162e-01
7.501551e-01
7.188910e-01
6.876273e-01
6.563638e-01
6.251009e-01
5.938390e-01
5.625781e-01
5.313109e-01
5.001197e-01
1.000000e+00
9.687549e-01
9.375208e-01
9.062880e-01
8.757674e-01
8.438009e-01
8.125426e-01
7.812927e-01
7.500407e-01
7.187877e-01
6.875347e-01
6.562814e-01
6.250282e-01
5.937750e-01
5.625219e-01
5.312617e-01
5.000766e-01
1.000000e+00
9.687072e-01
9.374340e-01
9.061412e-01
8.734591e-01
8.436306e-01
8.123971e-01
7.811537e-01
7.499119e-01
7.186713e-01
6.874302e-01
6.561884e-01
6.249459e-01
5.937025e-01
5.624581e-01
5.312058e-01
5.000275e-01
1.000000e+00
9.686702e-01
9.373676e-01
9.060187e-01
8.716663e-01
8.435074e-01
8.122836e-01
7.810463e-01
7.498122e-01
7.185811e-01
6.873492e-01
6.561163e-01
6.248819e-01
5.936460e-01
5.624085e-01
5.311622e-01
4.999893e-01
1.000000e+00
9.686565e-01
9.373437e-01
9.059719e-01
8.709939e-01
8.434634e-01
8.122408e-01
7.810058e-01
7.497746e-01
7.185470e-01
6.873184e-01
6.560889e-01
6.248576e-01
5.936245e-01
5.623895e-01
5.311455e-01
4.999746e-01
1.000000e+00
9.687308e-01
9.374793e-01
9.062353e-01
8.749851e-01
8.437400e-01
8.124892e-01
7.812402e-01
7.499902e-01
7.187404e-01
6.874905e-01
6.562407e-01
6.249908e-01
5.937409e-01
5.624909e-01
5.312337e-01
5.000512e-01
1.000000e+00
9.687352e-01
9.374854e-01
9.062371e-01
8.749866e-01
8.437399e-01
8.124894e-01
7.812402e-01
7.499903e-01
7.187405e-01
6.874906e-01
6.562408e-01
6.249909e-01
5.937410e-01
5.624910e-01
5.312337e-01
5.000512e-01
1.000000e+00
9.687390e-01
9.374909e-01
9.062398e-01
8.749890e-01
8.437397e-01
8.124898e-01
7.812401e-01
7.499901e-01
7.187403e-01
6.874905e-01
6.562406e-01
6.249908e-01
5.937408e-01
5.624909e-01
5.312337e-01
5.000512e-01
1.000000e+00
9.687393e-01
9.374914e-01
9.062405e-01
8.749894e-01
8.437396e-01
8.124898e-01
7.812401e-01
7.499900e-01
7.187402e-01
6.874903e-01
6.562405e-01
6.249906e-01
5.937407e-01
5.624908e-01
5.312336e-01
5.000511e-01
1.000000e+00
9.687360e-01
9.374864e-01
9.062365e-01
8.749869e-01
8.437396e-01
8.124894e-01
7.812400e-01
7.499900e-01
7.187402e-01
6.874903e-01
6.562404e-01
6.249905e-01
5.937407e-01
5.624908e-01
5.312335e-01
5.000511e-01
1.000000e+00
9.687313e-01
9.374780e-01
9.062307e-01
8.749847e-01
8.437395e-01
8.124890e-01
7.812400e-01
7.499900e-01
7.187402e-01
6.874903e-01
6.562403e-01
6.249905e-01
5.937406e-01
5.624908e-01
5.312335e-01
5.000510e-01
1.000000e+00
9.687327e-01
9.374812e-01
9.062330e-01
8.749850e-01
8.437397e-01
8.124892e-01
7.812400e-01
7.499900e-01
7.187402e-01
6.874903e-01
6.562403e-01
6.249904e-01
5.937406e-01
5.624907e-01
5.312335e-01
5.000510e-01
1.000000e+00
9.687368e-01
9.374889e-01
9.062391e-01
8.749880e-01
8.437397e-01
8.124896e-01
7.812401e-01
7.499900e-01
7.187402e-01
6.874903e-01
6.562404e-01
6.249904e-01
5.937406e-01
5.624907e-01
5.312334e-01
5.000509e-01
1.000000e+00
9.687393e-01
9.374913e-01
9.062406e-01
8.749898e-01
8.437397e-01
8.124900e-01
7.812402e-01
7.499901e-01
7.187403e-01
6.874904e-01
6.562405e-01
6.249905e-01
5.937406e-01
5.624907e-01
5.312334e-01
5.000509e-01
1.000000e+00
9.687373e-01
9.374897e-01
9.062395e-01
8.749883e-01
8.437398e-01
8.124898e-01
7.812403e-01
7.499903e-01
7.187404e-01
6.874905e-01
6.562406e-01
6.249907e-01
5.937407e-01
5.624906e-01
5.312334e-01
5.000509e-01
1.000000e+00
9.687335e-01
9.374829e-01
9.062340e-01
8.749852e-01
8.437398e-01
8.124895e-01
7.812404e-01
7.499904e-01
7.187404e-01
6.874906e-01
6.562407e-01
6.249908e-01
5.937407e-01
5.624906e-01
5.312334e-01
5.000509e-01
1.000000e+00
9.687314e-01
9.374784e-01
9.062307e-01
8.749841e-01
8.437397e-01
8.124894e-01
7.812404e-01
7.499905e-01
7.187405e-01
6.874906e-01
6.562407e-01
6.249908e-01
5.937407e-01
5.624906e-01
5.312334e-01
5.000509e-01
1.000000e+00
9.687360e-01
9.374864e-01
9.062363e-01
8.749863e-01
8.437398e-01
8.124898e-01
7.812404e-01
7.499904e-01
7.187404e-01
6.874905e-01
6.562406e-01
6.249907e-01
5.937406e-01
5.624906e-01
5.312333e-01
5.000508e-01
1.000000e+00
9.687389e-01
9.374911e-01
9.062406e-01
8.749895e-01
8.437398e-01
8.124901e-01
7.812404e-01
7.499904e-01
7.187404e-01
6.874904e-01
6.562405e-01
6.249905e-01
5.937405e-01
5.624905e-01
5.312332e-01
5.000507e-01
1.000000e+00
9.687378e-01
9.374900e-01
9.062401e-01
8.749897e-01
8.437400e-01
8.124900e-01
7.812403e-01
7.499903e-01
7.187403e-01
6.874903e-01
6.562403e-01
6.249904e-01
5.937404e-01
5.624904e-01
5.312331e-01
5.000506e-01
1.000000e+00
9.687366e-01
9.374899e-01
9.062387e-01
8.749873e-01
8.437402e-01
8.124895e-01
7.812403e-01
7.499902e-01
7.187402e-01
6.874902e-01
6.562402e-01
6.249903e-01
5.937403e-01
5.624903e-01
5.312331e-01
5.000506e-01
1.000000e+00
9.687353e-01
9.374895e-01
9.062376e-01
8.749854e-01
8.437401e-01
8.124891e-01
7.812401e-01
7.499900e-01
7.187400e-01
6.874901e-01
6.562401e-01
6.249901e-01
5.937401e-01
5.624902e-01
5.312329e-01
5.000504e-01
1.000000e+00
9.686502e-01
9.373448e-01
9.059768e-01
8.709886e-01
8.434564e-01
8.122308e-01
7.809933e-01
7.497600e-01
7.185310e-01
6.873014e-01
6.560715e-01
6.248400e-01
5.936073e-01
5.623728e-01
5.311296e-01
4.999594e-01
1.000000e+00
9.686651e-01
9.373649e-01
9.060182e-01
8.716618e-01
8.435014e-01
8.122749e-01
7.810351e-01
7.497990e-01
7.185665e-01
6.873335e-01
6.561003e-01
6.248658e-01
5.936302e-01
5.623930e-01
5.311475e-01
4.999753e-01
1.000000e+00
9.687077e-01
9.374341e-01
9.061398e-01
8.734562e-01
8.436267e-01
8.123912e-01
7.811460e-01
7.499024e-01
7.186607e-01
6.874187e-01
6.561766e-01
6.249339e-01
5.936906e-01
5.624466e-01
5.311947e-01
5.000170e-01
1.000000e+00
9.687542e-01
9.375203e-01
9.062880e-01
8.757665e-01
8.437991e-01
8.125398e-01
7.812888e-01
7.500358e-01
7.187822e-01
6.875286e-01
6.562750e-01
6.250216e-01
5.937685e-01
5.625156e-01
5.312556e-01
5.000707e-01
1.000000e+00
9.687917e-01
9.375966e-01
9.064101e-01
8.778131e-01
8.439624e-01
8.126706e-01
7.814157e-01
7.501542e-01
7.188901e-01
6.876262e-01
6.563624e-01
6.250995e-01
5.938376e-01
5.625768e-01
5.313096e-01
5.001184e-01
1.000000e+00
9.688138e-01
9.376445e-01
9.064833e-01
8.789106e-01
8.440538e-01
8.127403e-01
7.814837e-01
7.502177e-01
7.189479e-01
6.876785e-01
6.564094e-01
6.251414e-01
5.938748e-01
5.626097e-01
5.313386e-01
5.001440e-01
1.000000e+00
9.688083e-01
9.376315e-01
9.064658e-01
8.786817e-01
8.440349e-01
8.127261e-01
7.814699e-01
7.502050e-01
7.189364e-01
6.876682e-01
6.564002e-01
6.251332e-01
5.938676e-01
5.626034e-01
5.313330e-01
5.001390e-01
1.000000e+00
9.687845e-01
9.375759e-01
9.063747e-01
8.772071e-01
8.439138e-01
8.126329e-01
7.813792e-01
7.501204e-01
7.188595e-01
6.875987e-01
6.563380e-01
6.250779e-01
5.938185e-01
5.625600e-01
5.312948e-01
5.001054e-01
1.000000e+00
9.687374e-01
9.374898e-01
9.062400e-01
8.749874e-01
8.437406e-01
8.124912e-01
7.812423e-01
7.499928e-01
7.187433e-01
6.874937e-01
6.562440e-01
6.249942e-01
5.937443e-01
5.624943e-01
5.312369e-01
5.000543e-01
1.000000e+00
9.686939e-01
9.374091e-01
9.060942e-01
8.727650e-01
8.435787e-01
8.123482e-01
7.811053e-01
7.498650e-01
7.186269e-01
6.873885e-01
6.561497e-01
6.249101e-01
5.936697e-01
5.624282e-01
5.311786e-01
5.000028e-01
1.000000e+00
9.686563e-01
9.373503e-01
9.059940e-01
8.712951e-01
8.434777e-01
8.122526e-01
7.810142e-01
7.497800e-01
7.185493e-01
6.873181e-01
6.560865e-01
6.248536e-01
5.936194e-01
5.623835e-01
5.311390e-01
4.999678e-01
1.000000e+00
9.686503e-01
9.373440e-01
9.059828e-01
8.710700e-01
8.434621e-01
8.122372e-01
7.809993e-01
7.497656e-01
7.185358e-01
6.873055e-01
6.560748e-01
6.248429e-01
5.936096e-01
5.623745e-01
5.311309e-01
4.999604e-01
1.000000e+00
9.686768e-01
9.373835e-01
9.060526e-01
8.721602e-01
8.435355e-01
8.123070e-01
7.810648e-01
7.498261e-01
7.185902e-01
6.873540e-01
6.561177e-01
6.248806e-01
5.936426e-01
5.624033e-01
5.311559e-01
4.999821e-01
1.000000e+00
9.687229e-01
9.374624e-01
9.061896e-01
8.742066e-01
8.436801e-01
8.124370e-01
7.811881e-01
7.499401e-01
7.186931e-01
6.874464e-01
6.561997e-01
6.249531e-01
5.937063e-01
5.624592e-01
5.312048e-01
5.000250e-01
1.000000e+00
9.687704e-01
9.375492e-01
9.063325e-01
8.765157e-01
8.438543e-01
8.125820e-01
7.813269e-01
7.500687e-01
7.188093e-01
6.875506e-01
6.562925e-01
6.250351e-01
5.937785e-01
5.625228e-01
5.312606e-01
5.000738e-01
1.000000e+00
9.688055e-01
9.376153e-01
9.064335e-01
8.783082e-01
8.439978e-01
8.126932e-01
7.814343e-01
7.501683e-01
7.188994e-01
6.876315e-01
6.563644e-01
6.250988e-01
5.938348e-01
5.625723e-01
5.313040e-01
5.001120e-01
1.000000e+00
9.688198e-01
9.376414e-01
9.064696e-01
8.789803e-01
8.440530e-01
8.127344e-01
7.814745e-01
7.502056e-01
7.189333e-01
6.876619e-01
6.563915e-01
6.251228e-01
5.938559e-01
5.625910e-01
5.313203e-01
5.001263e-01
1.000000e+00
9.685857e-01
9.372239e-01
9.057151e-01
8.676013e-01
8.432450e-01
8.120094e-01
7.807842e-01
7.495651e-01
7.183537e-01
6.871412e-01
6.559282e-01
6.247124e-01
5.934942e-01
5.622728e-01
5.310415e-01
4.998818e-01
1.000000e+00
9.686099e-01
9.372661e-01
9.058141e-01
8.688457e-01
8.433187e-01
8.120911e-01
7.808613e-01
7.496370e-01
7.184192e-01
6.872005e-01
6.559813e-01
6.247599e-01
5.935363e-01
5.623101e-01
5.310745e-01
4.999109e-01
1.000000e+00
9.686742e-01
9.373785e-01
9.060474e-01
8.721567e-01
8.435342e-01
8.123069e-01
7.810661e-01
7.498281e-01
7.185934e-01
6.873580e-01
6.561223e-01
6.248857e-01
5.936481e-01
5.624092e-01
5.311618e-01
4.999881e-01
1.000000e+00
9.687621e-01
9.375374e-01
9.063215e-01
8.764208e-01
8.438502e-01
8.125817e-01
7.813301e-01
7.500746e-01
7.188179e-01
6.875610e-01
6.563042e-01
6.250479e-01
5.937920e-01
5.625367e-01
5.312743e-01
5.000874e-01
1.000000e+00
9.688471e-01
9.376960e-01
9.065457e-01
8.802103e-01
8.441653e-01
8.128228e-01
7.815646e-01
7.502934e-01
7.190172e-01
6.877414e-01
6.564659e-01
6.251920e-01
5.939198e-01
5.626498e-01
5.313742e-01
5.001755e-01
1.000000e+00
9.688874e-01
9.377753e-01
9.066463e-01
8.822339e-01
8.443486e-01
8.129510e-01
7.816902e-01
7.504108e-01
7.191241e-01
6.878382e-01
6.565527e-01
6.252694e-01
5.939885e-01
5.627106e-01
5.314278e-01
5.002228e-01
1.000000e+00
9.688755e-01
9.377558e-01
9.066263e-01
8.818125e-01
8.443103e-01
8.129250e-01
7.816648e-01
7.503873e-01
7.191028e-01
6.878190e-01
6.565357e-01
6.252543e-01
5.939752e-01
5.626989e-01
5.314175e-01
5.002137e-01
1.000000e+00
9.688228e-01
9.376528e-01
9.064861e-01
8.790910e-01
8.440696e-01
8.127533e-01
7.814971e-01
7.502310e-01
7.189607e-01
6.876906e-01
6.564208e-01
6.251521e-01
5.938846e-01
5.626188e-01
5.313469e-01
5.001515e-01
1.000000e+00
9.687313e-01
9.374796e-01
9.062274e-01
8.749792e-01
8.437408e-01
8.124918e-01
7.812440e-01
7.499950e-01
7.187459e-01
6.874966e-01
6.562470e-01
6.249973e-01
5.937474e-01
5.624974e-01
5.312399e-01
5.000572e-01
1.000000e+00
9.686508e-01
9.373383e-01
9.059623e-01
8.708856e-01
8.434499e-01
8.122272e-01
7.809909e-01
7.497590e-01
7.185309e-01
6.873021e-01
6.560728e-01
6.248420e-01
5.936096e-01
5.623753e-01
5.311322e-01
4.999621e-01
1.000000e+00
9.685952e-01
9.372415e-01
9.057640e-01
8.681636e-01
8.432803e-01
8.120497e-01
7.808227e-01
7.496018e-01
7.183875e-01
6.871721e-01
6.559560e-01
6.247376e-01
5.935167e-01
5.622928e-01
5.310592e-01
4.998975e-01
1.000000e+00
9.685904e-01
9.372308e-01
9.057333e-01
8.677449e-01
8.432555e-01
8.120211e-01
7.807951e-01
7.495753e-01
7.183626e-01
6.871489e-01
6.559345e-01
6.247178e-01
5.934985e-01
5.622762e-01
5.310441e-01
4.998837e-01
1.000000e+00
9.686304e-01
9.372995e-01
9.058839e-01
8.697636e-01
8.433769e-01
8.121507e-01
7.809162e-01
7.496870e-01
7.184630e-01
6.872386e-01
6.560138e-01
6.247875e-01
5.935595e-01
5.623294e-01
5.310904e-01
4.999240e-01
1.000000e+00
9.687025e-01
9.374288e-01
9.061394e-01
8.735393e-01
8.436303e-01
8.123915e-01
7.811439e-01
7.498977e-01
7.186532e-01
6.874092e-01
6.561654e-01
6.249215e-01
5.936773e-01
5.624328e-01
5.311809e-01
5.000032e-01
1.000000e+00
9.687938e-01
9.375975e-01
9.064096e-01
8.778074e-01
8.439550e-01
8.126594e-01
7.814004e-01
7.501353e-01
7.188680e-01
6.876019e-01
6.563367e-01
6.250731e-01
5.938110e-01
5.625503e-01
5.312839e-01
5.000935e-01
1.000000e+00
9.688635e-01
9.377246e-01
9.065866e-01
8.811234e-01
8.442356e-01
8.128643e-01
7.815989e-01
7.503193e-01
7.190345e-01
6.877514e-01
6.564698e-01
6.251910e-01
5.939149e-01
5.626419e-01
5.313642e-01
5.001640e-01
1.000000e+00
9.688869e-01
9.377674e-01
9.066386e-01
8.823687e-01
8.443465e-01
8.129403e-01
7.816734e-01
7.503885e-01
7.190972e-01
6.878078e-01
6.565200e-01
6.252355e-01
5.939542e-01
5.626764e-01
5.313945e-01
5.001907e-01
1.000000e+00
9.685363e-01
9.371286e-01
9.055239e-01
8.653382e-01
8.431181e-01
8.118603e-01
7.806447e-01
7.494350e-01
7.182353e-01
6.870343e-01
6.558324e-01
6.246272e-01
5.934187e-01
5.622060e-01
5.309826e-01
4.998299e-01
1.000000e+00
9.685778e-01
9.372048e-01
9.056717e-01
8.669791e-01
8.432053e-01
8.119675e-01
7.807453e-01
7.495289e-01
7.183209e-01
6.871118e-01
6.559018e-01
6.246892e-01
5.934737e-01
5.622548e-01
5.310257e-01
4.998680e-01
1.000000e+00
9.686459e-01
9.373329e-01
9.059724e-01
8.712952e-01
8.434744e-01
8.122501e-01
7.810128e-01
7.497785e-01
7.185484e-01
6.873175e-01
6.560861e-01
6.248536e-01
5.936197e-01
5.623842e-01
5.311399e-01
4.999688e-01
1.000000e+00
9.687656e-01
9.375442e-01
9.063369e-01
8.768553e-01
8.438843e-01
8.126094e-01
7.813577e-01
7.501005e-01
7.188417e-01
6.875828e-01
6.563238e-01
6.250655e-01
5.938078e-01
5.625508e-01
5.312869e-01
5.000986e-01
1.000000e+00
9.688862e-01
9.377693e-01
9.066409e-01
8.818209e-01
8.443074e-01
8.129239e-01
7.816640e-01
7.503865e-01
7.191021e-01
6.878184e-01
6.565350e-01
6.252537e-01
5.939748e-01
5.626986e-01
5.314173e-01
5.002136e-01
1.000000e+00
9.689292e-01
9.378508e-01
9.067326e-01
8.844572e-01
8.445591e-01
8.130910e-01
7.818287e-01
7.505399e-01
7.192419e-01
6.879449e-01
6.566485e-01
6.253549e-01
5.940646e-01
5.627781e-01
5.314875e-01
5.002755e-01
1.000000e+00
9.689233e-01
9.378395e-01
9.067254e-01
8.839066e-01
8.445059e-01
8.130570e-01
7.817955e-01
7.505091e-01
7.192141e-01
6.879199e-01
6.566262e-01
6.253353e-01
5.940472e-01
5.627628e-01
5.314740e-01
5.002637e-01
1.000000e+00
9.688449e-01
9.377050e-01
9.065674e-01
8.803552e-01
8.441797e-01
8.128330e-01
7.815759e-01
7.503049e-01
7.190283e-01
6.877521e-01
6.564761e-01
6.252017e-01
5.939288e-01
5.626581e-01
5.313818e-01
5.001824e-01
1.000000e+00
9.687261e-01
9.374678e-01
9.062048e-01
8.749669e-01
8.437406e-01
8.124919e-01
7.812452e-01
7.499966e-01
7.187477e-01
6.874986e-01
6.562491e-01
6.249994e-01
5.937496e-01
5.624995e-01
5.312420e-01
5.000592e-01
1.000000e+00
9.686158e-01
9.372855e-01
9.058667e-01
8.696451e-01
8.433689e-01
8.121456e-01
7.809146e-01
7.496882e-01
7.184668e-01
6.872445e-01
6.560215e-01
6.247965e-01
5.935695e-01
5.623400e-01
5.311012e-01
4.999349e-01
1.000000e+00
9.685571e-01
9.371711e-01
9.056012e-01
8.660789e-01
8.431595e-01
8.119134e-01
7.806950e-01
7.494829e-01
7.182795e-01
6.870747e-01
6.558688e-01
6.246601e-01
5.934481e-01
5.622322e-01
5.310058e-01
4.998505e-01
1.000000e+00
9.685422e-01
9.371379e-01
9.055421e-01
8.655273e-01
8.431308e-01
8.118760e-01
7.806590e-01
7.494483e-01
7.182470e-01
6.870444e-01
6.558408e-01
6.246343e-01
5.934244e-01
5.622105e-01
5.309861e-01
4.998326e-01
1.000000e+00
9.686030e-01
9.372490e-01
9.057663e-01
8.681762e-01
8.432774e-01
8.120456e-01
7.808170e-01
7.495941e-01
7.183781e-01
6.871615e-01
6.559445e-01
6.247254e-01
5.935041e-01
5.622800e-01
5.310466e-01
4.998852e-01
1.000000e+00
9.686838e-01
9.373977e-01
9.060939e-01
8.730930e-01
8.435971e-01
8.123609e-01
7.811144e-01
7.498694e-01
7.186267e-01
6.873844e-01
6.561425e-01
6.249004e-01
5.936580e-01
5.624151e-01
5.311649e-01
4.999887e-01
1.000000e+00
9.688054e-01
9.376262e-01
9.064632e-01
8.786718e-01
8.440238e-01
8.127108e-01
7.814495e-01
7.501799e-01
7.189073e-01
6.876362e-01
6.563664e-01
6.250985e-01
5.938326e-01
5.625687e-01
5.312995e-01
5.001067e-01
1.000000e+00
9.689087e-01
9.378071e-01
9.066921e-01
8.830056e-01
8.444040e-01
8.129778e-01
7.817090e-01