<?xml version="1.0"?>
<VTKFile type="StructuredGrid" version="0.1">
  <StructuredGrid WholeExtent="16 32 0 16 0 16">
    <Piece Extent="16 32 0 16 0 16">
      <PointData Scalars="temperature" Vectors="velocity">
        <DataArray type="Float32" Name="temperature" format="ascii">
5.000569e-01
4.687763e-01
4.375246e-01
4.062708e-01
3.750175e-01
3.437645e-01
3.125119e-01
2.812596e-01
2.500076e-01
2.187557e-01
1.875041e-01
1.562527e-01
1.250013e-01
9.375012e-02
6.249894e-02
3.124732e-02
0.000000e+00
5.000512e-01
4.687707e-01
4.375199e-01
4.062667e-01
3.750139e-01
3.437615e-01
3.125094e-01
2.812574e-01
2.500058e-01
2.187542e-01
1.875029e-01
1.562517e-01
1.250006e-01
9.374958e-02
6.249859e-02
3.124716e-02
0.000000e+00
5.000358e-01
4.687558e-01
4.375072e-01
4.062558e-01
3.750045e-01
3.437534e-01
3.125025e-01
2.812516e-01
2.500008e-01
2.187502e-01
1.874995e-01
1.562490e-01
1.249985e-01
9.374804e-02
6.249760e-02
3.124667e-02
0.000000e+00
5.000159e-01
4.687366e-01
4.374908e-01
4.062416e-01
3.749924e-01
3.437430e-01
3.124936e-01
2.812442e-01
2.499945e-01
2.187449e-01
1.874952e-01
1.562455e-01
1.249958e-01
9.374608e-02
6.249632e-02
3.124604e-02
0.000000e+00
4.999982e-01
4.687195e-01
4.374763e-01
4.062291e-01
3.749816e-01
3.437338e-01
3.124857e-01
2.812375e-01
2.499888e-01
2.187403e-01
1.874914e-01
1.562424e-01
1.249934e-01
9.374433e-02
6.249519e-02
3.124548e-02
0.000000e+00
4.999887e-01
4.687103e-01
4.374684e-01
4.062223e-01
3.749758e-01
3.437288e-01
3.124815e-01
2.812340e-01
2.499858e-01
2.187377e-01
1.874893e-01
1.562407e-01
1.249922e-01
9.374338e-02
6.249458e-02
3.124518e-02
0.000000e+00
4.999905e-01
4.687121e-01
4.374699e-01
4.062236e-01
3.749769e-01
3.437298e-01
3.124823e-01
2.812346e-01
2.499864e-01
2.187382e-01
1.874897e-01
1.562410e-01
1.249924e-01
9.374356e-02
6.249469e-02
3.124524e-02
0.000000e+00
5.000030e-01
4.687241e-01
4.374802e-01
4.062325e-01
3.749845e-01
3.437363e-01
3.124878e-01
2.812393e-01
2.499903e-01
2.187415e-01
1.874924e-01
1.562432e-01
1.249941e-01
9.374480e-02
6.249550e-02
3.124563e-02
0.000000e+00
5.000219e-01
4.687424e-01
4.374958e-01
4.062459e-01
3.749960e-01
3.437462e-01
3.124963e-01
2.812464e-01
2.499964e-01
2.187465e-01
1.874965e-01
1.562466e-01
1.249967e-01
9.374668e-02
6.249672e-02
3.124623e-02
0.000000e+00
5.000410e-01
4.687608e-01
4.375114e-01
4.062594e-01
3.750077e-01
3.437561e-01
3.125048e-01
2.812536e-01
2.500025e-01
2.187516e-01
1.875007e-01
1.562499e-01
1.249992e-01
9.374859e-02
6.249795e-02
3.124684e-02
0.000000e+00
5.000538e-01
4.687733e-01
4.375221e-01
4.062686e-01
3.750156e-01
3.437629e-01
3.125106e-01
2.812585e-01
2.500067e-01
2.187550e-01
1.875036e-01
1.562522e-01
1.250010e-01
9.374989e-02
6.249880e-02
3.124726e-02
0.000000e+00
5.000564e-01
4.687758e-01
4.375243e-01
4.062706e-01
3.750173e-01
3.437644e-01
3.125119e-01
2.812596e-01
2.500077e-01
2.187558e-01
1.875042e-01
1.562528e-01
1.250014e-01
9.375020e-02
6.249900e-02
3.124735e-02
0.000000e+00
5.000480e-01
4.687678e-01
4.375176e-01
4.062648e-01
3.750124e-01
3.437603e-01
3.125084e-01
2.812566e-01
2.500052e-01
2.187538e-01
1.875026e-01
1.562514e-01
1.250004e-01
9.374944e-02
6.249851e-02
3.124711e-02
0.000000e+00
5.000319e-01
4.687524e-01
4.375045e-01
4.062536e-01
3.750028e-01
3.437521e-01
3.125014e-01
2.812508e-01
2.500002e-01
2.187497e-01
1.874992e-01
1.562487e-01
1.249983e-01
9.374791e-02
6.249751e-02
3.124662e-02
0.000000e+00
5.000137e-01
4.687348e-01
4.374895e-01
4.062408e-01
3.749918e-01
3.437427e-01
3.124935e-01
2.812441e-01
2.499945e-01
2.187450e-01
1.874953e-01
1.562456e-01
1.249959e-01
9.374615e-02
6.249638e-02
3.124606e-02
0.000000e+00
4.999994e-01
4.687211e-01
4.374780e-01
4.062308e-01
3.749833e-01
3.437354e-01
3.124873e-01
2.812389e-01
2.499901e-01
2.187414e-01
1.874923e-01
1.562432e-01
1.249941e-01
9.374479e-02
6.249550e-02
3.124563e-02
0.000000e+00
4.999940e-01
4.687159e-01
4.374735e-01
4.062270e-01
3.749800e-01
3.437326e-01
3.124849e-01
2.812369e-01
2.499884e-01
2.187399e-01
1.874911e-01
1.562422e-01
1.249933e-01
9.374422e-02
6.249511e-02
3.124541e-02
0.000000e+00
5.000544e-01
4.687738e-01
4.375225e-01
4.062690e-01
3.750159e-01
3.437632e-01
3.125108e-01
2.812586e-01
2.500068e-01
2.187551e-01
1.875036e-01
1.562523e-01
1.250010e-01
9.374988e-02
6.249878e-02
3.124723e-02
0.000000e+00
5.000491e-01
4.687687e-01
4.375181e-01
4.062652e-01
3.750126e-01
3.437604e-01
3.125084e-01
2.812566e-01
2.500051e-01
2.187537e-01
1.875025e-01
1.562513e-01
1.250003e-01
9.374938e-02
6.249847e-02
3.124710e-02
0.000000e+00
5.000348e-01
4.687549e-01
4.375064e-01
4.062551e-01
3.750039e-01
3.437529e-01
3.125021e-01
2.812513e-01
2.500005e-01
2.187499e-01
1.874993e-01
1.562488e-01
1.249984e-01
9.374796e-02
6.249755e-02
3.124664e-02
0.000000e+00
5.000165e-01
4.687371e-01
4.374913e-01
4.062420e-01
3.749927e-01
3.437433e-01
3.124939e-01
2.812444e-01
2.499947e-01
2.187451e-01
1.874953e-01
1.562456e-01
1.249959e-01
9.374614e-02
6.249637e-02
3.124606e-02
0.000000e+00
5.000001e-01
4.687214e-01
4.374778e-01
4.062305e-01
3.749828e-01
3.437348e-01
3.124866e-01
2.812383e-01
2.499895e-01
2.187408e-01
1.874918e-01
1.562428e-01
1.249937e-01
9.374452e-02
6.249532e-02
3.124555e-02
0.000000e+00
4.999914e-01
4.687129e-01
4.374706e-01
4.062242e-01
3.749774e-01
3.437302e-01
3.124827e-01
2.812349e-01
2.499866e-01
2.187385e-01
1.874899e-01
1.562412e-01
1.249925e-01
9.374365e-02
6.249475e-02
3.124527e-02
0.000000e+00
4.999930e-01
4.687145e-01
4.374720e-01
4.062254e-01
3.749784e-01
3.437311e-01
3.124834e-01
2.812356e-01
2.499872e-01
2.187389e-01
1.874902e-01
1.562415e-01
1.249927e-01
9.374381e-02
6.249485e-02
3.124532e-02
0.000000e+00
5.000045e-01
4.687256e-01
4.374815e-01
4.062336e-01
3.749854e-01
3.437371e-01
3.124885e-01
2.812399e-01
2.499908e-01
2.187419e-01
1.874927e-01
1.562435e-01
1.249943e-01
9.374495e-02
6.249559e-02
3.124568e-02
0.000000e+00
5.000220e-01
4.687425e-01
4.374958e-01
4.062460e-01
3.749961e-01
3.437462e-01
3.124963e-01
2.812464e-01
2.499964e-01
2.187465e-01
1.874966e-01
1.562466e-01
1.249967e-01
9.374669e-02
6.249672e-02
3.124624e-02
0.000000e+00
5.000396e-01
4.687595e-01
4.375103e-01
4.062585e-01
3.750068e-01
3.437554e-01
3.125042e-01
2.812531e-01
2.500021e-01
2.187512e-01
1.875004e-01
1.562497e-01
1.249991e-01
9.374845e-02
6.249787e-02
3.124680e-02
0.000000e+00
5.000515e-01
4.687710e-01
4.375201e-01
4.062669e-01
3.750142e-01
3.437617e-01
3.125096e-01
2.812576e-01
2.500060e-01
2.187544e-01
1.875031e-01
1.562518e-01
1.250007e-01
9.374966e-02
6.249865e-02
3.124718e-02
0.000000e+00
5.000538e-01
4.687733e-01
4.375222e-01
4.062687e-01
3.750157e-01
3.437631e-01
3.125108e-01
2.812586e-01
2.500069e-01
2.187551e-01
1.875037e-01
1.562523e-01
1.250011e-01
9.374994e-02
6.249883e-02
3.124727e-02
0.000000e+00
5.000461e-01
4.687660e-01
4.375160e-01
4.062634e-01
3.750112e-01
3.437592e-01
3.125075e-01
2.812559e-01
2.500045e-01
2.187532e-01
1.875021e-01
1.562511e-01
1.250001e-01
9.374923e-02
6.249837e-02
3.124704e-02
0.000000e+00
5.000312e-01
4.687517e-01
4.375039e-01
4.062531e-01
3.750023e-01
3.437517e-01
3.125011e-01
2.812505e-01
2.500000e-01
2.187495e-01
1.874990e-01
1.562486e-01
1.249982e-01
9.374782e-02
6.249745e-02
3.124659e-02
0.000000e+00
5.000144e-01
4.687354e-01
4.374901e-01
4.062412e-01
3.749922e-01
3.437430e-01
3.124937e-01
2.812443e-01
2.499947e-01
2.187451e-01
1.874954e-01
1.562457e-01
1.249960e-01
9.374620e-02
6.249640e-02
3.124608e-02
0.000000e+00
5.000012e-01
4.687228e-01
4.374794e-01
4.062320e-01
3.749843e-01
3.437363e-01
3.124880e-01
2.812395e-01
2.499906e-01
2.187418e-01
1.874927e-01
1.562435e-01
1.249943e-01
9.374494e-02
6.249559e-02
3.124568e-02
0.000000e+00
4.999962e-01
4.687179e-01
4.374752e-01
4.062285e-01
3.749812e-01
3.437337e-01
3.124858e-01
2.812376e-01
2.499890e-01
2.187404e-01
1.874916e-01
1.562426e-01
1.249936e-01
9.374441e-02
6.249523e-02
3.124547e-02
0.000000e+00
5.000471e-01
4.687668e-01
4.375165e-01
4.062638e-01
3.750115e-01
3.437594e-01
3.125076e-01
2.812559e-01
2.500045e-01
2.187532e-01
1.875020e-01
1.562510e-01
1.250001e-01
9.374917e-02
6.249832e-02
3.124700e-02
0.000000e+00
5.000430e-01
4.687628e-01
4.375132e-01
4.062609e-01
3.750090e-01
3.437573e-01
3.125058e-01
2.812544e-01
2.500032e-01
2.187521e-01
1.875012e-01
1.562503e-01
1.249995e-01
9.374879e-02
6.249809e-02
3.124691e-02
0.000000e+00
5.000321e-01
4.687522e-01
4.375041e-01
4.062531e-01
3.750023e-01
3.437515e-01
3.125009e-01
2.812503e-01
2.499997e-01
2.187492e-01
1.874988e-01
1.562484e-01
1.249981e-01
9.374771e-02
6.249739e-02
3.124656e-02
0.000000e+00
5.000180e-01
4.687386e-01
4.374926e-01
4.062432e-01
3.749937e-01
3.437442e-01
3.124946e-01
2.812450e-01
2.499952e-01
2.187455e-01
1.874957e-01
1.562459e-01
1.249962e-01
9.374632e-02
6.249649e-02
3.124612e-02
0.000000e+00
5.000055e-01
4.687266e-01
4.374823e-01
4.062343e-01
3.749861e-01
3.437377e-01
3.124890e-01
2.812403e-01
2.499912e-01
2.187422e-01
1.874930e-01
1.562437e-01
1.249945e-01
9.374507e-02
6.249568e-02
3.124572e-02
0.000000e+00
4.999988e-01
4.687201e-01
4.374768e-01
4.062296e-01
3.749820e-01
3.437342e-01
3.124860e-01
2.812378e-01
2.499891e-01
2.187404e-01
1.874915e-01
1.562425e-01
1.249935e-01
9.374440e-02
6.249524e-02
3.124550e-02
0.000000e+00
5.000001e-01
4.687213e-01
4.374778e-01
4.062305e-01
3.749828e-01
3.437348e-01
3.124866e-01
2.812382e-01
2.499895e-01
2.187408e-01
1.874918e-01
1.562427e-01
1.249937e-01
9.374452e-02
6.249531e-02
3.124554e-02
0.000000e+00
5.000089e-01
4.687298e-01
4.374851e-01
4.062367e-01
3.749881e-01
3.437394e-01
3.124905e-01
2.812415e-01
2.499923e-01
2.187431e-01
1.874937e-01
1.562443e-01
1.249949e-01
9.374539e-02
6.249588e-02
3.124582e-02
0.000000e+00
5.000222e-01
4.687427e-01
4.374960e-01
4.062462e-01
3.749963e-01
3.437464e-01
3.124965e-01
2.812466e-01
2.499966e-01
2.187466e-01
1.874966e-01
1.562467e-01
1.249967e-01
9.374673e-02
6.249675e-02
3.124625e-02
0.000000e+00
5.000357e-01
4.687557e-01
4.375071e-01
4.062557e-01
3.750045e-01
3.437534e-01
3.125025e-01
2.812516e-01
2.500009e-01
2.187502e-01
1.874996e-01
1.562490e-01
1.249985e-01
9.374808e-02
6.249762e-02
3.124668e-02
0.000000e+00
5.000448e-01
4.687645e-01
4.375146e-01
4.062622e-01
3.750100e-01
3.437582e-01
3.125066e-01
2.812551e-01
2.500038e-01
2.187526e-01
1.875016e-01
1.562507e-01
1.249998e-01
9.374900e-02
6.249822e-02
3.124698e-02
0.000000e+00
5.000466e-01
4.687663e-01
4.375162e-01
4.062635e-01
3.750112e-01
3.437592e-01
3.125075e-01
2.812559e-01
2.500045e-01
2.187532e-01
1.875021e-01
1.562510e-01
1.250001e-01
9.374921e-02
6.249836e-02
3.124704e-02
0.000000e+00
5.000407e-01
4.687607e-01
4.375114e-01
4.062595e-01
3.750078e-01
3.437563e-01
3.125050e-01
2.812538e-01
2.500027e-01
2.187517e-01
1.875009e-01
1.562501e-01
1.249994e-01
9.374866e-02
6.249800e-02
3.124686e-02
0.000000e+00
5.000293e-01
4.687497e-01
4.375022e-01
4.062516e-01
3.750010e-01
3.437505e-01
3.125001e-01
2.812497e-01
2.499992e-01
2.187488e-01
1.874985e-01
1.562481e-01
1.249979e-01
9.374758e-02
6.249730e-02
3.124652e-02
0.000000e+00
5.000163e-01
4.687373e-01
4.374916e-01
4.062425e-01
3.749933e-01
3.437439e-01
3.124945e-01
2.812449e-01
2.499952e-01
2.187455e-01
1.874958e-01
1.562460e-01
1.249962e-01
9.374634e-02
6.249649e-02
3.124612e-02
0.000000e+00
5.000063e-01
4.687276e-01
4.374834e-01
4.062355e-01
3.749872e-01
3.437387e-01
3.124901e-01
2.812412e-01
2.499921e-01
2.187429e-01
1.874936e-01
1.562442e-01
1.249949e-01
9.374537e-02
6.249587e-02
3.124582e-02
0.000000e+00
5.000024e-01
4.687239e-01
4.374802e-01
4.062327e-01
3.749848e-01
3.437367e-01
3.124883e-01
2.812398e-01
2.499908e-01
2.187419e-01
1.874928e-01
1.562435e-01
1.249943e-01
9.374496e-02
6.249558e-02
3.124565e-02
0.000000e+00
5.000360e-01
4.687561e-01
4.375075e-01
4.062560e-01
3.750048e-01
3.437537e-01
3.125027e-01
2.812518e-01
2.500010e-01
2.187503e-01
1.874997e-01
1.562491e-01
1.249986e-01
9.374809e-02
6.249762e-02
3.124666e-02
0.000000e+00
5.000339e-01
4.687540e-01
4.375057e-01
4.062545e-01
3.750034e-01
3.437525e-01
3.125017e-01
2.812510e-01
2.500003e-01
2.187498e-01
1.874992e-01
1.562487e-01
1.249983e-01
9.374791e-02
6.249751e-02
3.124662e-02
0.000000e+00
5.000279e-01
4.687482e-01
4.375008e-01
4.062503e-01
3.749998e-01
3.437494e-01
3.124991e-01
2.812488e-01
2.499984e-01
2.187482e-01
1.874979e-01
1.562477e-01
1.249975e-01
9.374732e-02
6.249714e-02
3.124643e-02
0.000000e+00
5.000203e-01
4.687409e-01
4.374945e-01
4.062449e-01
3.749952e-01
3.437454e-01
3.124957e-01
2.812459e-01
2.499960e-01
2.187462e-01
1.874963e-01
1.562464e-01
1.249965e-01
9.374656e-02
6.249664e-02
3.124619e-02
0.000000e+00
5.000136e-01
4.687344e-01
4.374890e-01
4.062401e-01
3.749910e-01
3.437419e-01
3.124927e-01
2.812434e-01
2.499938e-01
2.187444e-01
1.874948e-01
1.562452e-01
1.249956e-01
9.374589e-02
6.249620e-02
3.124598e-02
0.000000e+00
5.000099e-01
4.687309e-01
4.374860e-01
4.062375e-01
3.749888e-01
3.437400e-01
3.124910e-01
2.812420e-01
2.499927e-01
2.187434e-01
1.874940e-01
1.562445e-01
1.249951e-01
9.374552e-02
6.249596e-02
3.124586e-02
0.000000e+00
5.000106e-01
4.687315e-01
4.374865e-01
4.062380e-01
3.749892e-01
3.437404e-01
3.124913e-01
2.812423e-01
2.499929e-01
2.187436e-01
1.874941e-01
1.562446e-01
1.249952e-01
9.374558e-02
6.249600e-02
3.124588e-02
0.000000e+00
5.000154e-01
4.687361e-01
4.374904e-01
4.062413e-01
3.749921e-01
3.437428e-01
3.124935e-01
2.812440e-01
2.499944e-01
2.187448e-01
1.874952e-01
1.562455e-01
1.249958e-01
9.374606e-02
6.249631e-02
3.124603e-02
0.000000e+00
5.000226e-01
4.687431e-01
4.374964e-01
4.062464e-01
3.749965e-01
3.437466e-01
3.124967e-01
2.812467e-01
2.499967e-01
2.187468e-01
1.874967e-01
1.562467e-01
1.249968e-01
9.374678e-02
6.249678e-02
3.124626e-02
0.000000e+00
5.000298e-01
4.687501e-01
4.375023e-01
4.062516e-01
3.750009e-01
3.437504e-01
3.124999e-01
2.812495e-01
2.499990e-01
2.187487e-01
1.874983e-01
1.562480e-01
1.249978e-01
9.374751e-02
6.249726e-02
3.124650e-02
0.000000e+00
5.000347e-01
4.687548e-01
4.375064e-01
4.062551e-01
3.750040e-01
3.437530e-01
3.125021e-01
2.812514e-01
2.500006e-01
2.187500e-01
1.874994e-01
1.562489e-01
1.249985e-01
9.374801e-02
6.249758e-02
3.124666e-02
0.000000e+00
5.000357e-01
4.687558e-01
4.375072e-01
4.062558e-01
3.750046e-01
3.437535e-01
3.125026e-01
2.812518e-01
2.500010e-01
2.187503e-01
1.874997e-01
1.562491e-01
1.249986e-01
9.374812e-02
6.249765e-02
3.124669e-02
0.000000e+00
5.000325e-01
4.687528e-01
4.375047e-01
4.062536e-01
3.750027e-01
3.437520e-01
3.125013e-01
2.812506e-01
2.500000e-01
2.187495e-01
1.874990e-01
1.562486e-01
1.249982e-01
9.374782e-02
6.249746e-02
3.124660e-02
0.000000e+00
5.000264e-01
4.687469e-01
4.374996e-01
4.062494e-01
3.749991e-01
3.437488e-01
3.124986e-01
2.812484e-01
2.499981e-01
2.187479e-01
1.874977e-01
1.562475e-01
1.249974e-01
9.374723e-02
6.249707e-02
3.124641e-02
0.000000e+00
5.000193e-01
4.687401e-01
4.374939e-01
4.062445e-01
3.749949e-01
3.437453e-01
3.124956e-01
2.812458e-01
2.499959e-01
2.187461e-01
1.874962e-01
1.562463e-01
1.249965e-01
9.374656e-02
6.249663e-02
3.124619e-02
0.000000e+00
5.000139e-01
4.687348e-01
4.374895e-01
4.062406e-01
3.749916e-01
3.437424e-01
3.124932e-01
2.812438e-01
2.499942e-01
2.187447e-01
1.874951e-01
1.562454e-01
1.249958e-01
9.374604e-02
6.249630e-02
3.124603e-02
0.000000e+00
5.000117e-01
4.687328e-01
4.374877e-01
4.062391e-01
3.749903e-01
3.437413e-01
3.124922e-01
2.812430e-01
2.499935e-01
2.187442e-01
1.874946e-01
1.562450e-01
1.249954e-01
9.374579e-02
6.249612e-02
3.124591e-02
0.000000e+00
5.000230e-01
4.687435e-01
4.374968e-01
4.062468e-01
3.749969e-01
3.437469e-01
3.124969e-01
2.812470e-01
2.499969e-01
2.187469e-01
1.874969e-01
1.562468e-01
1.249969e-01
9.374682e-02
6.249680e-02
3.124625e-02
0.000000e+00
5.000230e-01
4.687435e-01
4.374968e-01
4.062468e-01
3.749969e-01
3.437469e-01
3.124970e-01
2.812470e-01
2.499969e-01
2.187470e-01
1.874969e-01
1.562469e-01
1.249969e-01
9.374685e-02
6.249683e-02
3.124629e-02
0.000000e+00
5.000230e-01
4.687435e-01
4.374968e-01
4.062468e-01
3.749969e-01
3.437469e-01
3.124970e-01
2.812470e-01
2.499969e-01
2.187469e-01
1.874969e-01
1.562469e-01
1.249969e-01
9.374685e-02
6.249683e-02
3.124628e-02
0.000000e+00
5.000230e-01
4.687435e-01
4.374968e-01
4.062468e-01
3.749969e-01
3.437469e-01
3.124969e-01
2.812470e-01
2.499969e-01
2.187469e-01
1.874969e-01
1.562469e-01
1.249969e-01
9.374685e-02
6.249683e-02
3.124628e-02
0.000000e+00
5.000230e-01
4.687435e-01
4.374968e-01
4.062468e-01
3.749969e-01
3.437469e-01
3.124969e-01
2.812470e-01
2.499969e-01
2.187469e-01
1.874969e-01
1.562469e-01
1.249969e-01
9.374685e-02
6.249683e-02
3.124628e-02
0.000000e+00
5.000230e-01
4.687435e-01
4.374967e-01
4.062468e-01
3.749968e-01
3.437469e-01
3.124969e-01
2.812470e-01
2.499969e-01
2.187469e-01
1.874969e-01
1.562469e-01
1.249969e-01
9.374685e-02
6.249682e-02
3.124628e-02
0.000000e+00
5.000230e-01
4.687435e-01
4.374967e-01
4.062468e-01
3.749968e-01
3.437469e-01
3.124969e-01
2.812470e-01
2.499969e-01
2.187469e-01
1.874969e-01
1.562469e-01
1.249969e-01
9.374684e-02
6.249682e-02
3.124628e-02
0.000000e+00
5.000230e-01
4.687435e-01
4.374967e-01
4.062468e-01
3.749968e-01
3.437469e-01
3.124969e-01
2.812470e-01
2.499969e-01
2.187469e-01
1.874969e-01
1.562469e-01
1.249969e-01
9.374684e-02
6.249682e-02
3.124628e-02
0.000000e+00
5.000230e-01
4.687435e-01
4.374967e-01
4.062468e-01
3.749968e-01
3.437469e-01
3.124969e-01
2.812470e-01
2.499969e-01
2.187469e-01
1.874969e-01
1.562468e-01
1.249969e-01
9.374684e-02
6.249682e-02
3.124628e-02
0.000000e+00
5.000230e-01
4.687435e-01
4.374967e-01
4.062468e-01
3.749968e-01
3.437469e-01
3.124969e-01
2.812469e-01
2.499969e-01
2.187469e-01
1.874969e-01
1.562468e-01
1.249969e-01
9.374684e-02
6.249682e-02
3.124628e-02
0.000000e+00
5.000230e-01
4.687435e-01
4.374967e-01
4.062468e-01
3.749968e-01
3.437469e-01
3.124969e-01
2.812469e-01
2.499969e-01
2.187469e-01
1.874969e-01
1.562468e-01
1.249969e-01
9.374683e-02
6.249682e-02
3.124628e-02
0.000000e+00
5.000230e-01
4.687435e-01
4.374967e-01
4.062468e-01
3.749968e-01
3.437469e-01
3.124969e-01
2.812469e-01
2.499969e-01
2.187469e-01
1.874969e-01
1.562468e-01
1.249969e-01
9.374683e-02
6.249682e-02
3.124628e-02
0.000000e+00
5.000230e-01
4.687435e-01
4.374967e-01
4.062468e-01
3.749968e-01
3.437469e-01
3.124969e-01
2.812469e-01
2.499969e-01
2.187469e-01
1.874968e-01
1.562468e-01
1.249968e-01
9.374683e-02
6.249681e-02
3.124628e-02
0.000000e+00
5.000229e-01
4.687435e-01
4.374967e-01
4.062468e-01
3.749968e-01
3.437468e-01
3.124969e-01
2.812469e-01
2.499969e-01
2.187469e-01
1.874968e-01
1.562468e-01
1.249968e-01
9.374682e-02
6.249681e-02
3.124628e-02
0.000000e+00
5.000229e-01
4.687434e-01
4.374967e-01
4.062467e-01
3.749968e-01
3.437468e-01
3.124969e-01
2.812469e-01
2.499968e-01
2.187469e-01
1.874968e-01
1.562468e-01
1.249968e-01
9.374682e-02
6.249681e-02
3.124628e-02
0.000000e+00
5.000229e-01
4.687434e-01
4.374967e-01
4.062467e-01
3.749968e-01
3.437468e-01
3.124969e-01
2.812469e-01
2.499968e-01
2.187469e-01
1.874968e-01
1.562468e-01
1.249968e-01
9.374682e-02
6.249681e-02
3.124628e-02
0.000000e+00
5.000228e-01
4.687434e-01
4.374966e-01
4.062467e-01
3.749967e-01
3.437468e-01
3.124968e-01
2.812469e-01
2.499968e-01
2.187468e-01
1.874968e-01
1.562468e-01
1.249968e-01
9.374677e-02
6.249676e-02
3.124623e-02
0.000000e+00
5.000100e-01
4.687309e-01
4.374861e-01
4.062376e-01
3.749889e-01
3.437401e-01
3.124912e-01
2.812421e-01
2.499928e-01
2.187435e-01
1.874941e-01
1.562446e-01
1.249951e-01
9.374556e-02
6.249598e-02
3.124585e-02
0.000000e+00
5.000122e-01
4.687331e-01
4.374879e-01
4.062392e-01
3.749903e-01
3.437413e-01
3.124922e-01
2.812430e-01
2.499935e-01
2.187441e-01
1.874946e-01
1.562450e-01
1.249955e-01
9.374580e-02
6.249615e-02
3.124595e-02
0.000000e+00
5.000181e-01
4.687388e-01
4.374928e-01
4.062434e-01
3.749939e-01
3.437444e-01
3.124948e-01
2.812452e-01
2.499954e-01
2.187457e-01
1.874959e-01
1.562460e-01
1.249962e-01
9.374639e-02
6.249653e-02
3.124613e-02
0.000000e+00
5.000257e-01
4.687461e-01
4.374990e-01
4.062488e-01
3.749986e-01
3.437484e-01
3.124982e-01
2.812481e-01
2.499978e-01
2.187477e-01
1.874975e-01
1.562474e-01
1.249973e-01
9.374714e-02
6.249702e-02
3.124637e-02
0.000000e+00
5.000324e-01
4.687526e-01
4.375045e-01
4.062535e-01
3.750026e-01
3.437519e-01
3.125012e-01
2.812506e-01
2.500000e-01
2.187495e-01
1.874990e-01
1.562486e-01
1.249982e-01
9.374782e-02
6.249745e-02
3.124659e-02
0.000000e+00
5.000360e-01
4.687561e-01
4.375075e-01
4.062561e-01
3.750048e-01
3.437537e-01
3.125028e-01
2.812519e-01
2.500012e-01
2.187504e-01
1.874998e-01
1.562492e-01
1.249987e-01
9.374818e-02
6.249769e-02
3.124671e-02
0.000000e+00
5.000353e-01
4.687554e-01
4.375069e-01
4.062556e-01
3.750044e-01
3.437534e-01
3.125025e-01
2.812517e-01
2.500009e-01
2.187503e-01
1.874996e-01
1.562491e-01
1.249986e-01
9.374811e-02
6.249765e-02
3.124669e-02
0.000000e+00
5.000306e-01
4.687508e-01
4.375030e-01
4.062522e-01
3.750015e-01
3.437509e-01
3.125004e-01
2.812499e-01
2.499994e-01
2.187490e-01
1.874986e-01
1.562482e-01
1.249979e-01
9.374763e-02
6.249733e-02
3.124653e-02
0.000000e+00
5.000234e-01
4.687439e-01
4.374971e-01
4.062471e-01
3.749971e-01
3.437471e-01
3.124972e-01
2.812472e-01
2.499971e-01
2.187471e-01
1.874970e-01
1.562470e-01
1.249970e-01
9.374690e-02
6.249686e-02
3.124630e-02
0.000000e+00
5.000161e-01
4.687369e-01
4.374911e-01
4.062420e-01
3.749927e-01
3.437434e-01
3.124939e-01
2.812444e-01
2.499947e-01
2.187451e-01
1.874954e-01
1.562457e-01
1.249959e-01
9.374616e-02
6.249638e-02
3.124607e-02
0.000000e+00
5.000112e-01
4.687322e-01
4.374871e-01
4.062385e-01
3.749897e-01
3.437408e-01
3.124917e-01
2.812425e-01
2.499931e-01
2.187438e-01
1.874943e-01
1.562448e-01
1.249953e-01
9.374566e-02
6.249605e-02
3.124590e-02
0.000000e+00
5.000103e-01
4.687312e-01
4.374862e-01
4.062377e-01
3.749890e-01
3.437402e-01
3.124912e-01
2.812421e-01
2.499927e-01
2.187435e-01
1.874940e-01
1.562445e-01
1.249951e-01
9.374554e-02
6.249597e-02
3.124587e-02
0.000000e+00
5.000134e-01
4.687342e-01
4.374888e-01
4.062399e-01
3.749909e-01
3.437418e-01
3.124925e-01
2.812432e-01
2.499937e-01
2.187443e-01
1.874947e-01
1.562451e-01
1.249955e-01
9.374583e-02
6.249617e-02
3.124596e-02
0.000000e+00
5.000196e-01
4.687401e-01
4.374938e-01
4.062442e-01
3.749945e-01
3.437449e-01
3.124952e-01
2.812454e-01
2.499956e-01
2.187458e-01
1.874960e-01
1.562461e-01
1.249963e-01
9.374642e-02
6.249655e-02
3.124615e-02
0.000000e+00
5.000265e-01
4.687468e-01
4.374994e-01
4.062490e-01
3.749987e-01
3.437484e-01
3.124982e-01
2.812480e-01
2.499978e-01
2.187476e-01
1.874974e-01
1.562473e-01
1.249972e-01
9.374709e-02
6.249698e-02
3.124636e-02
0.000000e+00
5.000319e-01
4.687520e-01
4.375039e-01
4.062528e-01
3.750020e-01
3.437512e-01
3.125006e-01
2.812500e-01
2.499995e-01
2.187490e-01
1.874986e-01
1.562482e-01
1.249979e-01
9.374762e-02
6.249733e-02
3.124653e-02
0.000000e+00
5.000339e-01
4.687539e-01
4.375055e-01
4.062542e-01
3.750032e-01
3.437522e-01
3.125014e-01
2.812507e-01
2.500001e-01
2.187495e-01
1.874990e-01
1.562485e-01
1.249981e-01
9.374776e-02
6.249740e-02
3.124654e-02
0.000000e+00
4.999989e-01
4.687203e-01
4.374770e-01
4.062298e-01
3.749822e-01
3.437344e-01
3.124863e-01
2.812380e-01
2.499893e-01
2.187406e-01
1.874917e-01
1.562427e-01
1.249937e-01
9.374448e-02
6.249528e-02
3.124551e-02
0.000000e+00
5.000031e-01
4.687243e-01
4.374804e-01
4.062327e-01
3.749848e-01
3.437366e-01
3.124882e-01
2.812396e-01
2.499906e-01
2.187418e-01
1.874926e-01
1.562434e-01
1.249942e-01
9.374492e-02
6.249557e-02
3.124567e-02
0.000000e+00
5.000139e-01
4.687348e-01
4.374894e-01
4.062405e-01
3.749914e-01
3.437423e-01
3.124930e-01
2.812437e-01
2.499941e-01
2.187446e-01
1.874950e-01
1.562454e-01
1.249957e-01
9.374599e-02
6.249627e-02
3.124601e-02
0.000000e+00
5.000279e-01
4.687483e-01
4.375009e-01
4.062504e-01
3.750000e-01
3.437496e-01
3.124993e-01
2.812490e-01
2.499986e-01
2.187484e-01
1.874981e-01
1.562478e-01
1.249976e-01
9.374739e-02
6.249717e-02
3.124645e-02
0.000000e+00
5.000403e-01
4.687603e-01
4.375111e-01
4.062592e-01
3.750075e-01
3.437561e-01
3.125048e-01
2.812536e-01
2.500026e-01
2.187516e-01
1.875008e-01
1.562500e-01
1.249993e-01
9.374864e-02
6.249799e-02
3.124685e-02
0.000000e+00
5.000470e-01
4.687668e-01
4.375166e-01
4.062639e-01
3.750116e-01
3.437596e-01
3.125078e-01
2.812562e-01
2.500048e-01
2.187534e-01
1.875023e-01
1.562512e-01
1.250002e-01
9.374932e-02
6.249843e-02
3.124707e-02
0.000000e+00
5.000458e-01
4.687655e-01
4.375156e-01
4.062630e-01
3.750108e-01
3.437589e-01
3.125072e-01
2.812557e-01
2.500043e-01
2.187531e-01
1.875020e-01
1.562510e-01
1.250001e-01
9.374919e-02
6.249835e-02
3.124703e-02
0.000000e+00
5.000370e-01
4.687571e-01
4.375084e-01
4.062568e-01
3.750055e-01
3.437543e-01
3.125033e-01
2.812524e-01
2.500015e-01
2.187507e-01
1.875001e-01
1.562494e-01
1.249989e-01
9.374830e-02
6.249777e-02
3.124675e-02
0.000000e+00
5.000237e-01
4.687442e-01
4.374974e-01
4.062474e-01
3.749974e-01
3.437474e-01
3.124974e-01
2.812473e-01
2.499972e-01
2.187472e-01
1.874971e-01
1.562470e-01
1.249970e-01
9.374695e-02
6.249689e-02
3.124632e-02
0.000000e+00
5.000103e-01
4.687313e-01
4.374864e-01
4.062379e-01
3.749892e-01
3.437404e-01
3.124914e-01
2.812423e-01
2.499929e-01
2.187436e-01
1.874941e-01
1.562446e-01
1.249952e-01
9.374559e-02
6.249601e-02
3.124588e-02
0.000000e+00
5.000013e-01
4.687226e-01
4.374789e-01
4.062314e-01
3.749836e-01
3.437356e-01
3.124873e-01
2.812388e-01
2.499899e-01
2.187412e-01
1.874921e-01
1.562430e-01
1.249939e-01
9.374465e-02
6.249540e-02
3.124558e-02
0.000000e+00
4.999995e-01
4.687208e-01
4.374774e-01
4.062301e-01
3.749824e-01
3.437345e-01
3.124863e-01
2.812380e-01
2.499892e-01
2.187406e-01
1.874916e-01
1.562426e-01
1.249936e-01
9.374444e-02
6.249526e-02
3.124551e-02
0.000000e+00
5.000054e-01
4.687264e-01
4.374821e-01
4.062341e-01
3.749859e-01
3.437375e-01
3.124888e-01
2.812401e-01
2.499910e-01
2.187420e-01
1.874928e-01
1.562436e-01
1.249943e-01
9.374498e-02
6.249562e-02
3.124569e-02
0.000000e+00
5.000167e-01
4.687373e-01
4.374913e-01
4.062420e-01
3.749926e-01
3.437432e-01
3.124937e-01
2.812442e-01
2.499945e-01
2.187449e-01
1.874952e-01
1.562455e-01
1.249958e-01
9.374607e-02
6.249633e-02
3.124604e-02
0.000000e+00
5.000296e-01
4.687496e-01
4.375018e-01
4.062510e-01
3.750003e-01
3.437498e-01
3.124993e-01
2.812489e-01
2.499985e-01
2.187482e-01
1.874979e-01
1.562477e-01
1.249975e-01
9.374732e-02
6.249713e-02
3.124644e-02
0.000000e+00
5.000396e-01
4.687593e-01
4.375100e-01
4.062580e-01
3.750064e-01
3.437549e-01
3.125037e-01
2.812526e-01
2.500017e-01
2.187508e-01
1.875001e-01
1.562494e-01
1.249988e-01
9.374829e-02
6.249776e-02
3.124675e-02
0.000000e+00
5.000433e-01
4.687629e-01
4.375131e-01
4.062607e-01
3.750086e-01
3.437569e-01
3.125053e-01
2.812540e-01
2.500028e-01
2.187518e-01
1.875008e-01
1.562500e-01
1.249993e-01
9.374860e-02
6.249795e-02
3.124681e-02
0.000000e+00
4.999915e-01
4.687132e-01
4.374709e-01
4.062246e-01
3.749778e-01
3.437306e-01
3.124830e-01
2.812353e-01
2.499869e-01
2.187387e-01
1.874901e-01
1.562414e-01
1.249927e-01
9.374377e-02
6.249482e-02
3.124528e-02
0.000000e+00
4.999969e-01
4.687184e-01
4.374754e-01
4.062284e-01
3.749811e-01
3.437334e-01
3.124855e-01
2.812373e-01
2.499887e-01
2.187402e-01
1.874913e-01
1.562424e-01
1.249934e-01
9.374433e-02
6.249519e-02
3.124548e-02
0.000000e+00
5.000111e-01
4.687321e-01
4.374871e-01
4.062385e-01
3.749898e-01
3.437409e-01
3.124918e-01
2.812427e-01
2.499933e-01
2.187439e-01
1.874944e-01
1.562449e-01
1.249954e-01
9.374573e-02
6.249610e-02
3.124592e-02
0.000000e+00
5.000294e-01
4.687498e-01
4.375022e-01
4.062515e-01
3.750009e-01
3.437504e-01
3.125000e-01
2.812496e-01
2.499991e-01
2.187488e-01
1.874984e-01
1.562481e-01
1.249978e-01
9.374756e-02
6.249728e-02
3.124651e-02
0.000000e+00
5.000457e-01
4.687655e-01
4.375155e-01
4.062630e-01
3.750108e-01
3.437589e-01
3.125072e-01
2.812557e-01
2.500044e-01
2.187531e-01
1.875020e-01
1.562510e-01
1.250001e-01
9.374919e-02
6.249834e-02
3.124703e-02
0.000000e+00
5.000544e-01
4.687739e-01
4.375227e-01
4.062692e-01
3.750161e-01
3.437634e-01
3.125111e-01
2.812590e-01
2.500072e-01
2.187554e-01
1.875039e-01
1.562526e-01
1.250013e-01
9.375007e-02
6.249892e-02
3.124732e-02
0.000000e+00
5.000527e-01
4.687723e-01
4.375213e-01
4.062680e-01
3.750151e-01
3.437626e-01
3.125104e-01
2.812584e-01
2.500066e-01
2.187550e-01
1.875036e-01
1.562523e-01
1.250010e-01
9.374990e-02
6.249882e-02
3.124727e-02
0.000000e+00
5.000413e-01
4.687612e-01
4.375119e-01
4.062599e-01
3.750082e-01
3.437566e-01
3.125053e-01
2.812540e-01
2.500029e-01
2.187519e-01
1.875010e-01
1.562502e-01
1.249995e-01
9.374874e-02
6.249806e-02
3.124689e-02
0.000000e+00
5.000239e-01
4.687445e-01
4.374976e-01
4.062476e-01
3.749976e-01
3.437475e-01
3.124975e-01
2.812475e-01
2.499973e-01
2.187473e-01
1.874972e-01
1.562471e-01
1.249971e-01
9.374699e-02
6.249692e-02
3.124633e-02
0.000000e+00
5.000065e-01
4.687276e-01
4.374832e-01
4.062352e-01
3.749869e-01
3.437384e-01
3.124897e-01
2.812408e-01
2.499917e-01
2.187426e-01
1.874933e-01
1.562440e-01
1.249946e-01
9.374521e-02
6.249576e-02
3.124576e-02
0.000000e+00
4.999947e-01
4.687162e-01
4.374735e-01
4.062267e-01
3.749796e-01
3.437321e-01
3.124843e-01
2.812363e-01
2.499878e-01
2.187394e-01
1.874906e-01
1.562418e-01
1.249930e-01
9.374399e-02
6.249496e-02
3.124536e-02
0.000000e+00
4.999923e-01
4.687138e-01
4.374715e-01
4.062250e-01
3.749780e-01
3.437308e-01
3.124831e-01
2.812353e-01
2.499869e-01
2.187387e-01
1.874900e-01
1.562413e-01
1.249926e-01
9.374370e-02
6.249478e-02
3.124527e-02
0.000000e+00
5.000000e-01
4.687211e-01
4.374776e-01
4.062302e-01
3.749825e-01
3.437346e-01
3.124863e-01
2.812380e-01
2.499892e-01
2.187406e-01
1.874916e-01
1.562426e-01
1.249936e-01
9.374442e-02
6.249525e-02
3.124551e-02
0.000000e+00
5.000148e-01
4.687354e-01
4.374896e-01
4.062405e-01
3.749913e-01
3.437421e-01
3.124927e-01
2.812434e-01
2.499938e-01
2.187443e-01
1.874947e-01
1.562451e-01
1.249955e-01
9.374584e-02
6.249618e-02
3.124597e-02
0.000000e+00
5.000316e-01
4.687515e-01
4.375034e-01
4.062523e-01
3.750014e-01
3.437507e-01
3.125001e-01
2.812495e-01
2.499990e-01
2.187487e-01
1.874983e-01
1.562480e-01
1.249977e-01
9.374747e-02
6.249723e-02
3.124649e-02
0.000000e+00
5.000447e-01
4.687642e-01
4.375141e-01
4.062615e-01
3.750093e-01
3.437574e-01
3.125058e-01
2.812544e-01