<?xml version="1.0"?>
<VTKFile type="StructuredGrid" version="0.1">
  <StructuredGrid WholeExtent="16 32 0 16 0 16">
    <Piece Extent="16 32 0 16 0 16">
      <PointData Scalars="temperature" Vectors="velocity">
        <DataArray type="Float32" Name="temperature" format="ascii">
5.005021e-01
4.691379e-01
4.378451e-01
4.065530e-01
3.752641e-01
3.439792e-01
3.126977e-01
2.814178e-01
2.501429e-01
2.188670e-01
1.875961e-01
1.563251e-01
1.250556e-01
9.378849e-02
6.252138e-02
3.125414e-02
0.000000e+00
5.004263e-01
4.690682e-01
4.377845e-01
4.064995e-01
3.752171e-01
3.439382e-01
3.126621e-01
2.813874e-01
2.501167e-01
2.188452e-01
1.875778e-01
1.563104e-01
1.250443e-01
9.378017e-02
6.251605e-02
3.125153e-02
0.000000e+00
5.002165e-01
4.688841e-01
4.376226e-01
4.063567e-01
3.750920e-01
3.438289e-01
3.125671e-01
2.813060e-01
2.500465e-01
2.187868e-01
1.875287e-01
1.562708e-01
1.250138e-01
9.375749e-02
6.250133e-02
3.124415e-02
0.000000e+00
4.999525e-01
4.686510e-01
4.374166e-01
4.061750e-01
3.749327e-01
3.436898e-01
3.124461e-01
2.812024e-01
2.499572e-01
2.187126e-01
1.874664e-01
1.562208e-01
1.249753e-01
9.372917e-02
6.248324e-02
3.123536e-02
0.000000e+00
4.997159e-01
4.684397e-01
4.372305e-01
4.060112e-01
3.747892e-01
3.435644e-01
3.123373e-01
2.811091e-01
2.498767e-01
2.186456e-01
1.874099e-01
1.561754e-01
1.249401e-01
9.370308e-02
6.246628e-02
3.122692e-02
0.000000e+00
4.995866e-01
4.683313e-01
4.371312e-01
4.059235e-01
3.747125e-01
3.434973e-01
3.122790e-01
2.810591e-01
2.498335e-01
2.186097e-01
1.873797e-01
1.561511e-01
1.249214e-01
9.368928e-02
6.245736e-02
3.122248e-02
0.000000e+00
4.996111e-01
4.683525e-01
4.371499e-01
4.059399e-01
3.747268e-01
3.435098e-01
3.122898e-01
2.810683e-01
2.498415e-01
2.186163e-01
1.873853e-01
1.561556e-01
1.249249e-01
9.369186e-02
6.245902e-02
3.122330e-02
0.000000e+00
4.997762e-01
4.684949e-01
4.372785e-01
4.060531e-01
3.748258e-01
3.435961e-01
3.123647e-01
2.811324e-01
2.498967e-01
2.186622e-01
1.874240e-01
1.561866e-01
1.249489e-01
9.370964e-02
6.247059e-02
3.122911e-02
0.000000e+00
5.000334e-01
4.687226e-01
4.374797e-01
4.062306e-01
3.749816e-01
3.437326e-01
3.124836e-01
2.812346e-01
2.499852e-01
2.187360e-01
1.874862e-01
1.562368e-01
1.249878e-01
9.373838e-02
6.248914e-02
3.123821e-02
0.000000e+00
5.002847e-01
4.689443e-01
4.376757e-01
4.064033e-01
3.751328e-01
3.438644e-01
3.125980e-01
2.813323e-01
2.500694e-01
2.188058e-01
1.875448e-01
1.562837e-01
1.250238e-01
9.376481e-02
6.250603e-02
3.124645e-02
0.000000e+00
5.004612e-01
4.691027e-01
4.378136e-01
4.065255e-01
3.752403e-01
3.439586e-01
3.126803e-01
2.814031e-01
2.501307e-01
2.188569e-01
1.875880e-01
1.563186e-01
1.250509e-01
9.378497e-02
6.251919e-02
3.125303e-02
0.000000e+00
5.004971e-01
4.691362e-01
4.378438e-01
4.065527e-01
3.752647e-01
3.439803e-01
3.126994e-01
2.814198e-01
2.501453e-01
2.188692e-01
1.875985e-01
1.563271e-01
1.250575e-01
9.378988e-02
6.252237e-02
3.125458e-02
0.000000e+00
5.003927e-01
4.690390e-01
4.377618e-01
4.064811e-01
3.752027e-01
3.439268e-01
3.126533e-01
2.813806e-01
2.501118e-01
2.188416e-01
1.875753e-01
1.563086e-01
1.250433e-01
9.377943e-02
6.251564e-02
3.125125e-02
0.000000e+00
5.001793e-01
4.688533e-01
4.375990e-01
4.063383e-01
3.750782e-01
3.438188e-01
3.125600e-01
2.813011e-01
2.500434e-01
2.187849e-01
1.875279e-01
1.562706e-01
1.250140e-01
9.375782e-02
6.250170e-02
3.124436e-02
0.000000e+00
4.999386e-01
4.686414e-01
4.374127e-01
4.061749e-01
3.749358e-01
3.436949e-01
3.124528e-01
2.812097e-01
2.499648e-01
2.187198e-01
1.874732e-01
1.562267e-01
1.249802e-01
9.373288e-02
6.248562e-02
3.123643e-02
0.000000e+00
4.997516e-01
4.684754e-01
4.372672e-01
4.060475e-01
3.748246e-01
3.435981e-01
3.123690e-01
2.811381e-01
2.499032e-01
2.186688e-01
1.874304e-01
1.561924e-01
1.249538e-01
9.371337e-02
6.247302e-02
3.123021e-02
0.000000e+00
4.996801e-01
4.684125e-01
4.372120e-01
4.059990e-01
3.747822e-01
3.435611e-01
3.123370e-01
2.811108e-01
2.498797e-01
2.186493e-01
1.874140e-01
1.561792e-01
1.249436e-01
9.370580e-02
6.246807e-02
3.122767e-02
0.000000e+00
5.004691e-01
4.691067e-01
4.378185e-01
4.065295e-01
3.752435e-01
3.439613e-01
3.126822e-01
2.814046e-01
2.501316e-01
2.188576e-01
1.875882e-01
1.563187e-01
1.250508e-01
9.378487e-02
6.251904e-02
3.125295e-02
0.000000e+00
5.003981e-01
4.690426e-01
4.377624e-01
4.064800e-01
3.752001e-01
3.439234e-01
3.126493e-01
2.813764e-01
2.501073e-01
2.188374e-01
1.875713e-01
1.563052e-01
1.250403e-01
9.377718e-02
6.251414e-02
3.125056e-02
0.000000e+00
5.002058e-01
4.688731e-01
4.376130e-01
4.063482e-01
3.750846e-01
3.438225e-01
3.125616e-01
2.813013e-01
2.500425e-01
2.187835e-01
1.875260e-01
1.562687e-01
1.250122e-01
9.375635e-02
6.250066e-02
3.124383e-02
0.000000e+00
4.999609e-01
4.686565e-01
4.374218e-01
4.061796e-01
3.749368e-01
3.436934e-01
3.124494e-01
2.812052e-01
2.499597e-01
2.187147e-01
1.874681e-01
1.562222e-01
1.249764e-01
9.372995e-02
6.248370e-02
3.123553e-02
0.000000e+00
4.997426e-01
4.684624e-01
4.372507e-01
4.060289e-01
3.748048e-01
3.435781e-01
3.123492e-01
2.811194e-01
2.498856e-01
2.186530e-01
1.874162e-01
1.561805e-01
1.249442e-01
9.370606e-02
6.246822e-02
3.122786e-02
0.000000e+00
4.996240e-01
4.683601e-01
4.371588e-01
4.059480e-01
3.747340e-01
3.435161e-01
3.122954e-01
2.810732e-01
2.498457e-01
2.186198e-01
1.873883e-01
1.561581e-01
1.249268e-01
9.369326e-02
6.245993e-02
3.122375e-02
0.000000e+00
4.996465e-01
4.683797e-01
4.371760e-01
4.059631e-01
3.747471e-01
3.435276e-01
3.123053e-01
2.810816e-01
2.498529e-01
2.186259e-01
1.873934e-01
1.561622e-01
1.249300e-01
9.369561e-02
6.246143e-02
3.122448e-02
0.000000e+00
4.997997e-01
4.685137e-01
4.372955e-01
4.060682e-01
3.748390e-01
3.436078e-01
3.123749e-01
2.811413e-01
2.499044e-01
2.186687e-01
1.874294e-01
1.561911e-01
1.249523e-01
9.371213e-02
6.247215e-02
3.122984e-02
0.000000e+00
5.000353e-01
4.687221e-01
4.374794e-01
4.062303e-01
3.749813e-01
3.437322e-01
3.124832e-01
2.812341e-01
2.499847e-01
2.187355e-01
1.874858e-01
1.562365e-01
1.249874e-01
9.373814e-02
6.248899e-02
3.123815e-02
0.000000e+00
5.002694e-01
4.689291e-01
4.376623e-01
4.063916e-01
3.751226e-01
3.438556e-01
3.125904e-01
2.813259e-01
2.500638e-01
2.188012e-01
1.875410e-01
1.562807e-01
1.250214e-01
9.376314e-02
6.250499e-02
3.124596e-02
0.000000e+00
5.004310e-01
4.690733e-01
4.377890e-01
4.065037e-01
3.752212e-01
3.439420e-01
3.126658e-01
2.813907e-01
2.501200e-01
2.188480e-01
1.875805e-01
1.563125e-01
1.250462e-01
9.378150e-02
6.251695e-02
3.125193e-02
0.000000e+00
5.004647e-01
4.691043e-01
4.378170e-01
4.065290e-01
3.752438e-01
3.439621e-01
3.126836e-01
2.814061e-01
2.501335e-01
2.188594e-01
1.875901e-01
1.563204e-01
1.250523e-01
9.378602e-02
6.251988e-02
3.125335e-02
0.000000e+00
5.003665e-01
4.690160e-01
4.377412e-01
4.064629e-01
3.751866e-01
3.439126e-01
3.126410e-01
2.813700e-01
2.501025e-01
2.188338e-01
1.875688e-01
1.563033e-01
1.250391e-01
9.377636e-02
6.251365e-02
3.125026e-02
0.000000e+00
5.001701e-01
4.688442e-01
4.375907e-01
4.063309e-01
3.750716e-01
3.438129e-01
3.125548e-01
2.812965e-01
2.500394e-01
2.187816e-01
1.875250e-01
1.562682e-01
1.250121e-01
9.375641e-02
6.250077e-02
3.124390e-02
0.000000e+00
4.999473e-01
4.686482e-01
4.374185e-01
4.061800e-01
3.749401e-01
3.436985e-01
3.124558e-01
2.812121e-01
2.499668e-01
2.187214e-01
1.874745e-01
1.562277e-01
1.249809e-01
9.373340e-02
6.248592e-02
3.123657e-02
0.000000e+00
4.997741e-01
4.684950e-01
4.372842e-01
4.060622e-01
3.748372e-01
3.436090e-01
3.123783e-01
2.811459e-01
2.499099e-01
2.186742e-01
1.874349e-01
1.561960e-01
1.249565e-01
9.371536e-02
6.247429e-02
3.123084e-02
0.000000e+00
4.997080e-01
4.684368e-01
4.372331e-01
4.060173e-01
3.747980e-01
3.435747e-01
3.123487e-01
2.811206e-01
2.498881e-01
2.186561e-01
1.874197e-01
1.561838e-01
1.249471e-01
9.370835e-02
6.246972e-02
3.122850e-02
0.000000e+00
5.003722e-01
4.690192e-01
4.377424e-01
4.064624e-01
3.751849e-01
3.439102e-01
3.126379e-01
2.813667e-01
2.500990e-01
2.188305e-01
1.875656e-01
1.563005e-01
1.250368e-01
9.377449e-02
6.251234e-02
3.124960e-02
0.000000e+00
5.003172e-01
4.689705e-01
4.376994e-01
4.064244e-01
3.751516e-01
3.438811e-01
3.126127e-01
2.813451e-01
2.500804e-01
2.188151e-01
1.875526e-01
1.562901e-01
1.250288e-01
9.376863e-02
6.250863e-02
3.124782e-02
0.000000e+00
5.001709e-01
4.688410e-01
4.375851e-01
4.063236e-01
3.750632e-01
3.438039e-01
3.125456e-01
2.812877e-01
2.500309e-01
2.187739e-01
1.875180e-01
1.562623e-01
1.250074e-01
9.375279e-02
6.249844e-02
3.124275e-02
0.000000e+00
4.999827e-01
4.686744e-01
4.374381e-01
4.061941e-01
3.749497e-01
3.437048e-01
3.124594e-01
2.812139e-01
2.499672e-01
2.187210e-01
1.874735e-01
1.562265e-01
1.249798e-01
9.373241e-02
6.248526e-02
3.123626e-02
0.000000e+00
4.998158e-01
4.685266e-01
4.373078e-01
4.060793e-01
3.748492e-01
3.436169e-01
3.123830e-01
2.811484e-01
2.499107e-01
2.186740e-01
1.874340e-01
1.561948e-01
1.249553e-01
9.371430e-02
6.247355e-02
3.123051e-02
0.000000e+00
4.997258e-01
4.684468e-01
4.372374e-01
4.060174e-01
3.747949e-01
3.435695e-01
3.123418e-01
2.811130e-01
2.498801e-01
2.186486e-01
1.874126e-01
1.561776e-01
1.249420e-01
9.370448e-02
6.246718e-02
3.122736e-02
0.000000e+00
4.997427e-01
4.684617e-01
4.372505e-01
4.060289e-01
3.748049e-01
3.435782e-01
3.123493e-01
2.811194e-01
2.498856e-01
2.186531e-01
1.874164e-01
1.561806e-01
1.249443e-01
9.370621e-02
6.246827e-02
3.122789e-02
0.000000e+00
4.998604e-01
4.685659e-01
4.373422e-01
4.061095e-01
3.748755e-01
3.436398e-01
3.124029e-01
2.811653e-01
2.499252e-01
2.186860e-01
1.874441e-01
1.562029e-01
1.249615e-01
9.371888e-02
6.247647e-02
3.123195e-02
0.000000e+00
5.000391e-01
4.687239e-01
4.374815e-01
4.062322e-01
3.749830e-01
3.437338e-01
3.124845e-01
2.812353e-01
2.499856e-01
2.187363e-01
1.874864e-01
1.562369e-01
1.249877e-01
9.373834e-02
6.248907e-02
3.123818e-02
0.000000e+00
5.002197e-01
4.688839e-01
4.376227e-01
4.063568e-01
3.750922e-01
3.438292e-01
3.125676e-01
2.813065e-01
2.500472e-01
2.187874e-01
1.875294e-01
1.562715e-01
1.250144e-01
9.375800e-02
6.250173e-02
3.124439e-02
0.000000e+00
5.003424e-01
4.689928e-01
4.377191e-01
4.064420e-01
3.751671e-01
3.438948e-01
3.126248e-01
2.813556e-01
2.500897e-01
2.188228e-01
1.875592e-01
1.562955e-01
1.250330e-01
9.377173e-02
6.251064e-02
3.124879e-02
0.000000e+00
5.003685e-01
4.690166e-01
4.377406e-01
4.064614e-01
3.751844e-01
3.439102e-01
3.126384e-01
2.813674e-01
2.501000e-01
2.188315e-01
1.875666e-01
1.563015e-01
1.250376e-01
9.377516e-02
6.251285e-02
3.124986e-02
0.000000e+00
5.002922e-01
4.689500e-01
4.376826e-01
4.064109e-01
3.751407e-01
3.438724e-01
3.126058e-01
2.813398e-01
2.500763e-01
2.188119e-01
1.875502e-01
1.562884e-01
1.250275e-01
9.376774e-02
6.250806e-02
3.124748e-02
0.000000e+00
5.001422e-01
4.688183e-01
4.375672e-01
4.063100e-01
3.750528e-01
3.437961e-01
3.125399e-01
2.812836e-01
2.500280e-01
2.187719e-01
1.875167e-01
1.562615e-01
1.250068e-01
9.375249e-02
6.249820e-02
3.124263e-02
0.000000e+00
4.999715e-01
4.686681e-01
4.374355e-01
4.061945e-01
3.749521e-01
3.437086e-01
3.124641e-01
2.812189e-01
2.499724e-01
2.187259e-01
1.874781e-01
1.562306e-01
1.249830e-01
9.373489e-02
6.248684e-02
3.123703e-02
0.000000e+00
4.998384e-01
4.685509e-01
4.373326e-01
4.061041e-01
3.748733e-01
3.436399e-01
3.124047e-01
2.811682e-01
2.499288e-01
2.186897e-01
1.874478e-01
1.562063e-01
1.249643e-01
9.372109e-02
6.247796e-02
3.123265e-02
0.000000e+00
4.997878e-01
4.685062e-01
4.372933e-01
4.060696e-01
3.748431e-01
3.436136e-01
3.123820e-01
2.811487e-01
2.499121e-01
2.186758e-01
1.874361e-01
1.561968e-01
1.249570e-01
9.371567e-02
6.247444e-02
3.123083e-02
0.000000e+00
5.002250e-01
4.688894e-01
4.376280e-01
4.063618e-01
3.750969e-01
3.438335e-01
3.125713e-01
2.813098e-01
2.500500e-01
2.187898e-01
1.875314e-01
1.562731e-01
1.250156e-01
9.375884e-02
6.250223e-02
3.124459e-02
0.000000e+00
5.001953e-01
4.688630e-01
4.376048e-01
4.063413e-01
3.750789e-01
3.438178e-01
3.125577e-01
2.812982e-01
2.500400e-01
2.187815e-01
1.875244e-01
1.562675e-01
1.250114e-01
9.375573e-02
6.250029e-02
3.124368e-02
0.000000e+00
5.001161e-01
4.687928e-01
4.375429e-01
4.062866e-01
3.750310e-01
3.437759e-01
3.125214e-01
2.812671e-01
2.500132e-01
2.187593e-01
1.875057e-01
1.562525e-01
1.249998e-01
9.374719e-02
6.249480e-02
3.124095e-02
0.000000e+00
5.000141e-01
4.687026e-01
4.374633e-01
4.062165e-01
3.749696e-01
3.437223e-01
3.124747e-01
2.812271e-01
2.499787e-01
2.187306e-01
1.874817e-01
1.562331e-01
1.249849e-01
9.373619e-02
6.248769e-02
3.123745e-02
0.000000e+00
4.999237e-01
4.686226e-01
4.373927e-01
4.061544e-01
3.749151e-01
3.436747e-01
3.124333e-01
2.811916e-01
2.499481e-01
2.187052e-01
1.874603e-01
1.562159e-01
1.249716e-01
9.372640e-02
6.248136e-02
3.123435e-02
0.000000e+00
4.998750e-01
4.685795e-01
4.373546e-01
4.061208e-01
3.748857e-01
3.436490e-01
3.124110e-01
2.811724e-01
2.499315e-01
2.186914e-01
1.874487e-01
1.562066e-01
1.249644e-01
9.372108e-02
6.247791e-02
3.123265e-02
0.000000e+00
4.998841e-01
4.685875e-01
4.373616e-01
4.061270e-01
3.748911e-01
3.436536e-01
3.124150e-01
2.811758e-01
2.499344e-01
2.186938e-01
1.874507e-01
1.562082e-01
1.249656e-01
9.372198e-02
6.247847e-02
3.123292e-02
0.000000e+00
4.999477e-01
4.686437e-01
4.374111e-01
4.061705e-01
3.749292e-01
3.436869e-01
3.124439e-01
2.812006e-01
2.499558e-01
2.187115e-01
1.874656e-01
1.562202e-01
1.249749e-01
9.372881e-02
6.248288e-02
3.123510e-02
0.000000e+00
5.000443e-01
4.687292e-01
4.374865e-01
4.062369e-01
3.749873e-01
3.437377e-01
3.124881e-01
2.812385e-01
2.499885e-01
2.187387e-01
1.874884e-01
1.562386e-01
1.249890e-01
9.373927e-02
6.248965e-02
3.123844e-02
0.000000e+00
5.001419e-01
4.688156e-01
4.375627e-01
4.063041e-01
3.750462e-01
3.437892e-01
3.125329e-01
2.812769e-01
2.500217e-01
2.187663e-01
1.875116e-01
1.562573e-01
1.250034e-01
9.374991e-02
6.249653e-02
3.124183e-02
0.000000e+00
5.002083e-01
4.688745e-01
4.376149e-01
4.063502e-01
3.750867e-01
3.438246e-01
3.125638e-01
2.813033e-01
2.500446e-01
2.187853e-01
1.875277e-01
1.562702e-01
1.250134e-01
9.375724e-02
6.250128e-02
3.124416e-02
0.000000e+00
5.002224e-01
4.688874e-01
4.376264e-01
4.063606e-01
3.750960e-01
3.438329e-01
3.125711e-01
2.813097e-01
2.500501e-01
2.187900e-01
1.875316e-01
1.562734e-01
1.250159e-01
9.375906e-02
6.250245e-02
3.124473e-02
0.000000e+00
5.001811e-01
4.688513e-01
4.375950e-01
4.063333e-01
3.750723e-01
3.438124e-01
3.125534e-01
2.812947e-01
2.500373e-01
2.187793e-01
1.875227e-01
1.562662e-01
1.250104e-01
9.375502e-02
6.249984e-02
3.124343e-02
0.000000e+00
5.000999e-01
4.687800e-01
4.375325e-01
4.062786e-01
3.750247e-01
3.437711e-01
3.125177e-01
2.812642e-01
2.500111e-01
2.187576e-01
1.875045e-01
1.562517e-01
1.249992e-01
9.374675e-02
6.249450e-02
3.124081e-02
0.000000e+00
5.000074e-01
4.686985e-01
4.374611e-01
4.062160e-01
3.749702e-01
3.437237e-01
3.124766e-01
2.812292e-01
2.499809e-01
2.187327e-01
1.874836e-01
1.562349e-01
1.249862e-01
9.373724e-02
6.248835e-02
3.123779e-02
0.000000e+00
4.999352e-01
4.686350e-01
4.374053e-01
4.061671e-01
3.749274e-01
3.436865e-01
3.124444e-01
2.812017e-01
2.499573e-01
2.187131e-01
1.874672e-01
1.562217e-01
1.249761e-01
9.372978e-02
6.248356e-02
3.123542e-02
0.000000e+00
4.999077e-01
4.686107e-01
4.373840e-01
4.061483e-01
3.749110e-01
3.436721e-01
3.124320e-01
2.811911e-01
2.499482e-01
2.187055e-01
1.874608e-01
1.562166e-01
1.249721e-01
9.372677e-02
6.248159e-02
3.123436e-02
0.000000e+00
5.000516e-01
4.687362e-01
4.374931e-01
4.062431e-01
3.749930e-01
3.437430e-01
3.124928e-01
2.812426e-01
2.499921e-01
2.187418e-01
1.874910e-01
1.562407e-01
1.249906e-01
9.374040e-02
6.249032e-02
3.123869e-02
0.000000e+00
5.000516e-01
4.687361e-01
4.374931e-01
4.062431e-01
3.749930e-01
3.437430e-01
3.124928e-01
2.812427e-01
2.499922e-01
2.187419e-01
1.874911e-01
1.562408e-01
1.249907e-01
9.374050e-02
6.249045e-02
3.123881e-02
0.000000e+00
5.000514e-01
4.687359e-01
4.374930e-01
4.062429e-01
3.749929e-01
3.437428e-01
3.124927e-01
2.812426e-01
2.499922e-01
2.187419e-01
1.874911e-01
1.562408e-01
1.249908e-01
9.374052e-02
6.249048e-02
3.123880e-02
0.000000e+00
5.000512e-01
4.687357e-01
4.374927e-01
4.062427e-01
3.749928e-01
3.437427e-01
3.124926e-01
2.812425e-01
2.499921e-01
2.187418e-01
1.874911e-01
1.562408e-01
1.249908e-01
9.374055e-02
6.249049e-02
3.123880e-02
0.000000e+00
5.000510e-01
4.687355e-01
4.374926e-01
4.062426e-01
3.749926e-01
3.437426e-01
3.124925e-01
2.812425e-01
2.499920e-01
2.187418e-01
1.874911e-01
1.562408e-01
1.249908e-01
9.374056e-02
6.249050e-02
3.123881e-02
0.000000e+00
5.000509e-01
4.687354e-01
4.374925e-01
4.062425e-01
3.749925e-01
3.437425e-01
3.124924e-01
2.812424e-01
2.499920e-01
2.187417e-01
1.874911e-01
1.562407e-01
1.249908e-01
9.374055e-02
6.249048e-02
3.123881e-02
0.000000e+00
5.000508e-01
4.687354e-01
4.374924e-01
4.062424e-01
3.749924e-01
3.437424e-01
3.124924e-01
2.812423e-01
2.499919e-01
2.187416e-01
1.874910e-01
1.562407e-01
1.249907e-01
9.374050e-02
6.249045e-02
3.123880e-02
0.000000e+00
5.000508e-01
4.687353e-01
4.374923e-01
4.062424e-01
3.749924e-01
3.437423e-01
3.124923e-01
2.812422e-01
2.499918e-01
2.187415e-01
1.874909e-01
1.562406e-01
1.249906e-01
9.374045e-02
6.249041e-02
3.123879e-02
0.000000e+00
5.000508e-01
4.687353e-01
4.374923e-01
4.062423e-01
3.749923e-01
3.437423e-01
3.124922e-01
2.812421e-01
2.499918e-01
2.187415e-01
1.874908e-01
1.562405e-01
1.249906e-01
9.374039e-02
6.249038e-02
3.123878e-02
0.000000e+00
5.000508e-01
4.687354e-01
4.374923e-01
4.062423e-01
3.749923e-01
3.437423e-01
3.124922e-01
2.812421e-01
2.499917e-01
2.187414e-01
1.874907e-01
1.562405e-01
1.249905e-01
9.374033e-02
6.249034e-02
3.123877e-02
0.000000e+00
5.000509e-01
4.687354e-01
4.374923e-01
4.062423e-01
3.749923e-01
3.437423e-01
3.124921e-01
2.812420e-01
2.499916e-01
2.187413e-01
1.874907e-01
1.562404e-01
1.249904e-01
9.374025e-02
6.249030e-02
3.123876e-02
0.000000e+00
5.000509e-01
4.687354e-01
4.374923e-01
4.062423e-01
3.749922e-01
3.437422e-01
3.124920e-01
2.812419e-01
2.499915e-01
2.187412e-01
1.874906e-01
1.562403e-01
1.249903e-01
9.374019e-02
6.249026e-02
3.123874e-02
0.000000e+00
5.000507e-01
4.687352e-01
4.374922e-01
4.062422e-01
3.749921e-01
3.437421e-01
3.124919e-01
2.812418e-01
2.499914e-01
2.187411e-01
1.874905e-01
1.562402e-01
1.249903e-01
9.374015e-02
6.249024e-02
3.123873e-02
0.000000e+00
5.000505e-01
4.687350e-01
4.374919e-01
4.062420e-01
3.749919e-01
3.437419e-01
3.124918e-01
2.812416e-01
2.499913e-01
2.187410e-01
1.874904e-01
1.562402e-01
1.249902e-01
9.374014e-02
6.249022e-02
3.123873e-02
0.000000e+00
5.000502e-01
4.687347e-01
4.374917e-01
4.062417e-01
3.749917e-01
3.437417e-01
3.124916e-01
2.812415e-01
2.499912e-01
2.187409e-01
1.874903e-01
1.562401e-01
1.249902e-01
9.374014e-02
6.249021e-02
3.123872e-02
0.000000e+00
5.000500e-01
4.687345e-01
4.374915e-01
4.062416e-01
3.749915e-01
3.437416e-01
3.124915e-01
2.812414e-01
2.499911e-01
2.187409e-01
1.874903e-01
1.562401e-01
1.249902e-01
9.374015e-02
6.249025e-02
3.123873e-02
0.000000e+00
5.000498e-01
4.687343e-01
4.374913e-01
4.062414e-01
3.749914e-01
3.437414e-01
3.124913e-01
2.812413e-01
2.499910e-01
2.187407e-01
1.874902e-01
1.562400e-01
1.249901e-01
9.373999e-02
6.249012e-02
3.123857e-02
0.000000e+00
4.998785e-01
4.685832e-01
4.373584e-01
4.061245e-01
3.748894e-01
3.436525e-01
3.124143e-01
2.811755e-01
2.499343e-01
2.186938e-01
1.874507e-01
1.562084e-01
1.249657e-01
9.372204e-02
6.247847e-02
3.123284e-02
0.000000e+00
4.999082e-01
4.686095e-01
4.373816e-01
4.061450e-01
3.749073e-01
3.436682e-01
3.124280e-01
2.811873e-01
2.499445e-01
2.187023e-01
1.874579e-01
1.562141e-01
1.249702e-01
9.372535e-02
6.248065e-02
3.123397e-02
0.000000e+00
4.999868e-01
4.686790e-01
4.374431e-01
4.061992e-01
3.749548e-01
3.437097e-01
3.124641e-01
2.812182e-01
2.499712e-01
2.187245e-01
1.874766e-01
1.562292e-01
1.249818e-01
9.373390e-02
6.248620e-02
3.123668e-02
0.000000e+00
5.000881e-01
4.687687e-01
4.375221e-01
4.062689e-01
3.750159e-01
3.437630e-01
3.125105e-01
2.812580e-01
2.500055e-01
2.187530e-01
1.875006e-01
1.562485e-01
1.249967e-01
9.374493e-02
6.249332e-02
3.124019e-02
0.000000e+00
5.001781e-01
4.688483e-01
4.375924e-01
4.063308e-01
3.750701e-01
3.438103e-01
3.125517e-01
2.812933e-01
2.500360e-01
2.187783e-01
1.875219e-01
1.562656e-01
1.250099e-01
9.375470e-02
6.249964e-02
3.124331e-02
0.000000e+00
5.002266e-01
4.688913e-01
4.376303e-01
4.063641e-01
3.750993e-01
3.438358e-01
3.125738e-01
2.813123e-01
2.500524e-01
2.187920e-01
1.875334e-01
1.562749e-01
1.250171e-01
9.375996e-02
6.250305e-02
3.124500e-02
0.000000e+00
5.002175e-01
4.688832e-01
4.376231e-01
4.063579e-01
3.750938e-01
3.438311e-01
3.125697e-01
2.813087e-01
2.500493e-01
2.187894e-01
1.875313e-01
1.562732e-01
1.250157e-01
9.375898e-02
6.250242e-02
3.124470e-02
0.000000e+00
5.001539e-01
4.688270e-01
4.375736e-01
4.063142e-01
3.750556e-01
3.437977e-01
3.125406e-01
2.812838e-01
2.500278e-01
2.187715e-01
1.875162e-01
1.562610e-01
1.250064e-01
9.375206e-02
6.249795e-02
3.124249e-02
0.000000e+00
5.000574e-01
4.687416e-01
4.374982e-01
4.062478e-01
3.749974e-01
3.437469e-01
3.124964e-01
2.812458e-01
2.499950e-01
2.187443e-01
1.874932e-01
1.562425e-01
1.249921e-01
9.374152e-02
6.249112e-02
3.123913e-02
0.000000e+00
4.999601e-01
4.686554e-01
4.374221e-01
4.061807e-01
3.749386e-01
3.436954e-01
3.124516e-01
2.812074e-01
2.499618e-01
2.187166e-01
1.874699e-01
1.562237e-01
1.249776e-01
9.373082e-02
6.248419e-02
3.123572e-02
0.000000e+00
4.998940e-01
4.685968e-01
4.373702e-01
4.061348e-01
3.748982e-01
3.436601e-01
3.124207e-01
2.811808e-01
2.499388e-01
2.186975e-01
1.874537e-01
1.562107e-01
1.249675e-01
9.372337e-02
6.247937e-02
3.123336e-02
0.000000e+00
4.998800e-01
4.685839e-01
4.373585e-01
4.061243e-01
3.748888e-01
3.436517e-01
3.124133e-01
2.811743e-01
2.499331e-01
2.186926e-01
1.874496e-01
1.562073e-01
1.249649e-01
9.372144e-02
6.247812e-02
3.123276e-02
0.000000e+00
4.999209e-01
4.686197e-01
4.373897e-01
4.061514e-01
3.749122e-01
3.436719e-01
3.124307e-01
2.811891e-01
2.499457e-01
2.187031e-01
1.874583e-01
1.562143e-01
1.249703e-01
9.372539e-02
6.248068e-02
3.123403e-02
0.000000e+00
5.000015e-01
4.686905e-01
4.374516e-01
4.062056e-01
3.749594e-01
3.437129e-01
3.124661e-01
2.812193e-01
2.499717e-01
2.187245e-01
1.874764e-01
1.562288e-01
1.249814e-01
9.373360e-02
6.248598e-02
3.123666e-02
0.000000e+00
5.000933e-01
4.687713e-01
4.375225e-01
4.062677e-01
3.750135e-01
3.437600e-01
3.125068e-01
2.812541e-01
2.500016e-01
2.187493e-01
1.874972e-01
1.562455e-01
1.249943e-01
9.374311e-02
6.249211e-02
3.123967e-02
0.000000e+00
5.001650e-01
4.688344e-01
4.375779e-01
4.063163e-01
3.750559e-01
3.437969e-01
3.125388e-01
2.812814e-01
2.500251e-01
2.187688e-01
1.875136e-01
1.562586e-01
1.250044e-01
9.375057e-02
6.249696e-02
3.124205e-02
0.000000e+00
5.001921e-01
4.688582e-01
4.375989e-01
4.063347e-01
3.750720e-01
3.438108e-01
3.125509e-01
2.812916e-01
2.500340e-01
2.187761e-01
1.875197e-01
1.562634e-01
1.250081e-01
9.375325e-02
6.249865e-02
3.124279e-02
0.000000e+00
4.997320e-01
4.684536e-01
4.372443e-01
4.060242e-01
3.748017e-01
3.435760e-01
3.123480e-01
2.811188e-01
2.498855e-01
2.186533e-01
1.874167e-01
1.561811e-01
1.249447e-01
9.370657e-02
6.246848e-02
3.122790e-02
0.000000e+00
4.997869e-01
4.685022e-01
4.372873e-01
4.060621e-01
3.748349e-01
3.436050e-01
3.123733e-01
2.811404e-01
2.499041e-01
2.186688e-01
1.874298e-01
1.561916e-01
1.249529e-01
9.371258e-02
6.247240e-02
3.122988e-02
0.000000e+00
4.999323e-01
4.686311e-01
4.374009e-01
4.061622e-01
3.749226e-01
3.436817e-01
3.124399e-01
2.811976e-01
2.499535e-01
2.187098e-01
1.874643e-01
1.562194e-01
1.249742e-01
9.372835e-02
6.248260e-02
3.123490e-02
0.000000e+00
5.001196e-01
4.687967e-01
4.375470e-01
4.062910e-01
3.750354e-01
3.437803e-01
3.125256e-01
2.812711e-01
2.500169e-01
2.187625e-01
1.875087e-01
1.562551e-01
1.250017e-01
9.374869e-02
6.249574e-02
3.124136e-02
0.000000e+00
5.002861e-01
4.689440e-01
4.376770e-01
4.064055e-01
3.751358e-01
3.438678e-01
3.126018e-01
2.813363e-01
2.500733e-01
2.188093e-01
1.875481e-01
1.562868e-01
1.250262e-01
9.376673e-02
6.250742e-02
3.124712e-02
0.000000e+00
5.003758e-01
4.690233e-01
4.377471e-01
4.064673e-01
3.751898e-01
3.439150e-01
3.126429e-01
2.813715e-01
2.501036e-01
2.188346e-01
1.875694e-01
1.563039e-01
1.250394e-01
9.377646e-02
6.251374e-02
3.125025e-02
0.000000e+00
5.003590e-01
4.690084e-01
4.377340e-01
4.064558e-01
3.751798e-01
3.439063e-01
3.126353e-01
2.813650e-01
2.500980e-01
2.188299e-01
1.875655e-01
1.563007e-01
1.250370e-01
9.377468e-02
6.251261e-02
3.124971e-02
0.000000e+00
5.002417e-01
4.689048e-01
4.376425e-01
4.063752e-01
3.751092e-01
3.438447e-01
3.125817e-01
2.813191e-01
2.500584e-01
2.187969e-01
1.875377e-01
1.562783e-01
1.250197e-01
9.376191e-02
6.250433e-02
3.124562e-02
0.000000e+00
5.000633e-01
4.687469e-01
4.375031e-01
4.062524e-01
3.750016e-01
3.437507e-01
3.124998e-01
2.812489e-01
2.499977e-01
2.187466e-01
1.874952e-01
1.562441e-01
1.249933e-01
9.374248e-02
6.249175e-02
3.123943e-02
0.000000e+00
4.998838e-01
4.685880e-01
4.373628e-01
4.061287e-01
3.748931e-01
3.436559e-01
3.124173e-01
2.811780e-01
2.499365e-01
2.186957e-01
1.874523e-01
1.562095e-01
1.249667e-01
9.372280e-02
6.247902e-02
3.123319e-02
0.000000e+00
4.997615e-01
4.684794e-01
4.372668e-01
4.060439e-01
3.748187e-01
3.435906e-01
3.123604e-01
2.811291e-01
2.498942e-01
2.186604e-01
1.874225e-01
1.561855e-01
1.249482e-01
9.370910e-02
6.247013e-02
3.122880e-02
0.000000e+00
4.997355e-01
4.684558e-01
4.372454e-01
4.060245e-01
3.748013e-01
3.435752e-01
3.123467e-01
2.811171e-01
2.498837e-01
2.186516e-01
1.874150e-01
1.561794e-01
1.249435e-01
9.370559e-02
6.246786e-02
3.122771e-02
0.000000e+00
4.998112e-01
4.685220e-01
4.373031e-01
4.060747e-01
3.748447e-01
3.436127e-01
3.123789e-01
2.811445e-01
2.499071e-01
2.186709e-01
1.874312e-01
1.561924e-01
1.249534e-01
9.371292e-02
6.247261e-02
3.123008e-02
0.000000e+00
4.999603e-01
4.686529e-01
4.374177e-01
4.061750e-01
3.749319e-01
3.436884e-01
3.124444e-01
2.812004e-01
2.499552e-01
2.187107e-01
1.874645e-01
1.562191e-01
1.249740e-01
9.372809e-02
6.248242e-02
3.123492e-02
0.000000e+00
5.001301e-01
4.688023e-01
4.375488e-01
4.062898e-01
3.750321e-01
3.437755e-01
3.125198e-01
2.812648e-01
2.500105e-01
2.187565e-01
1.875030e-01
1.562500e-01
1.249978e-01
9.374563e-02
6.249374e-02
3.124049e-02
0.000000e+00
5.002626e-01
4.689191e-01
4.376513e-01
4.063798e-01
3.751106e-01
3.438439e-01
3.125790e-01
2.813153e-01
2.500540e-01
2.187925e-01
1.875333e-01
1.562743e-01
1.250164e-01
9.375939e-02
6.250264e-02
3.124486e-02
0.000000e+00
5.003129e-01
4.689634e-01
4.376902e-01
4.064140e-01
3.751404e-01
3.438698e-01
3.126015e-01
2.813344e-01
2.500705e-01
2.188061e-01
1.875447e-01
1.562834e-01
1.250234e-01
9.376445e-02
6.250585e-02
3.124635e-02
0.000000e+00
4.996334e-01
4.683679e-01
4.371682e-01
4.059573e-01
3.747432e-01
3.435249e-01
3.123038e-01
2.810810e-01
2.498529e-01
2.186263e-01
1.873941e-01
1.561630e-01
1.249307e-01
9.369626e-02
6.246182e-02
3.122461e-02
0.000000e+00
4.997058e-01
4.684311e-01
4.372243e-01
4.060067e-01
3.747865e-01
3.435628e-01
3.123368e-01
2.811092e-01
2.498773e-01
2.186466e-01
1.874111e-01
1.561767e-01
1.249413e-01
9.370408e-02
6.246691e-02
3.122717e-02
0.000000e+00
4.998938e-01
4.685993e-01
4.373727e-01
4.061375e-01
3.749011e-01
3.436630e-01
3.124238e-01
2.811839e-01
2.499417e-01
2.187001e-01
1.874562e-01
1.562129e-01
1.249693e-01
9.372476e-02
6.248032e-02
3.123382e-02
0.000000e+00
5.001402e-01
4.688164e-01
4.375642e-01
4.063062e-01
3.750489e-01
3.437921e-01
3.125360e-01
2.812800e-01
2.500247e-01
2.187690e-01
1.875142e-01
1.562595e-01
1.250051e-01
9.375124e-02
6.249738e-02
3.124215e-02
0.000000e+00
5.003572e-01
4.690077e-01
4.377334e-01
4.064554e-01
3.751797e-01
3.439062e-01
3.126353e-01
2.813651e-01
2.500982e-01
2.188301e-01
1.875656e-01
1.563009e-01
1.250370e-01
9.377475e-02
6.251258e-02
3.124965e-02
0.000000e+00
5.004736e-01
4.691134e-01
4.378251e-01
4.065362e-01
3.752504e-01
3.439679e-01
3.126890e-01
2.814112e-01
2.501379e-01
2.188631e-01
1.875934e-01
1.563233e-01
1.250543e-01
9.378753e-02
6.252090e-02
3.125376e-02
0.000000e+00
5.004519e-01
4.690941e-01
4.378081e-01
4.065213e-01
3.752374e-01
3.439566e-01
3.126792e-01
2.814028e-01
2.501307e-01
2.188571e-01
1.875884e-01
1.563192e-01
1.250512e-01
9.378523e-02
6.251945e-02
3.125307e-02
0.000000e+00
5.002979e-01
4.689562e-01
4.376879e-01
4.064154e-01
3.751446e-01
3.438756e-01
3.126086e-01
2.813422e-01
2.500784e-01
2.188136e-01
1.875517e-01
1.562896e-01
1.250283e-01
9.376825e-02
6.250839e-02
3.124757e-02
0.000000e+00
5.000669e-01
4.687523e-01
4.375078e-01
4.062567e-01
3.750056e-01
3.437545e-01
3.125033e-01
2.812520e-01
2.500006e-01
2.187491e-01
1.874974e-01
1.562459e-01
1.249948e-01
9.374357e-02
6.249248e-02
3.123978e-02
0.000000e+00
4.998300e-01
4.685428e-01
4.373227e-01
4.060934e-01
3.748624e-01
3.436291e-01
3.123940e-01
2.811581e-01
2.499193e-01
2.186814e-01
1.874403e-01
1.561999e-01
1.249593e-01
9.371737e-02
6.247555e-02
3.123155e-02
0.000000e+00
4.996721e-01
4.684025e-01
4.371978e-01
4.059833e-01
3.747656e-01
3.435443e-01
3.123202e-01
2.810946e-01
2.498644e-01
2.186357e-01
1.874017e-01
1.561688e-01
1.249353e-01
9.369959e-02
6.246397e-02
3.122577e-02
0.000000e+00
4.996376e-01
4.683715e-01
4.371698e-01
4.059580e-01
3.747430e-01
3.435241e-01
3.123023e-01
2.810790e-01
2.498507e-01
2.186242e-01
1.873919e-01
1.561608e-01
1.249291e-01
9.369499e-02
6.246101e-02
3.122435e-02
0.000000e+00
4.997382e-01
4.684568e-01
4.372452e-01
4.060235e-01
3.747996e-01
3.435731e-01
3.123444e-01
2.811148e-01
2.498814e-01
2.186495e-01
1.874131e-01
1.561777e-01
1.249422e-01
9.370458e-02
6.246722e-02
3.122744e-02
0.000000e+00
4.999321e-01
4.686282e-01
4.373952e-01
4.061546e-01
3.749137e-01
3.436721e-01
3.124300e-01
2.811878e-01
2.499441e-01
2.187014e-01
1.874566e-01
1.562127e-01
1.249691e-01
9.372441e-02
6.248004e-02
3.123377e-02
0.000000e+00
5.001546e-01
4.688234e-01
4.375665e-01
4.063047e-01
3.750446e-01
3.437860e-01
3.125286e-01
2.812720e-01
2.500165e-01
2.187614e-01
1.875069e-01
1.562531e-01
1.250001e-01
9.374731e-02
6.249482e-02
3.124104e-02
0.000000e+00
5.003280e-01
4.689758e-01
4.377004e-01
4.064223e-01
3.751472e-01
3.438753e-01
3.126059e-01
2.813380e-01