<?xml version="1.0"?>
<VTKFile type="StructuredGrid" version="0.1">
  <StructuredGrid WholeExtent="16 32 0 16 0 16">
    <Piece Extent="16 32 0 16 0 16">
      <PointData Scalars="temperature" Vectors="velocity">
        <DataArray type="Float32" Name="temperature" format="ascii">
5.000814e-01
4.688007e-01
4.375455e-01
4.062888e-01
3.750330e-01
3.437778e-01
3.125233e-01
2.812691e-01
2.500157e-01
2.187623e-01
1.875096e-01
1.562569e-01
1.250046e-01
9.375245e-02
6.250048e-02
3.124803e-02
0.000000e+00
5.000704e-01
4.687912e-01
4.375373e-01
4.062817e-01
3.750269e-01
3.437726e-01
3.125188e-01
2.812654e-01
2.500125e-01
2.187597e-01
1.875074e-01
1.562552e-01
1.250033e-01
9.375149e-02
6.249986e-02
3.124775e-02
0.000000e+00
5.000413e-01
4.687659e-01
4.375155e-01
4.062629e-01
3.750107e-01
3.437587e-01
3.125070e-01
2.812554e-01
2.500041e-01
2.187527e-01
1.875016e-01
1.562505e-01
1.249997e-01
9.374886e-02
6.249816e-02
3.124690e-02
0.000000e+00
5.000037e-01
4.687334e-01
4.374873e-01
4.062386e-01
3.749898e-01
3.437408e-01
3.124917e-01
2.812426e-01
2.499931e-01
2.187437e-01
1.874941e-01
1.562445e-01
1.249951e-01
9.374548e-02
6.249597e-02
3.124583e-02
0.000000e+00
4.999704e-01
4.687045e-01
4.374623e-01
4.062170e-01
3.749713e-01
3.437249e-01
3.124782e-01
2.812312e-01
2.499834e-01
2.187358e-01
1.874874e-01
1.562392e-01
1.249910e-01
9.374247e-02
6.249402e-02
3.124487e-02
0.000000e+00
4.999524e-01
4.686890e-01
4.374489e-01
4.062054e-01
3.749613e-01
3.437164e-01
3.124709e-01
2.812250e-01
2.499782e-01
2.187315e-01
1.874838e-01
1.562364e-01
1.249888e-01
9.374084e-02
6.249297e-02
3.124436e-02
0.000000e+00
4.999559e-01
4.686919e-01
4.374514e-01
4.062076e-01
3.749632e-01
3.437180e-01
3.124723e-01
2.812262e-01
2.499792e-01
2.187323e-01
1.874845e-01
1.562369e-01
1.249892e-01
9.374115e-02
6.249316e-02
3.124445e-02
0.000000e+00
4.999794e-01
4.687123e-01
4.374691e-01
4.062228e-01
3.749762e-01
3.437292e-01
3.124818e-01
2.812342e-01
2.499860e-01
2.187379e-01
1.874892e-01
1.562407e-01
1.249921e-01
9.374328e-02
6.249454e-02
3.124513e-02
0.000000e+00
5.000152e-01
4.687433e-01
4.374958e-01
4.062460e-01
3.749961e-01
3.437462e-01
3.124963e-01
2.812465e-01
2.499964e-01
2.187465e-01
1.874964e-01
1.562464e-01
1.249965e-01
9.374653e-02
6.249663e-02
3.124617e-02
0.000000e+00
5.000511e-01
4.687744e-01
4.375228e-01
4.062693e-01
3.750161e-01
3.437634e-01
3.125110e-01
2.812588e-01
2.500070e-01
2.187551e-01
1.875036e-01
1.562522e-01
1.250009e-01
9.374981e-02
6.249874e-02
3.124721e-02
0.000000e+00
5.000754e-01
4.687955e-01
4.375411e-01
4.062851e-01
3.750297e-01
3.437751e-01
3.125210e-01
2.812673e-01
2.500142e-01
2.187611e-01
1.875086e-01
1.562561e-01
1.250040e-01
9.375206e-02
6.250020e-02
3.124793e-02
0.000000e+00
5.000802e-01
4.687998e-01
4.375449e-01
4.062884e-01
3.750327e-01
3.437777e-01
3.125232e-01
2.812692e-01
2.500158e-01
2.187624e-01
1.875097e-01
1.562571e-01
1.250047e-01
9.375259e-02
6.250053e-02
3.124809e-02
0.000000e+00
5.000645e-01
4.687864e-01
4.375333e-01
4.062786e-01
3.750243e-01
3.437706e-01
3.125172e-01
2.812641e-01
2.500115e-01
2.187589e-01
1.875068e-01
1.562547e-01
1.250029e-01
9.375127e-02
6.249968e-02
3.124767e-02
0.000000e+00
5.000340e-01
4.687602e-01
4.375108e-01
4.062592e-01
3.750078e-01
3.437565e-01
3.125052e-01
2.812541e-01
2.500030e-01
2.187519e-01
1.875009e-01
1.562501e-01
1.249993e-01
9.374863e-02
6.249798e-02
3.124683e-02
0.000000e+00
4.999995e-01
4.687304e-01
4.374852e-01
4.062372e-01
3.749889e-01
3.437404e-01
3.124915e-01
2.812426e-01
2.499932e-01
2.187439e-01
1.874942e-01
1.562447e-01
1.249952e-01
9.374562e-02
6.249603e-02
3.124587e-02
0.000000e+00
4.999727e-01
4.687073e-01
4.374652e-01
4.062201e-01
3.749742e-01
3.437278e-01
3.124808e-01
2.812336e-01
2.499856e-01
2.187377e-01
1.874890e-01
1.562406e-01
1.249920e-01
9.374327e-02
6.249451e-02
3.124513e-02
0.000000e+00
4.999624e-01
4.686984e-01
4.374576e-01
4.062135e-01
3.749686e-01
3.437230e-01
3.124767e-01
2.812301e-01
2.499826e-01
2.187352e-01
1.874870e-01
1.562390e-01
1.249908e-01
9.374232e-02
6.249388e-02
3.124479e-02
0.000000e+00
5.000766e-01
4.687965e-01
4.375419e-01
4.062857e-01
3.750303e-01
3.437755e-01
3.125213e-01
2.812675e-01
2.500143e-01
2.187611e-01
1.875086e-01
1.562561e-01
1.250040e-01
9.375203e-02
6.250020e-02
3.124789e-02
0.000000e+00
5.000664e-01
4.687877e-01
4.375343e-01
4.062792e-01
3.750247e-01
3.437707e-01
3.125172e-01
2.812640e-01
2.500114e-01
2.187587e-01
1.875066e-01
1.562545e-01
1.250028e-01
9.375115e-02
6.249964e-02
3.124763e-02
0.000000e+00
5.000395e-01
4.687644e-01
4.375141e-01
4.062617e-01
3.750097e-01
3.437578e-01
3.125063e-01
2.812548e-01
2.500036e-01
2.187523e-01
1.875012e-01
1.562502e-01
1.249995e-01
9.374871e-02
6.249805e-02
3.124685e-02
0.000000e+00
5.000048e-01
4.687343e-01
4.374881e-01
4.062393e-01
3.749904e-01
3.437413e-01
3.124922e-01
2.812429e-01
2.499935e-01
2.187440e-01
1.874943e-01
1.562447e-01
1.249952e-01
9.374558e-02
6.249603e-02
3.124586e-02
0.000000e+00
4.999740e-01
4.687077e-01
4.374651e-01
4.062194e-01
3.749733e-01
3.437267e-01
3.124797e-01
2.812324e-01
2.499845e-01
2.187366e-01
1.874882e-01
1.562398e-01
1.249914e-01
9.374280e-02
6.249423e-02
3.124498e-02
0.000000e+00
4.999574e-01
4.686933e-01
4.374527e-01
4.062087e-01
3.749641e-01
3.437188e-01
3.124730e-01
2.812267e-01
2.499796e-01
2.187327e-01
1.874848e-01
1.562371e-01
1.249894e-01
9.374130e-02
6.249326e-02
3.124450e-02
0.000000e+00
4.999606e-01
4.686961e-01
4.374550e-01
4.062107e-01
3.749659e-01
3.437203e-01
3.124742e-01
2.812278e-01
2.499805e-01
2.187334e-01
1.874854e-01
1.562376e-01
1.249898e-01
9.374158e-02
6.249344e-02
3.124459e-02
0.000000e+00
4.999823e-01
4.687149e-01
4.374713e-01
4.062248e-01
3.749779e-01
3.437306e-01
3.124830e-01
2.812352e-01
2.499869e-01
2.187386e-01
1.874898e-01
1.562411e-01
1.249925e-01
9.374355e-02
6.249471e-02
3.124521e-02
0.000000e+00
5.000153e-01
4.687434e-01
4.374959e-01
4.062461e-01
3.749962e-01
3.437463e-01
3.124964e-01
2.812465e-01
2.499965e-01
2.187465e-01
1.874964e-01
1.562464e-01
1.249965e-01
9.374655e-02
6.249664e-02
3.124617e-02
0.000000e+00
5.000485e-01
4.687722e-01
4.375208e-01
4.062676e-01
3.750147e-01
3.437622e-01
3.125099e-01
2.812580e-01
2.500062e-01
2.187545e-01
1.875031e-01
1.562518e-01
1.250006e-01
9.374958e-02
6.249860e-02
3.124714e-02
0.000000e+00
5.000709e-01
4.687916e-01
4.375377e-01
4.062822e-01
3.750272e-01
3.437730e-01
3.125192e-01
2.812658e-01
2.500129e-01
2.187600e-01
1.875077e-01
1.562554e-01
1.250035e-01
9.375166e-02
6.249994e-02
3.124780e-02
0.000000e+00
5.000754e-01
4.687956e-01
4.375412e-01
4.062852e-01
3.750299e-01
3.437753e-01
3.125212e-01
2.812675e-01
2.500144e-01
2.187613e-01
1.875087e-01
1.562563e-01
1.250041e-01
9.375214e-02
6.250025e-02
3.124795e-02
0.000000e+00
5.000609e-01
4.687832e-01
4.375305e-01
4.062762e-01
3.750222e-01
3.437688e-01
3.125157e-01
2.812628e-01
2.500104e-01
2.187580e-01
1.875060e-01
1.562541e-01
1.250024e-01
9.375093e-02
6.249946e-02
3.124756e-02
0.000000e+00
5.000327e-01
4.687590e-01
4.375098e-01
4.062583e-01
3.750070e-01
3.437557e-01
3.125046e-01
2.812535e-01
2.500025e-01
2.187516e-01
1.875006e-01
1.562498e-01
1.249991e-01
9.374849e-02
6.249789e-02
3.124679e-02
0.000000e+00
5.000008e-01
4.687315e-01
4.374861e-01
4.062380e-01
3.749895e-01
3.437409e-01
3.124919e-01
2.812429e-01
2.499935e-01
2.187442e-01
1.874944e-01
1.562449e-01
1.249954e-01
9.374570e-02
6.249609e-02
3.124590e-02
0.000000e+00
4.999760e-01
4.687101e-01
4.374677e-01
4.062221e-01
3.749760e-01
3.437293e-01
3.124821e-01
2.812346e-01
2.499864e-01
2.187384e-01
1.874896e-01
1.562410e-01
1.249924e-01
9.374353e-02
6.249468e-02
3.124521e-02
0.000000e+00
4.999665e-01
4.687019e-01
4.374606e-01
4.062160e-01
3.749707e-01
3.437248e-01
3.124783e-01
2.812314e-01
2.499837e-01
2.187361e-01
1.874877e-01
1.562395e-01
1.249912e-01
9.374265e-02
6.249409e-02
3.124489e-02
0.000000e+00
5.000627e-01
4.687845e-01
4.375315e-01
4.062768e-01
3.750226e-01
3.437690e-01
3.125158e-01
2.812628e-01
2.500104e-01
2.187579e-01
1.875059e-01
1.562540e-01
1.250024e-01
9.375082e-02
6.249941e-02
3.124750e-02
0.000000e+00
5.000549e-01
4.687778e-01
4.375257e-01
4.062718e-01
3.750183e-01
3.437653e-01
3.125126e-01
2.812602e-01
2.500081e-01
2.187561e-01
1.875044e-01
1.562528e-01
1.250014e-01
9.375015e-02
6.249898e-02
3.124731e-02
0.000000e+00
5.000343e-01
4.687599e-01
4.375102e-01
4.062584e-01
3.750068e-01
3.437554e-01
3.125042e-01
2.812531e-01
2.500021e-01
2.187511e-01
1.875002e-01
1.562495e-01
1.249989e-01
9.374828e-02
6.249775e-02
3.124672e-02
0.000000e+00
5.000077e-01
4.687369e-01
4.374904e-01
4.062413e-01
3.749921e-01
3.437428e-01
3.124934e-01
2.812440e-01
2.499944e-01
2.187447e-01
1.874949e-01
1.562452e-01
1.249956e-01
9.374588e-02
6.249620e-02
3.124596e-02
0.000000e+00
4.999842e-01
4.687166e-01
4.374728e-01
4.062261e-01
3.749791e-01
3.437316e-01
3.124839e-01
2.812359e-01
2.499875e-01
2.187391e-01
1.874902e-01
1.562414e-01
1.249927e-01
9.374374e-02
6.249483e-02
3.124527e-02
0.000000e+00
4.999715e-01
4.687056e-01
4.374633e-01
4.062179e-01
3.749721e-01
3.437256e-01
3.124787e-01
2.812316e-01
2.499838e-01
2.187361e-01
1.874877e-01
1.562394e-01
1.249911e-01
9.374259e-02
6.249408e-02
3.124490e-02
0.000000e+00
4.999739e-01
4.687077e-01
4.374651e-01
4.062195e-01
3.749734e-01
3.437267e-01
3.124797e-01
2.812324e-01
2.499845e-01
2.187366e-01
1.874881e-01
1.562398e-01
1.249914e-01
9.374280e-02
6.249421e-02
3.124497e-02
0.000000e+00
4.999905e-01
4.687220e-01
4.374775e-01
4.062302e-01
3.749826e-01
3.437346e-01
3.124864e-01
2.812381e-01
2.499893e-01
2.187406e-01
1.874915e-01
1.562425e-01
1.249935e-01
9.374431e-02
6.249519e-02
3.124545e-02
0.000000e+00
5.000157e-01
4.687438e-01
4.374963e-01
4.062464e-01
3.749965e-01
3.437466e-01
3.124967e-01
2.812467e-01
2.499967e-01
2.187467e-01
1.874965e-01
1.562465e-01
1.249966e-01
9.374660e-02
6.249668e-02
3.124619e-02
0.000000e+00
5.000411e-01
4.687657e-01
4.375153e-01
4.062628e-01
3.750106e-01
3.437587e-01
3.125070e-01
2.812555e-01
2.500041e-01
2.187528e-01
1.875017e-01
1.562506e-01
1.249998e-01
9.374893e-02
6.249818e-02
3.124693e-02
0.000000e+00
5.000582e-01
4.687806e-01
4.375281e-01
4.062739e-01
3.750201e-01
3.437669e-01
3.125140e-01
2.812614e-01
2.500092e-01
2.187570e-01
1.875052e-01
1.562534e-01
1.250019e-01
9.375052e-02
6.249921e-02
3.124744e-02
0.000000e+00
5.000616e-01
4.687837e-01
4.375308e-01
4.062763e-01
3.750222e-01
3.437687e-01
3.125156e-01
2.812628e-01
2.500104e-01
2.187580e-01
1.875060e-01
1.562541e-01
1.250024e-01
9.375089e-02
6.249945e-02
3.124755e-02
0.000000e+00
5.000506e-01
4.687742e-01
4.375227e-01
4.062693e-01
3.750163e-01
3.437637e-01
3.125113e-01
2.812592e-01
2.500073e-01
2.187555e-01
1.875039e-01
1.562524e-01
1.250011e-01
9.374995e-02
6.249884e-02
3.124725e-02
0.000000e+00
5.000290e-01
4.687557e-01
4.375068e-01
4.062557e-01
3.750047e-01
3.437538e-01
3.125029e-01
2.812521e-01
2.500013e-01
2.187505e-01
1.874998e-01
1.562491e-01
1.249986e-01
9.374809e-02
6.249764e-02
3.124666e-02
0.000000e+00
5.000046e-01
4.687346e-01
4.374887e-01
4.062402e-01
3.749914e-01
3.437424e-01
3.124932e-01
2.812439e-01
2.499944e-01
2.187448e-01
1.874950e-01
1.562453e-01
1.249957e-01
9.374595e-02
6.249626e-02
3.124598e-02
0.000000e+00
4.999856e-01
4.687182e-01
4.374746e-01
4.062280e-01
3.749810e-01
3.437335e-01
3.124856e-01
2.812376e-01
2.499889e-01
2.187404e-01
1.874913e-01
1.562424e-01
1.249934e-01
9.374428e-02
6.249517e-02
3.124545e-02
0.000000e+00
4.999783e-01
4.687120e-01
4.374692e-01
4.062234e-01
3.749770e-01
3.437301e-01
3.124827e-01
2.812351e-01
2.499868e-01
2.187387e-01
1.874898e-01
1.562412e-01
1.249925e-01
9.374359e-02
6.249470e-02
3.124519e-02
0.000000e+00
5.000418e-01
4.687665e-01
4.375160e-01
4.062634e-01
3.750111e-01
3.437591e-01
3.125074e-01
2.812558e-01
2.500044e-01
2.187530e-01
1.875018e-01
1.562507e-01
1.249998e-01
9.374898e-02
6.249821e-02
3.124692e-02
0.000000e+00
5.000376e-01
4.687628e-01
4.375128e-01
4.062607e-01
3.750088e-01
3.437571e-01
3.125057e-01
2.812543e-01
2.500032e-01
2.187520e-01
1.875010e-01
1.562501e-01
1.249993e-01
9.374863e-02
6.249799e-02
3.124683e-02
0.000000e+00
5.000264e-01
4.687532e-01
4.375044e-01
4.062534e-01
3.750026e-01
3.437518e-01
3.125011e-01
2.812505e-01
2.499999e-01
2.187493e-01
1.874987e-01
1.562483e-01
1.249980e-01
9.374761e-02
6.249732e-02
3.124651e-02
0.000000e+00
5.000121e-01
4.687407e-01
4.374937e-01
4.062442e-01
3.749946e-01
3.437449e-01
3.124953e-01
2.812456e-01
2.499957e-01
2.187459e-01
1.874959e-01
1.562460e-01
1.249962e-01
9.374631e-02
6.249648e-02
3.124609e-02
0.000000e+00
4.999993e-01
4.687297e-01
4.374841e-01
4.062359e-01
3.749875e-01
3.437389e-01
3.124901e-01
2.812412e-01
2.499920e-01
2.187428e-01
1.874933e-01
1.562439e-01
1.249946e-01
9.374515e-02
6.249573e-02
3.124572e-02
0.000000e+00
4.999925e-01
4.687238e-01
4.374790e-01
4.062315e-01
3.749838e-01
3.437357e-01
3.124873e-01
2.812388e-01
2.499900e-01
2.187411e-01
1.874919e-01
1.562428e-01
1.249938e-01
9.374452e-02
6.249532e-02
3.124552e-02
0.000000e+00
4.999938e-01
4.687249e-01
4.374800e-01
4.062324e-01
3.749845e-01
3.437363e-01
3.124878e-01
2.812393e-01
2.499903e-01
2.187414e-01
1.874922e-01
1.562430e-01
1.249939e-01
9.374463e-02
6.249539e-02
3.124556e-02
0.000000e+00
5.000028e-01
4.687327e-01
4.374867e-01
4.062381e-01
3.749894e-01
3.437405e-01
3.124915e-01
2.812423e-01
2.499929e-01
2.187436e-01
1.874940e-01
1.562445e-01
1.249950e-01
9.374545e-02
6.249592e-02
3.124582e-02
0.000000e+00
5.000164e-01
4.687444e-01
4.374969e-01
4.062469e-01
3.749969e-01
3.437470e-01
3.124970e-01
2.812470e-01
2.499969e-01
2.187469e-01
1.874967e-01
1.562467e-01
1.249967e-01
9.374669e-02
6.249673e-02
3.124621e-02
0.000000e+00
5.000300e-01
4.687562e-01
4.375071e-01
4.062557e-01
3.750045e-01
3.437535e-01
3.125026e-01
2.812518e-01
2.500010e-01
2.187502e-01
1.874995e-01
1.562489e-01
1.249984e-01
9.374795e-02
6.249755e-02
3.124662e-02
0.000000e+00
5.000393e-01
4.687643e-01
4.375140e-01
4.062617e-01
3.750097e-01
3.437580e-01
3.125064e-01
2.812550e-01
2.500037e-01
2.187525e-01
1.875014e-01
1.562504e-01
1.249996e-01
9.374881e-02
6.249811e-02
3.124689e-02
0.000000e+00
5.000411e-01
4.687659e-01
4.375155e-01
4.062630e-01
3.750108e-01
3.437589e-01
3.125073e-01
2.812557e-01
2.500044e-01
2.187530e-01
1.875018e-01
1.562508e-01
1.249999e-01
9.374901e-02
6.249824e-02
3.124695e-02
0.000000e+00
5.000351e-01
4.687608e-01
4.375111e-01
4.062593e-01
3.750077e-01
3.437562e-01
3.125050e-01
2.812538e-01
2.500027e-01
2.187517e-01
1.875007e-01
1.562499e-01
1.249992e-01
9.374850e-02
6.249791e-02
3.124679e-02
0.000000e+00
5.000235e-01
4.687508e-01
4.375025e-01
4.062519e-01
3.750014e-01
3.437508e-01
3.125004e-01
2.812499e-01
2.499994e-01
2.187490e-01
1.874985e-01
1.562481e-01
1.249978e-01
9.374749e-02
6.249725e-02
3.124646e-02
0.000000e+00
5.000103e-01
4.687394e-01
4.374927e-01
4.062435e-01
3.749942e-01
3.437447e-01
3.124951e-01
2.812455e-01
2.499957e-01
2.187459e-01
1.874959e-01
1.562460e-01
1.249962e-01
9.374633e-02
6.249650e-02
3.124610e-02
0.000000e+00
5.000000e-01
4.687305e-01
4.374851e-01
4.062369e-01
3.749885e-01
3.437399e-01
3.124910e-01
2.812420e-01
2.499927e-01
2.187435e-01
1.874939e-01
1.562444e-01
1.249950e-01
9.374542e-02
6.249591e-02
3.124581e-02
0.000000e+00
4.999960e-01
4.687271e-01
4.374821e-01
4.062344e-01
3.749863e-01
3.437380e-01
3.124894e-01
2.812407e-01
2.499916e-01
2.187425e-01
1.874930e-01
1.562437e-01
1.249945e-01
9.374502e-02
6.249563e-02
3.124564e-02
0.000000e+00
5.000172e-01
4.687452e-01
4.374976e-01
4.062475e-01
3.749975e-01
3.437475e-01
3.124975e-01
2.812474e-01
2.499973e-01
2.187472e-01
1.874970e-01
1.562468e-01
1.249969e-01
9.374678e-02
6.249679e-02
3.124622e-02
0.000000e+00
5.000172e-01
4.687452e-01
4.374976e-01
4.062476e-01
3.749976e-01
3.437475e-01
3.124975e-01
2.812474e-01
2.499973e-01
2.187472e-01
1.874970e-01
1.562469e-01
1.249969e-01
9.374682e-02
6.249682e-02
3.124626e-02
0.000000e+00
5.000172e-01
4.687452e-01
4.374976e-01
4.062476e-01
3.749975e-01
3.437475e-01
3.124975e-01
2.812474e-01
2.499973e-01
2.187472e-01
1.874970e-01
1.562469e-01
1.249969e-01
9.374682e-02
6.249681e-02
3.124626e-02
0.000000e+00
5.000172e-01
4.687452e-01
4.374975e-01
4.062475e-01
3.749975e-01
3.437475e-01
3.124975e-01
2.812474e-01
2.499973e-01
2.187472e-01
1.874970e-01
1.562469e-01
1.249969e-01
9.374681e-02
6.249681e-02
3.124626e-02
0.000000e+00
5.000171e-01
4.687451e-01
4.374975e-01
4.062475e-01
3.749975e-01
3.437475e-01
3.124975e-01
2.812474e-01
2.499973e-01
2.187472e-01
1.874970e-01
1.562469e-01
1.249969e-01
9.374681e-02
6.249681e-02
3.124626e-02
0.000000e+00
5.000171e-01
4.687451e-01
4.374975e-01
4.062475e-01
3.749975e-01
3.437475e-01
3.124974e-01
2.812474e-01
2.499973e-01
2.187472e-01
1.874970e-01
1.562469e-01
1.249969e-01
9.374681e-02
6.249680e-02
3.124626e-02
0.000000e+00
5.000171e-01
4.687451e-01
4.374975e-01
4.062475e-01
3.749975e-01
3.437475e-01
3.124974e-01
2.812474e-01
2.499973e-01
2.187472e-01
1.874970e-01
1.562469e-01
1.249969e-01
9.374681e-02
6.249680e-02
3.124625e-02
0.000000e+00
5.000171e-01
4.687451e-01
4.374975e-01
4.062475e-01
3.749975e-01
3.437475e-01
3.124974e-01
2.812474e-01
2.499973e-01
2.187472e-01
1.874969e-01
1.562469e-01
1.249969e-01
9.374680e-02
6.249680e-02
3.124625e-02
0.000000e+00
5.000171e-01
4.687451e-01
4.374975e-01
4.062475e-01
3.749975e-01
3.437475e-01
3.124974e-01
2.812474e-01
2.499973e-01
2.187472e-01
1.874969e-01
1.562468e-01
1.249969e-01
9.374680e-02
6.249680e-02
3.124625e-02
0.000000e+00
5.000171e-01
4.687451e-01
4.374975e-01
4.062475e-01
3.749975e-01
3.437475e-01
3.124974e-01
2.812474e-01
2.499973e-01
2.187472e-01
1.874969e-01
1.562468e-01
1.249968e-01
9.374679e-02
6.249680e-02
3.124624e-02
0.000000e+00
5.000171e-01
4.687451e-01
4.374975e-01
4.062475e-01
3.749975e-01
3.437475e-01
3.124974e-01
2.812474e-01
2.499973e-01
2.187472e-01
1.874969e-01
1.562468e-01
1.249968e-01
9.374678e-02
6.249680e-02
3.124624e-02
0.000000e+00
5.000171e-01
4.687451e-01
4.374975e-01
4.062475e-01
3.749975e-01
3.437475e-01
3.124974e-01
2.812474e-01
2.499973e-01
2.187472e-01
1.874969e-01
1.562468e-01
1.249968e-01
9.374678e-02
6.249679e-02
3.124624e-02
0.000000e+00
5.000171e-01
4.687451e-01
4.374975e-01
4.062475e-01
3.749975e-01
3.437474e-01
3.124974e-01
2.812474e-01
2.499972e-01
2.187472e-01
1.874969e-01
1.562468e-01
1.249968e-01
9.374678e-02
6.249679e-02
3.124624e-02
0.000000e+00
5.000170e-01
4.687451e-01
4.374975e-01
4.062474e-01
3.749975e-01
3.437474e-01
3.124974e-01
2.812474e-01
2.499972e-01
2.187471e-01
1.874969e-01
1.562468e-01
1.249968e-01
9.374678e-02
6.249679e-02
3.124624e-02
0.000000e+00
5.000170e-01
4.687450e-01
4.374974e-01
4.062474e-01
3.749974e-01
3.437474e-01
3.124974e-01
2.812474e-01
2.499972e-01
2.187471e-01
1.874969e-01
1.562468e-01
1.249968e-01
9.374678e-02
6.249679e-02
3.124624e-02
0.000000e+00
5.000170e-01
4.687450e-01
4.374974e-01
4.062474e-01
3.749974e-01
3.437474e-01
3.124974e-01
2.812474e-01
2.499972e-01
2.187471e-01
1.874969e-01
1.562468e-01
1.249968e-01
9.374678e-02
6.249679e-02
3.124624e-02
0.000000e+00
5.000170e-01
4.687450e-01
4.374974e-01
4.062474e-01
3.749974e-01
3.437474e-01
3.124973e-01
2.812473e-01
2.499972e-01
2.187471e-01
1.874969e-01
1.562468e-01
1.249968e-01
9.374673e-02
6.249673e-02
3.124619e-02
0.000000e+00
4.999926e-01
4.687239e-01
4.374792e-01
4.062317e-01
3.749840e-01
3.437358e-01
3.124876e-01
2.812390e-01
2.499902e-01
2.187413e-01
1.874921e-01
1.562430e-01
1.249939e-01
9.374458e-02
6.249537e-02
3.124553e-02
0.000000e+00
4.999968e-01
4.687276e-01
4.374824e-01
4.062344e-01
3.749863e-01
3.437379e-01
3.124893e-01
2.812405e-01
2.499914e-01
2.187424e-01
1.874930e-01
1.562437e-01
1.249944e-01
9.374500e-02
6.249565e-02
3.124568e-02
0.000000e+00
5.000079e-01
4.687372e-01
4.374907e-01
4.062417e-01
3.749925e-01
3.437432e-01
3.124938e-01
2.812444e-01
2.499947e-01
2.187451e-01
1.874952e-01
1.562455e-01
1.249958e-01
9.374602e-02
6.249630e-02
3.124601e-02
0.000000e+00
5.000222e-01
4.687496e-01
4.375014e-01
4.062509e-01
3.750004e-01
3.437500e-01
3.124997e-01
2.812493e-01
2.499989e-01
2.187485e-01
1.874981e-01
1.562478e-01
1.249976e-01
9.374733e-02
6.249714e-02
3.124642e-02
0.000000e+00
5.000349e-01
4.687606e-01
4.375109e-01
4.062591e-01
3.750075e-01
3.437560e-01
3.125048e-01
2.812536e-01
2.500026e-01
2.187516e-01
1.875006e-01
1.562498e-01
1.249991e-01
9.374849e-02
6.249789e-02
3.124679e-02
0.000000e+00
5.000417e-01
4.687665e-01
4.375160e-01
4.062635e-01
3.750112e-01
3.437593e-01
3.125076e-01
2.812560e-01
2.500046e-01
2.187532e-01
1.875020e-01
1.562509e-01
1.250000e-01
9.374911e-02
6.249830e-02
3.124700e-02
0.000000e+00
5.000404e-01
4.687653e-01
4.375150e-01
4.062627e-01
3.750105e-01
3.437587e-01
3.125071e-01
2.812555e-01
2.500042e-01
2.187529e-01
1.875018e-01
1.562507e-01
1.249998e-01
9.374900e-02
6.249822e-02
3.124696e-02
0.000000e+00
5.000314e-01
4.687576e-01
4.375083e-01
4.062569e-01
3.750056e-01
3.437544e-01
3.125034e-01
2.812525e-01
2.500016e-01
2.187507e-01
1.874999e-01
1.562493e-01
1.249987e-01
9.374817e-02
6.249769e-02
3.124669e-02
0.000000e+00
5.000179e-01
4.687458e-01
4.374982e-01
4.062481e-01
3.749980e-01
3.437479e-01
3.124979e-01
2.812478e-01
2.499976e-01
2.187474e-01
1.874972e-01
1.562470e-01
1.249970e-01
9.374690e-02
6.249687e-02
3.124628e-02
0.000000e+00
5.000042e-01
4.687340e-01
4.374879e-01
4.062392e-01
3.749904e-01
3.437414e-01
3.124923e-01
2.812430e-01
2.499935e-01
2.187441e-01
1.874944e-01
1.562448e-01
1.249953e-01
9.374563e-02
6.249604e-02
3.124587e-02
0.000000e+00
4.999949e-01
4.687259e-01
4.374809e-01
4.062332e-01
3.749852e-01
3.437369e-01
3.124884e-01
2.812398e-01
2.499908e-01
2.187418e-01
1.874925e-01
1.562432e-01
1.249941e-01
9.374475e-02
6.249547e-02
3.124559e-02
0.000000e+00
4.999931e-01
4.687243e-01
4.374795e-01
4.062319e-01
3.749841e-01
3.437360e-01
3.124876e-01
2.812391e-01
2.499901e-01
2.187413e-01
1.874920e-01
1.562429e-01
1.249938e-01
9.374455e-02
6.249534e-02
3.124552e-02
0.000000e+00
4.999990e-01
4.687294e-01
4.374838e-01
4.062356e-01
3.749873e-01
3.437387e-01
3.124899e-01
2.812410e-01
2.499918e-01
2.187426e-01
1.874931e-01
1.562438e-01
1.249945e-01
9.374506e-02
6.249567e-02
3.124568e-02
0.000000e+00
5.000106e-01
4.687393e-01
4.374924e-01
4.062430e-01
3.749935e-01
3.437440e-01
3.124944e-01
2.812448e-01
2.499950e-01
2.187453e-01
1.874954e-01
1.562456e-01
1.249959e-01
9.374607e-02
6.249633e-02
3.124601e-02
0.000000e+00
5.000238e-01
4.687507e-01
4.375022e-01
4.062514e-01
3.750007e-01
3.437501e-01
3.124997e-01
2.812492e-01
2.499988e-01
2.187484e-01
1.874979e-01
1.562476e-01
1.249975e-01
9.374724e-02
6.249708e-02
3.124638e-02
0.000000e+00
5.000341e-01
4.687595e-01
4.375098e-01
4.062579e-01
3.750063e-01
3.437550e-01
3.125038e-01
2.812527e-01
2.500017e-01
2.187508e-01
1.875000e-01
1.562492e-01
1.249987e-01
9.374815e-02
6.249767e-02
3.124667e-02
0.000000e+00
5.000379e-01
4.687629e-01
4.375127e-01
4.062604e-01
3.750084e-01
3.437568e-01
3.125053e-01
2.812540e-01
2.500028e-01
2.187517e-01
1.875007e-01
1.562498e-01
1.249991e-01
9.374845e-02
6.249785e-02
3.124673e-02
0.000000e+00
4.999717e-01
4.687059e-01
4.374636e-01
4.062183e-01
3.749724e-01
3.437260e-01
3.124792e-01
2.812320e-01
2.499842e-01
2.187364e-01
1.874880e-01
1.562397e-01
1.249913e-01
9.374272e-02
6.249416e-02
3.124494e-02
0.000000e+00
4.999795e-01
4.687126e-01
4.374695e-01
4.062233e-01
3.749768e-01
3.437297e-01
3.124823e-01
2.812347e-01
2.499865e-01
2.187383e-01
1.874895e-01
1.562409e-01
1.249923e-01
9.374346e-02
6.249465e-02
3.124520e-02
0.000000e+00
5.000001e-01
4.687305e-01
4.374849e-01
4.062367e-01
3.749882e-01
3.437396e-01
3.124907e-01
2.812418e-01
2.499925e-01
2.187433e-01
1.874937e-01
1.562443e-01
1.249949e-01
9.374535e-02
6.249587e-02
3.124580e-02
0.000000e+00
5.000266e-01
4.687534e-01
4.375047e-01
4.062538e-01
3.750029e-01
3.437522e-01
3.125015e-01
2.812509e-01
2.500002e-01
2.187496e-01
1.874990e-01
1.562485e-01
1.249982e-01
9.374776e-02
6.249742e-02
3.124656e-02
0.000000e+00
5.000500e-01
4.687737e-01
4.375223e-01
4.062690e-01
3.750159e-01
3.437633e-01
3.125110e-01
2.812589e-01
2.500071e-01
2.187553e-01
1.875038e-01
1.562523e-01
1.250011e-01
9.374991e-02
6.249881e-02
3.124725e-02
0.000000e+00
5.000626e-01
4.687846e-01
4.375317e-01
4.062771e-01
3.750229e-01
3.437693e-01
3.125162e-01
2.812633e-01
2.500108e-01
2.187583e-01
1.875063e-01
1.562544e-01
1.250026e-01
9.375107e-02
6.249957e-02
3.124763e-02
0.000000e+00
5.000602e-01
4.687825e-01
4.375299e-01
4.062755e-01
3.750216e-01
3.437682e-01
3.125152e-01
2.812624e-01
2.500101e-01
2.187578e-01
1.875058e-01
1.562540e-01
1.250024e-01
9.375085e-02
6.249943e-02
3.124756e-02
0.000000e+00
5.000436e-01
4.687681e-01
4.375175e-01
4.062648e-01
3.750124e-01
3.437603e-01
3.125085e-01
2.812567e-01
2.500053e-01
2.187538e-01
1.875025e-01
1.562513e-01
1.250003e-01
9.374932e-02
6.249844e-02
3.124706e-02
0.000000e+00
5.000185e-01
4.687464e-01
4.374987e-01
4.062486e-01
3.749985e-01
3.437483e-01
3.124982e-01
2.812481e-01
2.499979e-01
2.187477e-01
1.874974e-01
1.562472e-01
1.249971e-01
9.374699e-02
6.249693e-02
3.124631e-02
0.000000e+00
4.999933e-01
4.687246e-01
4.374798e-01
4.062322e-01
3.749844e-01
3.437363e-01
3.124879e-01
2.812393e-01
2.499904e-01
2.187415e-01
1.874922e-01
1.562430e-01
1.249939e-01
9.374464e-02
6.249540e-02
3.124555e-02
0.000000e+00
4.999762e-01
4.687097e-01
4.374669e-01
4.062211e-01
3.749748e-01
3.437280e-01
3.124808e-01
2.812333e-01
2.499853e-01
2.187373e-01
1.874887e-01
1.562402e-01
1.249917e-01
9.374302e-02
6.249435e-02
3.124503e-02
0.000000e+00
4.999727e-01
4.687067e-01
4.374642e-01
4.062187e-01
3.749728e-01
3.437262e-01
3.124793e-01
2.812320e-01
2.499841e-01
2.187363e-01
1.874879e-01
1.562395e-01
1.249912e-01
9.374265e-02
6.249411e-02
3.124491e-02
0.000000e+00
4.999837e-01
4.687161e-01
4.374723e-01
4.062256e-01
3.749786e-01
3.437312e-01
3.124835e-01
2.812356e-01
2.499872e-01
2.187388e-01
1.874899e-01
1.562412e-01
1.249925e-01
9.374359e-02
6.249472e-02
3.124522e-02
0.000000e+00
5.000051e-01
4.687345e-01
4.374881e-01
4.062392e-01
3.749902e-01
3.437411e-01
3.124919e-01
2.812427e-01
2.499932e-01
2.187438e-01
1.874941e-01
1.562445e-01
1.249951e-01
9.374547e-02
6.249594e-02
3.124582e-02
0.000000e+00
5.000295e-01
4.687555e-01
4.375062e-01
4.062547e-01
3.750035e-01
3.437525e-01
3.125016e-01
2.812508e-01
2.500001e-01
2.187495e-01
1.874988e-01
1.562483e-01
1.249980e-01
9.374762e-02
6.249733e-02
3.124650e-02
0.000000e+00
5.000485e-01
4.687719e-01
4.375203e-01
4.062669e-01
3.750139e-01
3.437614e-01
3.125092e-01
2.812572e-01
2.500055e-01
2.187539e-01
1.875026e-01
1.562513e-01
1.250003e-01
9.374931e-02
6.249842e-02
3.124704e-02
0.000000e+00
5.000557e-01
4.687780e-01
4.375256e-01
4.062715e-01
3.750178e-01
3.437647e-01
3.125120e-01
2.812596e-01
2.500076e-01
2.187556e-01
1.875039e-01
1.562524e-01
1.250011e-01
9.374991e-02
6.249879e-02
3.124719e-02
0.000000e+00
4.999578e-01
4.686938e-01
4.374532e-01
4.062093e-01
3.749647e-01
3.437194e-01
3.124735e-01
2.812272e-01
2.499801e-01
2.187331e-01
1.874852e-01
1.562375e-01
1.249896e-01
9.374147e-02
6.249335e-02
3.124454e-02
0.000000e+00
4.999680e-01
4.687027e-01
4.374609e-01
4.062159e-01
3.749704e-01
3.437243e-01
3.124777e-01
2.812307e-01
2.499831e-01
2.187356e-01
1.874873e-01
1.562391e-01
1.249909e-01
9.374244e-02
6.249399e-02
3.124487e-02
0.000000e+00
4.999949e-01
4.687260e-01
4.374810e-01
4.062334e-01
3.749854e-01
3.437371e-01
3.124887e-01
2.812400e-01
2.499910e-01
2.187420e-01
1.874927e-01
1.562435e-01
1.249943e-01
9.374490e-02
6.249558e-02
3.124566e-02
0.000000e+00
5.000295e-01
4.687559e-01
4.375070e-01
4.062557e-01
3.750046e-01
3.437536e-01
3.125027e-01
2.812519e-01
2.500011e-01
2.187504e-01
1.874997e-01
1.562490e-01
1.249986e-01
9.374805e-02
6.249761e-02
3.124666e-02
0.000000e+00
5.000601e-01
4.687824e-01
4.375299e-01
4.062755e-01
3.750216e-01
3.437682e-01
3.125152e-01
2.812624e-01
2.500101e-01
2.187577e-01
1.875058e-01
1.562540e-01
1.250024e-01
9.375086e-02
6.249943e-02
3.124755e-02
0.000000e+00
5.000766e-01
4.687967e-01
4.375422e-01
4.062861e-01
3.750307e-01
3.437760e-01
3.125219e-01
2.812681e-01
2.500149e-01
2.187617e-01
1.875092e-01
1.562567e-01
1.250044e-01
9.375238e-02
6.250042e-02
3.124805e-02
0.000000e+00
5.000734e-01
4.687939e-01
4.375398e-01
4.062841e-01
3.750290e-01
3.437745e-01
3.125206e-01
2.812671e-01
2.500141e-01
2.187610e-01
1.875086e-01
1.562562e-01
1.250040e-01
9.375209e-02
6.250024e-02
3.124796e-02
0.000000e+00
5.000517e-01
4.687752e-01
4.375236e-01
4.062701e-01
3.750170e-01
3.437642e-01
3.125119e-01
2.812596e-01
2.500077e-01
2.187558e-01
1.875042e-01
1.562527e-01
1.250013e-01
9.375010e-02
6.249894e-02
3.124731e-02
0.000000e+00
5.000189e-01
4.687468e-01
4.374991e-01
4.062489e-01
3.749988e-01
3.437486e-01
3.124985e-01
2.812483e-01
2.499980e-01
2.187478e-01
1.874975e-01
1.562473e-01
1.249972e-01
9.374705e-02
6.249696e-02
3.124633e-02
0.000000e+00
4.999859e-01
4.687183e-01
4.374743e-01
4.062275e-01
3.749804e-01
3.437328e-01
3.124849e-01
2.812368e-01
2.499883e-01
2.187397e-01
1.874907e-01
1.562419e-01
1.249930e-01
9.374397e-02
6.249497e-02
3.124534e-02
0.000000e+00
4.999636e-01
4.686989e-01
4.374576e-01
4.062130e-01
3.749679e-01
3.437221e-01
3.124757e-01
2.812290e-01
2.499816e-01
2.187342e-01
1.874861e-01
1.562381e-01
1.249902e-01
9.374186e-02
6.249360e-02
3.124466e-02
0.000000e+00
4.999591e-01
4.686949e-01
4.374540e-01
4.062099e-01
3.749652e-01
3.437197e-01
3.124737e-01
2.812273e-01
2.499801e-01
2.187330e-01
1.874851e-01
1.562373e-01
1.249895e-01
9.374138e-02
6.249328e-02
3.124450e-02
0.000000e+00
4.999735e-01
4.687072e-01
4.374646e-01
4.062189e-01
3.749729e-01
3.437262e-01
3.124792e-01
2.812319e-01
2.499841e-01
2.187363e-01
1.874878e-01
1.562395e-01
1.249912e-01
9.374261e-02
6.249408e-02
3.124490e-02
0.000000e+00
5.000015e-01
4.687313e-01
4.374852e-01
4.062367e-01
3.749880e-01
3.437392e-01
3.124903e-01
2.812412e-01
2.499920e-01
2.187427e-01
1.874932e-01
1.562438e-01
1.249945e-01
9.374507e-02
6.249567e-02
3.124569e-02
0.000000e+00
5.000333e-01
4.687587e-01
4.375088e-01
4.062569e-01
3.750054e-01
3.437540e-01
3.125029e-01
2.812519e-01
2.500010e-01
2.187502e-01
1.874994e-01
1.562488e-01
1.249983e-01
9.374788e-02
6.249749e-02
3.124658e-02
0.000000e+00
5.000581e-01
4.687801e-01
4.375273e-01
4.062728e-01
3.750190e-01
3.437657e-01
3.125128e-01
2.812602e-01