<?xml version="1.0"?>
<VTKFile type="StructuredGrid" version="0.1">
  <StructuredGrid WholeExtent="0 16 0 16 0 16">
    <Piece Extent="0 16 0 16 0 16">
      <PointData Scalars="temperature" Vectors="velocity">
        <DataArray type="Float32" Name="temperature" format="ascii">
1.000000e+00
9.688522e-01
9.377039e-01
9.066536e-01
8.850450e-01
8.443590e-01
8.128517e-01
7.816021e-01
7.503254e-01
7.190451e-01
6.877651e-01
6.564849e-01
6.252076e-01
5.939323e-01
5.626594e-01
5.313791e-01
5.002019e-01
1.000000e+00
9.688332e-01
9.376685e-01
9.065909e-01
8.833462e-01
8.442439e-01
8.127905e-01
7.815402e-01
7.502680e-01
7.189927e-01
6.877178e-01
6.564427e-01
6.251700e-01
5.938990e-01
5.626301e-01
5.313533e-01
5.001791e-01
1.000000e+00
9.687797e-01
9.375717e-01
9.064092e-01
8.788246e-01
8.439565e-01
8.126257e-01
7.813753e-01
7.501150e-01
7.188534e-01
6.875919e-01
6.563304e-01
6.250701e-01
5.938105e-01
5.625519e-01
5.312844e-01
5.001184e-01
1.000000e+00
9.687029e-01
9.374386e-01
9.061322e-01
8.730130e-01
8.436291e-01
8.124108e-01
7.811630e-01
7.499182e-01
7.186742e-01
6.874300e-01
6.561861e-01
6.249416e-01
5.936967e-01
5.624512e-01
5.311957e-01
5.000402e-01
1.000000e+00
9.686471e-01
9.373381e-01
9.058573e-01
8.678717e-01
8.433790e-01
8.122174e-01
7.809751e-01
7.497440e-01
7.185154e-01
6.872867e-01
6.560582e-01
6.248276e-01
5.935957e-01
5.623619e-01
5.311169e-01
4.999707e-01
1.000000e+00
9.686122e-01
9.372776e-01
9.056950e-01
8.651274e-01
8.432607e-01
8.121129e-01
7.808745e-01
7.496507e-01
7.184304e-01
6.872098e-01
6.559896e-01
6.247664e-01
5.935414e-01
5.623139e-01
5.310745e-01
4.999333e-01
1.000000e+00
9.686191e-01
9.372893e-01
9.057290e-01
8.656978e-01
8.432842e-01
8.121343e-01
7.808949e-01
7.496695e-01
7.184474e-01
6.872250e-01
6.560031e-01
6.247783e-01
5.935518e-01
5.623231e-01
5.310826e-01
4.999404e-01
1.000000e+00
9.686651e-01
9.373688e-01
9.059424e-01
8.693919e-01
8.434484e-01
8.122739e-01
7.810293e-01
7.497939e-01
7.185605e-01
6.873271e-01
6.560940e-01
6.248592e-01
5.936234e-01
5.623863e-01
5.311383e-01
4.999894e-01
1.000000e+00
9.687257e-01
9.374784e-01
9.062284e-01
8.749731e-01
8.437326e-01
8.124817e-01
7.812322e-01
7.499819e-01
7.187316e-01
6.874815e-01
6.562316e-01
6.249817e-01
5.937319e-01
5.624821e-01
5.312228e-01
5.000639e-01
1.000000e+00
9.688030e-01
9.376109e-01
9.064834e-01
8.805635e-01
8.440610e-01
8.126866e-01
7.814354e-01
7.501702e-01
7.189032e-01
6.876364e-01
6.563697e-01
6.251048e-01
5.938410e-01
5.625786e-01
5.313078e-01
5.001389e-01
1.000000e+00
9.688431e-01
9.376864e-01
9.066245e-01
8.842754e-01
8.443033e-01
8.128209e-01
7.815705e-01
7.502957e-01
7.190177e-01
6.877400e-01
6.564623e-01
6.251875e-01
5.939145e-01
5.626437e-01
5.313654e-01
5.001898e-01
1.000000e+00
9.688501e-01
9.376993e-01
9.066459e-01
8.848496e-01
8.443432e-01
8.128422e-01
7.815927e-01
7.503168e-01
7.190374e-01
6.877584e-01
6.564792e-01
6.252030e-01
5.939286e-01
5.626566e-01
5.313770e-01
5.002003e-01
1.000000e+00
9.688184e-01
9.376405e-01
9.065417e-01
8.820912e-01
8.441605e-01
8.127445e-01
7.814952e-01
7.502274e-01
7.189570e-01
6.876866e-01
6.564160e-01
6.251474e-01
5.938800e-01
5.626142e-01
5.313401e-01
5.001682e-01
1.000000e+00
9.687531e-01
9.375257e-01
9.063226e-01
8.769367e-01
8.438469e-01
8.125595e-01
7.813120e-01
7.500590e-01
7.188048e-01
6.875504e-01
6.562956e-01
6.250410e-01
5.937865e-01
5.625322e-01
5.312684e-01
5.001054e-01
1.000000e+00
9.686843e-01
9.374026e-01
9.060367e-01
8.711301e-01
8.435379e-01
8.123481e-01
7.811057e-01
7.498692e-01
7.186332e-01
6.873966e-01
6.561595e-01
6.249207e-01
5.936806e-01
5.624393e-01
5.311870e-01
5.000341e-01
1.000000e+00
9.686316e-01
9.373102e-01
9.057875e-01
8.666283e-01
8.433310e-01
8.121824e-01
7.809462e-01
7.497223e-01
7.185003e-01
6.872773e-01
6.560538e-01
6.248271e-01
5.935983e-01
5.623670e-01
5.311237e-01
4.999786e-01
1.000000e+00
9.686112e-01
9.372759e-01
9.056884e-01
8.649410e-01
8.432611e-01
8.121197e-01
7.808861e-01
7.496668e-01
7.184499e-01
6.872319e-01
6.560135e-01
6.247914e-01
5.935669e-01
5.623393e-01
5.310994e-01
4.999573e-01
1.000000e+00
9.688435e-01
9.376872e-01
9.066263e-01
8.842785e-01
8.443063e-01
8.128239e-01
7.815740e-01
7.502994e-01
7.190214e-01
6.877437e-01
6.564659e-01
6.251908e-01
5.939175e-01
5.626464e-01
5.313677e-01
5.001918e-01
1.000000e+00
9.688252e-01
9.376536e-01
9.065671e-01
8.827094e-01
8.442016e-01
8.127674e-01
7.815169e-01
7.502463e-01
7.189730e-01
6.877000e-01
6.564269e-01
6.251561e-01
5.938867e-01
5.626193e-01
5.313438e-01
5.001708e-01
1.000000e+00
9.687761e-01
9.375640e-01
9.063960e-01
8.785329e-01
8.439388e-01
8.126151e-01
7.813645e-01
7.501051e-01
7.188443e-01
6.875837e-01
6.563232e-01
6.250637e-01
5.938049e-01
5.625470e-01
5.312801e-01
5.001146e-01
1.000000e+00
9.687066e-01
9.374436e-01
9.061409e-01
8.731638e-01
8.436370e-01
8.124165e-01
7.811685e-01
7.499233e-01
7.186788e-01
6.874343e-01
6.561899e-01
6.249450e-01
5.936997e-01
5.624540e-01
5.311981e-01
5.000424e-01
1.000000e+00
9.686529e-01
9.373476e-01
9.058877e-01
8.684130e-01
8.434036e-01
8.122381e-01
7.809949e-01
7.497624e-01
7.185322e-01
6.873019e-01
6.560718e-01
6.248397e-01
5.936064e-01
5.623715e-01
5.311254e-01
4.999782e-01
1.000000e+00
9.686213e-01
9.372930e-01
9.057403e-01
8.658769e-01
8.432919e-01
8.121416e-01
7.809020e-01
7.496762e-01
7.184537e-01
6.872308e-01
6.560084e-01
6.247831e-01
5.935563e-01
5.623271e-01
5.310862e-01
4.999437e-01
1.000000e+00
9.686276e-01
9.373038e-01
9.057712e-01
8.664040e-01
8.433142e-01
8.121614e-01
7.809208e-01
7.496936e-01
7.184694e-01
6.872449e-01
6.560208e-01
6.247941e-01
5.935659e-01
5.623356e-01
5.310937e-01
4.999502e-01
1.000000e+00
9.686698e-01
9.373766e-01
9.059655e-01
8.698178e-01
8.434686e-01
8.122901e-01
7.810450e-01
7.498085e-01
7.185739e-01
6.873392e-01
6.561048e-01
6.248689e-01
5.936321e-01
5.623940e-01
5.311451e-01
4.999955e-01
1.000000e+00
9.687278e-01
9.374810e-01
9.062296e-01
8.749747e-01
8.437328e-01
8.124820e-01
7.812325e-01
7.499822e-01
7.187319e-01
6.874818e-01
6.562319e-01
6.249821e-01
5.937323e-01
5.624825e-01
5.312231e-01
5.000642e-01
1.000000e+00
9.687965e-01
9.375994e-01
9.064645e-01
8.801393e-01
8.440346e-01
8.126713e-01
7.814201e-01
7.501561e-01
7.188904e-01
6.876249e-01
6.563596e-01
6.250958e-01
5.938331e-01
5.625716e-01
5.313017e-01
5.001335e-01
1.000000e+00
9.688348e-01
9.376709e-01
9.065988e-01
8.835677e-01
8.442557e-01
8.127955e-01
7.815450e-01
7.502720e-01
7.189961e-01
6.877206e-01
6.564451e-01
6.251722e-01
5.939009e-01
5.626318e-01
5.313549e-01
5.001805e-01
1.000000e+00
9.688413e-01
9.376827e-01
9.066189e-01
8.840979e-01
8.442920e-01
8.128153e-01
7.815654e-01
7.502915e-01
7.190144e-01
6.877376e-01
6.564607e-01
6.251865e-01
5.939140e-01
5.626437e-01
5.313656e-01
5.001902e-01
1.000000e+00
9.688111e-01
9.376273e-01
9.065207e-01
8.815501e-01
8.441255e-01
8.127249e-01
7.814754e-01
7.502090e-01
7.189401e-01
6.876713e-01
6.564023e-01
6.251352e-01
5.938691e-01
5.626045e-01
5.313315e-01
5.001606e-01
1.000000e+00
9.687524e-01
9.375226e-01
9.063162e-01
8.767886e-01
8.438381e-01
8.125538e-01
7.813061e-01
7.500534e-01
7.187996e-01
6.875455e-01
6.562911e-01
6.250369e-01
5.937827e-01
5.625287e-01
5.312653e-01
5.001026e-01
1.000000e+00
9.686882e-01
9.374086e-01
9.060524e-01
8.714239e-01
8.435521e-01
8.123586e-01
7.811156e-01
7.498780e-01
7.186411e-01
6.874035e-01
6.561654e-01
6.249257e-01
5.936849e-01
5.624429e-01
5.311901e-01
5.000367e-01
1.000000e+00
9.686389e-01
9.373229e-01
9.058245e-01
8.672639e-01
8.433583e-01
8.122057e-01
7.809682e-01
7.497424e-01
7.185183e-01
6.872933e-01
6.560678e-01
6.248393e-01
5.936089e-01
5.623761e-01
5.311315e-01
4.999853e-01
1.000000e+00
9.686201e-01
9.372912e-01
9.057340e-01
8.657046e-01
8.432923e-01
8.121479e-01
7.809126e-01
7.496910e-01
7.184717e-01
6.872513e-01
6.560305e-01
6.248063e-01
5.935798e-01
5.623505e-01
5.311091e-01
4.999657e-01
1.000000e+00
9.688177e-01
9.376391e-01
9.065438e-01
8.820959e-01
8.441608e-01
8.127447e-01
7.814942e-01
7.502254e-01
7.189542e-01
6.876831e-01
6.564120e-01
6.251429e-01
5.938752e-01
5.626091e-01
5.313350e-01
5.001630e-01
1.000000e+00
9.688032e-01
9.376128e-01
9.064959e-01
8.808960e-01
8.440841e-01
8.127013e-01
7.814505e-01
7.501849e-01
7.189172e-01
6.876497e-01
6.563822e-01
6.251164e-01
5.938517e-01
5.625884e-01
5.313167e-01
5.001469e-01
1.000000e+00
9.687652e-01
9.375438e-01
9.063591e-01
8.777013e-01
8.438891e-01
8.125846e-01
7.813340e-01
7.500769e-01
7.188188e-01
6.875607e-01
6.563028e-01
6.250456e-01
5.937890e-01
5.625330e-01
5.312679e-01
5.001039e-01
1.000000e+00
9.687144e-01
9.374546e-01
9.061640e-01
8.735923e-01
8.436594e-01
8.124327e-01
7.811841e-01
7.499379e-01
7.186922e-01
6.874464e-01
6.562008e-01
6.249547e-01
5.937085e-01
5.624618e-01
5.312051e-01
5.000486e-01
1.000000e+00
9.686710e-01
9.373781e-01
9.059737e-01
8.699547e-01
8.434758e-01
8.122964e-01
7.810512e-01
7.498147e-01
7.185800e-01
6.873451e-01
6.561104e-01
6.248742e-01
5.936371e-01
5.623987e-01
5.311495e-01
4.999995e-01
1.000000e+00
9.686473e-01
9.373372e-01
9.058653e-01
8.680119e-01
8.433853e-01
8.122229e-01
7.809801e-01
7.497487e-01
7.185198e-01
6.872907e-01
6.560619e-01
6.248309e-01
5.935987e-01
5.623647e-01
5.311195e-01
4.999731e-01
1.000000e+00
9.686521e-01
9.373456e-01
9.058881e-01
8.684157e-01
8.434035e-01
8.122379e-01
7.809945e-01
7.497620e-01
7.185319e-01
6.873015e-01
6.560714e-01
6.248393e-01
5.936061e-01
5.623712e-01
5.311252e-01
4.999781e-01
1.000000e+00
9.686839e-01
9.374006e-01
9.060314e-01
8.710305e-01
8.435276e-01
8.123361e-01
7.810896e-01
7.498500e-01
7.186119e-01
6.873736e-01
6.561357e-01
6.248965e-01
5.936567e-01
5.624159e-01
5.311645e-01
5.000127e-01
1.000000e+00
9.687309e-01
9.374839e-01
9.062317e-01
8.749785e-01
8.437332e-01
8.124828e-01
7.812331e-01
7.499829e-01
7.187328e-01
6.874828e-01
6.562330e-01
6.249832e-01
5.937334e-01
5.624836e-01
5.312242e-01
5.000652e-01
1.000000e+00
9.687798e-01
9.375701e-01
9.064126e-01
8.789304e-01
8.439608e-01
8.126278e-01
7.813767e-01
7.501161e-01
7.188541e-01
6.875923e-01
6.563307e-01
6.250702e-01
5.938105e-01
5.625517e-01
5.312843e-01
5.001182e-01
1.000000e+00
9.688108e-01
9.376266e-01
9.065216e-01
8.815525e-01
8.441241e-01
8.127232e-01
7.814723e-01
7.502048e-01
7.189350e-01
6.876655e-01
6.563962e-01
6.251287e-01
5.938624e-01
5.625978e-01
5.313249e-01
5.001541e-01
1.000000e+00
9.688156e-01
9.376354e-01
9.065377e-01
8.819577e-01
8.441506e-01
8.127384e-01
7.814879e-01
7.502197e-01
7.189490e-01
6.876785e-01
6.564081e-01
6.251396e-01
5.938724e-01
5.626069e-01
5.313332e-01
5.001616e-01
1.000000e+00
9.687921e-01
9.375924e-01
9.064585e-01
8.800091e-01
8.440282e-01
8.126689e-01
7.814190e-01
7.501565e-01
7.188921e-01
6.876278e-01
6.563634e-01
6.251003e-01
5.938381e-01
5.625769e-01
5.313071e-01
5.001389e-01
1.000000e+00
9.687484e-01
9.375135e-01
9.062978e-01
8.763664e-01
8.438133e-01
8.125378e-01
7.812895e-01
7.500374e-01
7.187846e-01
6.875315e-01
6.562783e-01
6.250251e-01
5.937720e-01
5.625189e-01
5.312564e-01
5.000945e-01
1.000000e+00
9.686987e-01
9.374260e-01
9.060969e-01
8.722602e-01
8.435933e-01
8.123884e-01
7.811437e-01
7.499033e-01
7.186633e-01
6.874229e-01
6.561821e-01
6.249400e-01
5.936971e-01
5.624532e-01
5.311988e-01
5.000440e-01
1.000000e+00
9.686606e-01
9.373599e-01
9.059271e-01
8.690745e-01
8.434393e-01
8.122718e-01
7.810309e-01
7.497995e-01
7.185694e-01
6.873386e-01
6.561074e-01
6.248739e-01
5.936389e-01
5.624020e-01
5.311539e-01
5.000047e-01
1.000000e+00
9.686459e-01
9.373354e-01
9.058604e-01
8.678799e-01
8.433854e-01
8.122278e-01
7.809883e-01
7.497601e-01
7.185337e-01
6.873064e-01
6.560788e-01
6.248486e-01
5.936165e-01
5.623824e-01
5.311367e-01
4.999896e-01
1.000000e+00
9.687781e-01
9.375673e-01
9.064089e-01
8.788307e-01
8.439561e-01
8.126257e-01
7.813751e-01
7.501152e-01
7.188539e-01
6.875927e-01
6.563314e-01
6.250712e-01
5.938118e-01
5.625532e-01
5.312857e-01
5.001197e-01
1.000000e+00
9.687703e-01
9.375532e-01
9.063809e-01
8.781824e-01
8.439174e-01
8.126021e-01
7.813515e-01
7.500933e-01
7.188340e-01
6.875747e-01
6.563154e-01
6.250570e-01
5.937991e-01
5.625420e-01
5.312759e-01
5.001111e-01
1.000000e+00
9.687495e-01
9.375156e-01
9.063030e-01
8.764553e-01
8.438166e-01
8.125388e-01
7.812885e-01
7.500349e-01
7.187807e-01
6.875265e-01
6.562724e-01
6.250187e-01
5.937652e-01
5.625120e-01
5.312495e-01
5.000878e-01
1.000000e+00
9.687227e-01
9.374680e-01
9.061968e-01
8.742319e-01
8.436933e-01
8.124566e-01
7.812074e-01
7.499597e-01
7.187122e-01
6.874646e-01
6.562172e-01
6.249694e-01
5.937216e-01
5.624735e-01
5.312155e-01
5.000578e-01
1.000000e+00
9.686988e-01
9.374263e-01
9.060972e-01
8.722617e-01
8.435900e-01
8.123831e-01
7.811355e-01
7.498930e-01
7.186514e-01
6.874097e-01
6.561682e-01
6.249258e-01
5.936829e-01
5.624393e-01
5.311854e-01
5.000313e-01
1.000000e+00
9.686860e-01
9.374041e-01
9.060417e-01
8.712088e-01
8.435370e-01
8.123435e-01
7.810970e-01
7.498573e-01
7.186188e-01
6.873803e-01
6.561419e-01
6.249023e-01
5.936622e-01
5.624209e-01
5.311692e-01
5.000170e-01
1.000000e+00
9.686887e-01
9.374086e-01
9.060533e-01
8.714276e-01
8.435478e-01
8.123516e-01
7.811048e-01
7.498645e-01
7.186253e-01
6.873861e-01
6.561470e-01
6.249069e-01
5.936662e-01
5.624245e-01
5.311722e-01
5.000196e-01
1.000000e+00
9.687058e-01
9.374384e-01
9.061270e-01
8.728446e-01
8.436197e-01
8.124045e-01
7.811563e-01
7.499121e-01
7.186687e-01
6.874252e-01
6.561819e-01
6.249379e-01
5.936935e-01
5.624486e-01
5.311935e-01
5.000383e-01
1.000000e+00
9.687317e-01
9.374840e-01
9.062332e-01
8.749823e-01
8.437337e-01
8.124838e-01
7.812340e-01
7.499841e-01
7.187342e-01
6.874843e-01
6.562346e-01
6.249848e-01
5.937350e-01
5.624852e-01
5.312257e-01
5.000667e-01
1.000000e+00
9.687575e-01
9.375299e-01
9.063331e-01
8.771201e-01
8.438542e-01
8.125624e-01
7.813118e-01
7.500562e-01
7.187998e-01
6.875436e-01
6.562875e-01
6.250319e-01
5.937767e-01
5.625221e-01
5.312582e-01
5.000954e-01
1.000000e+00
9.687745e-01
9.375607e-01
9.063959e-01
8.785371e-01
8.439378e-01
8.126143e-01
7.813635e-01
7.501042e-01
7.188436e-01
6.875832e-01
6.563229e-01
6.250636e-01
5.938048e-01
5.625469e-01
5.312802e-01
5.001148e-01
1.000000e+00
9.687771e-01
9.375654e-01
9.064053e-01
8.787558e-01
8.439512e-01
8.126225e-01
7.813720e-01
7.501123e-01
7.188512e-01
6.875903e-01
6.563294e-01
6.250695e-01
5.938102e-01
5.625519e-01
5.312846e-01
5.001188e-01
1.000000e+00
9.687644e-01
9.375423e-01
9.063593e-01
8.777027e-01
8.438889e-01
8.125848e-01
7.813347e-01
7.500781e-01
7.188204e-01
6.875628e-01
6.563052e-01
6.250482e-01
5.937916e-01
5.625356e-01
5.312705e-01
5.001065e-01
1.000000e+00
9.687406e-01
9.374997e-01
9.062692e-01
8.757331e-01
8.437767e-01
8.125136e-01
7.812646e-01
7.500136e-01
7.187622e-01
6.875107e-01
6.562591e-01
6.250075e-01
5.937558e-01
5.625043e-01
5.312431e-01
5.000825e-01
1.000000e+00
9.687139e-01
9.374524e-01
9.061614e-01
8.735108e-01
8.436569e-01
8.124329e-01
7.811857e-01
7.499410e-01
7.186965e-01
6.874518e-01
6.562069e-01
6.249614e-01
5.937153e-01
5.624686e-01
5.312119e-01
5.000551e-01
1.000000e+00
9.686933e-01
9.374164e-01
9.060731e-01
8.717849e-01
8.435689e-01
8.123700e-01
7.811247e-01
7.498848e-01
7.186457e-01
6.874062e-01
6.561665e-01
6.249255e-01
5.936837e-01
5.624409e-01
5.311876e-01
5.000338e-01
1.000000e+00
9.686852e-01
9.374029e-01
9.060389e-01
8.711371e-01
8.435369e-01
8.123462e-01
7.811015e-01
7.498635e-01
7.186263e-01
6.873887e-01
6.561510e-01
6.249117e-01
5.936715e-01
5.624302e-01
5.311782e-01
5.000255e-01
1.000000e+00
9.687314e-01
9.374839e-01
9.062324e-01
8.749816e-01
8.437343e-01
8.124841e-01
7.812350e-01
7.499854e-01
7.187357e-01
6.874860e-01
6.562364e-01
6.249867e-01
5.937370e-01
5.624872e-01
5.312276e-01
5.000686e-01
1.000000e+00
9.687317e-01
9.374839e-01
9.062330e-01
8.749824e-01
8.437343e-01
8.124844e-01
7.812351e-01
7.499855e-01
7.187358e-01
6.874862e-01
6.562366e-01
6.249868e-01
5.937371e-01
5.624873e-01
5.312278e-01
5.000687e-01
1.000000e+00
9.687317e-01
9.374838e-01
9.062336e-01
8.749836e-01
8.437342e-01
8.124846e-01
7.812350e-01
7.499854e-01
7.187358e-01
6.874861e-01
6.562365e-01
6.249868e-01
5.937371e-01
5.624872e-01
5.312277e-01
5.000686e-01
1.000000e+00
9.687317e-01
9.374837e-01
9.062338e-01
8.749838e-01
8.437342e-01
8.124847e-01
7.812350e-01
7.499854e-01
7.187358e-01
6.874861e-01
6.562365e-01
6.249867e-01
5.937370e-01
5.624872e-01
5.312277e-01
5.000686e-01
1.000000e+00
9.687316e-01
9.374839e-01
9.062333e-01
8.749827e-01
8.437343e-01
8.124844e-01
7.812350e-01
7.499854e-01
7.187357e-01
6.874860e-01
6.562364e-01
6.249866e-01
5.937370e-01
5.624872e-01
5.312276e-01
5.000686e-01
1.000000e+00
9.687315e-01
9.374840e-01
9.062327e-01
8.749816e-01
8.437344e-01
8.124842e-01
7.812350e-01
7.499854e-01
7.187357e-01
6.874860e-01
6.562364e-01
6.249866e-01
5.937370e-01
5.624871e-01
5.312276e-01
5.000685e-01
1.000000e+00
9.687315e-01
9.374840e-01
9.062328e-01
8.749818e-01
8.437344e-01
8.124843e-01
7.812350e-01
7.499854e-01
7.187357e-01
6.874860e-01
6.562364e-01
6.249866e-01
5.937370e-01
5.624871e-01
5.312276e-01
5.000685e-01
1.000000e+00
9.687316e-01
9.374838e-01
9.062335e-01
8.749831e-01
8.437343e-01
8.124845e-01
7.812350e-01
7.499854e-01
7.187358e-01
6.874860e-01
6.562364e-01
6.249867e-01
5.937370e-01
5.624871e-01
5.312276e-01
5.000685e-01
1.000000e+00
9.687317e-01
9.374837e-01
9.062339e-01
8.749840e-01
8.437342e-01
8.124847e-01
7.812351e-01
7.499855e-01
7.187358e-01
6.874861e-01
6.562364e-01
6.249867e-01
5.937370e-01
5.624871e-01
5.312276e-01
5.000685e-01
1.000000e+00
9.687317e-01
9.374839e-01
9.062336e-01
8.749832e-01
8.437343e-01
8.124846e-01
7.812352e-01
7.499855e-01
7.187358e-01
6.874861e-01
6.562365e-01
6.249868e-01
5.937370e-01
5.624871e-01
5.312276e-01
5.000685e-01
1.000000e+00
9.687317e-01
9.374841e-01
9.062328e-01
8.749818e-01
8.437345e-01
8.124844e-01
7.812352e-01
7.499855e-01
7.187359e-01
6.874861e-01
6.562365e-01
6.249868e-01
5.937370e-01
5.624871e-01
5.312276e-01
5.000685e-01
1.000000e+00
9.687317e-01
9.374842e-01
9.062326e-01
8.749812e-01
8.437345e-01
8.124844e-01
7.812352e-01
7.499855e-01
7.187359e-01
6.874861e-01
6.562365e-01
6.249868e-01
5.937370e-01
5.624871e-01
5.312276e-01
5.000685e-01
1.000000e+00
9.687317e-01
9.374840e-01
9.062332e-01
8.749823e-01
8.437344e-01
8.124846e-01
7.812352e-01
7.499855e-01
7.187359e-01
6.874861e-01
6.562365e-01
6.249868e-01
5.937370e-01
5.624871e-01
5.312276e-01
5.000685e-01
1.000000e+00
9.687317e-01
9.374838e-01
9.062339e-01
8.749838e-01
8.437343e-01
8.124847e-01
7.812352e-01
7.499855e-01
7.187358e-01
6.874861e-01
6.562364e-01
6.249867e-01
5.937369e-01
5.624871e-01
5.312275e-01
5.000684e-01
1.000000e+00
9.687316e-01
9.374838e-01
9.062339e-01
8.749839e-01
8.437344e-01
8.124847e-01
7.812352e-01
7.499855e-01
7.187358e-01
6.874860e-01
6.562363e-01
6.249866e-01
5.937368e-01
5.624870e-01
5.312274e-01
5.000683e-01
1.000000e+00
9.687317e-01
9.374840e-01
9.062331e-01
8.749826e-01
8.437346e-01
8.124845e-01
7.812352e-01
7.499855e-01
7.187358e-01
6.874860e-01
6.562363e-01
6.249866e-01
5.937368e-01
5.624869e-01
5.312274e-01
5.000683e-01
1.000000e+00
9.687314e-01
9.374839e-01
9.062324e-01
8.749814e-01
8.437344e-01
8.124841e-01
7.812349e-01
7.499852e-01
7.187355e-01
6.874857e-01
6.562361e-01
6.249863e-01
5.937365e-01
5.624867e-01
5.312272e-01
5.000681e-01
1.000000e+00
9.686848e-01
9.374022e-01
9.060373e-01
8.711347e-01
8.435333e-01
8.123409e-01
7.810949e-01
7.498556e-01
7.186176e-01
6.873795e-01
6.561415e-01
6.249023e-01
5.936623e-01
5.624212e-01
5.311696e-01
5.000175e-01
1.000000e+00
9.686929e-01
9.374159e-01
9.060719e-01
8.717831e-01
8.435658e-01
8.123655e-01
7.811187e-01
7.498777e-01
7.186378e-01
6.873977e-01
6.561578e-01
6.249168e-01
5.936751e-01
5.624326e-01
5.311796e-01
5.000263e-01
1.000000e+00
9.687138e-01
9.374523e-01
9.061607e-01
8.735097e-01
8.436548e-01
8.124300e-01
7.811816e-01
7.499360e-01
7.186909e-01
6.874457e-01
6.562006e-01
6.249549e-01
5.937089e-01
5.624624e-01
5.312059e-01
5.000495e-01
1.000000e+00
9.687406e-01
9.374998e-01
9.062690e-01
8.757329e-01
8.437757e-01
8.125123e-01
7.812626e-01
7.500112e-01
7.187593e-01
6.875075e-01
6.562557e-01
6.250039e-01
5.937524e-01
5.625008e-01
5.312398e-01
5.000793e-01
1.000000e+00
9.687644e-01
9.375423e-01
9.063593e-01
8.777032e-01
8.438889e-01
8.125848e-01
7.813345e-01
7.500778e-01
7.188200e-01
6.875624e-01
6.563046e-01
6.250475e-01
5.937910e-01
5.625349e-01
5.312698e-01
5.001058e-01
1.000000e+00
9.687772e-01
9.375654e-01
9.064055e-01
8.787565e-01
8.439518e-01
8.126234e-01
7.813730e-01
7.501135e-01
7.188526e-01
6.875918e-01
6.563309e-01
6.250709e-01
5.938117e-01
5.625533e-01
5.312860e-01
5.001200e-01
1.000000e+00
9.687746e-01
9.375607e-01
9.063961e-01
8.785376e-01
8.439387e-01
8.126155e-01
7.813652e-01
7.501063e-01
7.188461e-01
6.875860e-01
6.563257e-01
6.250664e-01
5.938077e-01
5.625498e-01
5.312829e-01
5.001173e-01
1.000000e+00
9.687575e-01
9.375298e-01
9.063333e-01
8.771203e-01
8.438552e-01
8.125638e-01
7.813138e-01
7.500587e-01
7.188028e-01
6.875469e-01
6.562910e-01
6.250355e-01
5.937804e-01
5.625256e-01
5.312617e-01
5.000986e-01
1.000000e+00
9.687318e-01
9.374839e-01
9.062335e-01
8.749825e-01
8.437347e-01
8.124853e-01
7.812362e-01
7.499868e-01
7.187374e-01
6.874878e-01
6.562383e-01
6.249886e-01
5.937389e-01
5.624890e-01
5.312294e-01
5.000703e-01
1.000000e+00
9.687059e-01
9.374385e-01
9.061274e-01
8.728450e-01
8.436208e-01
8.124061e-01
7.811586e-01
7.499149e-01
7.186719e-01
6.874287e-01
6.561855e-01
6.249416e-01
5.936973e-01
5.624522e-01
5.311970e-01
5.000417e-01
1.000000e+00
9.686888e-01
9.374088e-01
9.060537e-01
8.714281e-01
8.435488e-01
8.123532e-01
7.811070e-01
7.498670e-01
7.186282e-01
6.873891e-01
6.561502e-01
6.249101e-01
5.936692e-01
5.624274e-01
5.311751e-01
5.000224e-01
1.000000e+00
9.686862e-01
9.374044e-01
9.060420e-01
8.712091e-01
8.435378e-01
8.123447e-01
7.810985e-01
7.498589e-01
7.186207e-01
6.873821e-01
6.561438e-01
6.249042e-01
5.936639e-01
5.624225e-01
5.311706e-01
5.000183e-01
1.000000e+00
9.686989e-01
9.374266e-01
9.060974e-01
8.722620e-01
8.435903e-01
8.123834e-01
7.811358e-01
7.498931e-01
7.186514e-01
6.874095e-01
6.561679e-01
6.249254e-01
5.936824e-01
5.624387e-01
5.311847e-01
5.000306e-01
1.000000e+00
9.687227e-01
9.374682e-01
9.061968e-01
8.742320e-01
8.436927e-01
8.124555e-01
7.812058e-01
7.499574e-01
7.187095e-01
6.874615e-01
6.562139e-01
6.249660e-01
5.937180e-01
5.624699e-01
5.312120e-01
5.000544e-01
1.000000e+00
9.687494e-01
9.375156e-01
9.063026e-01
8.764548e-01
8.438147e-01
8.125360e-01
7.812846e-01
7.500299e-01
7.187750e-01
6.875202e-01
6.562658e-01
6.250120e-01
5.937585e-01
5.625054e-01
5.312431e-01
5.000816e-01
1.000000e+00
9.687701e-01
9.375527e-01
9.063799e-01
8.781808e-01
8.439142e-01
8.125977e-01
7.813456e-01
7.500861e-01
7.188258e-01
6.875658e-01
6.563062e-01
6.250477e-01
5.937899e-01
5.625330e-01
5.312673e-01
5.001028e-01
1.000000e+00
9.687776e-01
9.375663e-01
9.064073e-01
8.788279e-01
8.439521e-01
8.126204e-01
7.813683e-01
7.501071e-01
7.188448e-01
6.875829e-01
6.563213e-01
6.250610e-01
5.938016e-01
5.625433e-01
5.312763e-01
5.001106e-01
1.000000e+00
9.686453e-01
9.373340e-01
9.058572e-01
8.678755e-01
8.433792e-01
8.122182e-01
7.809761e-01
7.497457e-01
7.185176e-01
6.872892e-01
6.560611e-01
6.248307e-01
5.935990e-01
5.623654e-01
5.311205e-01
4.999742e-01
1.000000e+00
9.686600e-01
9.373590e-01
9.059248e-01
8.690714e-01
8.434341e-01
8.122636e-01
7.810200e-01
7.497864e-01
7.185547e-01
6.873228e-01
6.560911e-01
6.248574e-01
5.936226e-01
5.623863e-01
5.311389e-01
4.999905e-01
1.000000e+00
9.686985e-01
9.374259e-01
9.060957e-01
8.722585e-01
8.435899e-01
8.123832e-01
7.811363e-01
7.498942e-01
7.186529e-01
6.874115e-01
6.561702e-01
6.249278e-01
5.936851e-01
5.624414e-01
5.311875e-01
5.000333e-01
1.000000e+00
9.687482e-01
9.375138e-01
9.062974e-01
8.763657e-01
8.438115e-01
8.125355e-01
7.812860e-01
7.500330e-01
7.187794e-01
6.875257e-01
6.562720e-01
6.250186e-01
5.937655e-01
5.625124e-01
5.312501e-01
5.000884e-01
1.000000e+00
9.687923e-01
9.375928e-01
9.064583e-01
8.800093e-01
8.440281e-01
8.126690e-01
7.814188e-01
7.501562e-01
7.188915e-01
6.876271e-01
6.563624e-01
6.250991e-01
5.938368e-01
5.625754e-01
5.313056e-01
5.001373e-01
1.000000e+00
9.688156e-01
9.376355e-01
9.065379e-01
8.819584e-01
8.441517e-01
8.127400e-01
7.814900e-01
7.502222e-01
7.189517e-01
6.876815e-01
6.564110e-01
6.251424e-01
5.938751e-01
5.626093e-01
5.313355e-01
5.001636e-01
1.000000e+00
9.688108e-01
9.376266e-01
9.065218e-01
8.815532e-01
8.441259e-01
8.127256e-01
7.814756e-01
7.502089e-01
7.189397e-01
6.876707e-01
6.564015e-01
6.251340e-01
5.938677e-01
5.626029e-01
5.313298e-01
5.001587e-01
1.000000e+00
9.687798e-01
9.375699e-01
9.064128e-01
8.789309e-01
8.439628e-01
8.126305e-01
7.813806e-01
7.501209e-01
7.188597e-01
6.875985e-01
6.563372e-01
6.250768e-01
5.938172e-01
5.625583e-01
5.312905e-01
5.001242e-01
1.000000e+00
9.687310e-01
9.374839e-01
9.062322e-01
8.749789e-01
8.437351e-01
8.124856e-01
7.812371e-01
7.499880e-01
7.187388e-01
6.874894e-01
6.562399e-01
6.249903e-01
5.937406e-01
5.624907e-01
5.312310e-01
5.000718e-01
1.000000e+00
9.686841e-01
9.374008e-01
9.060322e-01
8.710312e-01
8.435295e-01
8.123391e-01
7.810936e-01
7.498550e-01
7.186177e-01
6.873800e-01
6.561424e-01
6.249034e-01
5.936636e-01
5.624227e-01
5.311711e-01
5.000190e-01
1.000000e+00
9.686524e-01
9.373460e-01
9.058891e-01
8.684167e-01
8.434053e-01
8.122408e-01
7.809983e-01
7.497665e-01
7.185370e-01
6.873069e-01
6.560770e-01
6.248451e-01
5.936118e-01
5.623768e-01
5.311306e-01
4.999833e-01
1.000000e+00
9.686476e-01
9.373379e-01
9.058664e-01
8.680132e-01
8.433868e-01
8.122251e-01
7.809827e-01
7.497517e-01
7.185231e-01
6.872940e-01
6.560652e-01
6.248342e-01
5.936019e-01
5.623678e-01
5.311224e-01
4.999759e-01
1.000000e+00
9.686712e-01
9.373786e-01
9.059745e-01
8.699561e-01
8.434764e-01
8.122970e-01
7.810516e-01
7.498148e-01
7.185798e-01
6.873446e-01
6.561098e-01
6.248734e-01
5.936362e-01
5.623977e-01
5.311484e-01
4.999985e-01
1.000000e+00
9.687151e-01
9.374553e-01
9.061641e-01
8.735929e-01
8.436581e-01
8.124306e-01
7.811809e-01
7.499336e-01
7.186872e-01
6.874408e-01
6.561948e-01
6.249485e-01
5.937021e-01
5.624555e-01
5.311989e-01
5.000426e-01
1.000000e+00
9.687647e-01
9.375431e-01
9.063580e-01
8.777002e-01
8.438851e-01
8.125791e-01
7.813265e-01
7.500677e-01
7.188083e-01
6.875493e-01
6.562909e-01
6.250335e-01
5.937768e-01
5.625210e-01
5.312563e-01
5.000929e-01
1.000000e+00
9.688026e-01
9.376117e-01
9.064940e-01
8.808925e-01
8.440774e-01
8.126928e-01
7.814392e-01
7.501715e-01
7.189022e-01
6.876336e-01
6.563656e-01
6.250996e-01
5.938350e-01
5.625721e-01
5.313011e-01
5.001320e-01
1.000000e+00
9.688167e-01
9.376374e-01
9.065412e-01
8.820905e-01
8.441526e-01
8.127347e-01
7.814814e-01
7.502104e-01
7.189375e-01
6.876653e-01
6.563936e-01
6.251244e-01
5.938568e-01
5.625913e-01
5.313179e-01
5.001467e-01
1.000000e+00
9.686188e-01
9.372888e-01
9.057293e-01
8.656988e-01
8.432846e-01
8.121355e-01
7.808968e-01
7.496723e-01
7.184508e-01
6.872290e-01
6.560074e-01
6.247829e-01
5.935567e-01
5.623281e-01
5.310876e-01
4.999453e-01
1.000000e+00
9.686382e-01
9.373219e-01
9.058210e-01
8.672599e-01
8.433519e-01
8.121951e-01
7.809541e-01
7.497254e-01
7.184992e-01
6.872727e-01
6.560465e-01
6.248177e-01
5.935876e-01
5.623553e-01
5.311117e-01
4.999665e-01
1.000000e+00
9.686875e-01
9.374084e-01
9.060508e-01
8.714214e-01
8.435476e-01
8.123518e-01
7.811060e-01
7.498662e-01
7.186275e-01
6.873886e-01
6.561498e-01
6.249098e-01
5.936692e-01
5.624274e-01
5.311752e-01
5.000225e-01
1.000000e+00
9.687512e-01
9.375220e-01
9.063157e-01
8.767873e-01
8.438357e-01
8.125508e-01
7.813016e-01
7.500476e-01
7.187927e-01
6.875379e-01
6.562829e-01
6.250283e-01
5.937742e-01
5.625202e-01
5.312569e-01
5.000945e-01
1.000000e+00
9.688121e-01
9.376291e-01
9.065213e-01
8.815499e-01
8.441252e-01
8.127250e-01
7.814751e-01
7.502085e-01
7.189393e-01
6.876703e-01
6.564011e-01
6.251336e-01
5.938674e-01
5.626025e-01
5.313295e-01
5.001584e-01
1.000000e+00
9.688412e-01
9.376826e-01
9.066189e-01
8.840986e-01
8.442934e-01
8.128174e-01
7.815682e-01
7.502948e-01
7.190179e-01
6.877414e-01
6.564646e-01
6.251902e-01
5.939175e-01
5.626468e-01
5.313685e-01
5.001928e-01
1.000000e+00
9.688348e-01
9.376710e-01
9.065992e-01
8.835688e-01
8.442581e-01
8.127986e-01
7.815494e-01
7.502775e-01
7.190022e-01
6.877273e-01
6.564521e-01
6.251792e-01
5.939078e-01
5.626383e-01
5.313611e-01
5.001863e-01
1.000000e+00
9.687964e-01
9.375991e-01
9.064648e-01
8.801401e-01
8.440372e-01
8.126747e-01
7.814252e-01
7.501625e-01
7.188977e-01
6.876330e-01
6.563681e-01
6.251045e-01
5.938418e-01
5.625801e-01
5.313098e-01
5.001412e-01
1.000000e+00
9.687280e-01
9.374811e-01
9.062303e-01
8.749753e-01
8.437353e-01
8.124857e-01
7.812378e-01
7.499888e-01
7.187397e-01
6.874904e-01
6.562410e-01
6.249914e-01
5.937417e-01
5.624918e-01
5.312321e-01
5.000728e-01
1.000000e+00
9.686700e-01
9.373768e-01
9.059665e-01
8.698185e-01
8.434711e-01
8.122940e-01
7.810503e-01
7.498151e-01
7.185815e-01
6.873475e-01
6.561136e-01
6.248779e-01
5.936412e-01
5.624030e-01
5.311538e-01
5.000039e-01
1.000000e+00
9.686279e-01
9.373043e-01
9.057725e-01
8.664052e-01
8.433165e-01
8.121652e-01
7.809257e-01
7.496994e-01
7.184761e-01
6.872520e-01
6.560282e-01
6.248017e-01
5.935735e-01
5.623431e-01
5.311009e-01
4.999572e-01
1.000000e+00
9.686218e-01
9.372940e-01
9.057418e-01
8.658788e-01
8.432939e-01
8.121445e-01
7.809054e-01
7.496801e-01
7.184579e-01
6.872352e-01
6.560127e-01
6.247875e-01
5.935605e-01
5.623313e-01
5.310902e-01
4.999475e-01
1.000000e+00
9.686529e-01
9.373475e-01
9.058884e-01
8.684153e-01
8.434045e-01
8.122389e-01
7.809953e-01
7.497625e-01
7.185320e-01
6.873013e-01
6.560710e-01
6.248387e-01
5.936053e-01
5.623703e-01
5.311242e-01
4.999770e-01
1.000000e+00
9.687083e-01
9.374457e-01
9.061412e-01
8.731649e-01
8.436354e-01
8.124137e-01
7.811643e-01
7.499178e-01
7.186723e-01
6.874269e-01
6.561821e-01
6.249368e-01
5.936914e-01
5.624458e-01
5.311902e-01
5.000347e-01
1.000000e+00
9.687755e-01
9.375625e-01
9.063940e-01
8.785314e-01
8.439334e-01
8.126078e-01
7.813546e-01
7.500929e-01
7.188306e-01
6.875688e-01
6.563077e-01
6.250479e-01
5.937891e-01
5.625315e-01
5.312652e-01
5.001004e-01
1.000000e+00
9.688243e-01
9.376517e-01
9.065650e-01
8.827047e-01
8.441922e-01
8.127559e-01
7.815019e-01