<?xml version="1.0"?>
<VTKFile type="StructuredGrid" version="0.1">
  <StructuredGrid WholeExtent="0 16 0 16 0 16">
    <Piece Extent="0 16 0 16 0 16">
      <PointData Scalars="temperature" Vectors="velocity">
        <DataArray type="Float32" Name="temperature" format="ascii">
1.000000e+00
9.688583e-01
9.377149e-01
9.064999e-01
8.852351e-01
8.442339e-01
8.128396e-01
7.815846e-01
7.503097e-01
7.190301e-01
6.877426e-01
6.564648e-01
6.251880e-01
5.939136e-01
5.626419e-01
5.313702e-01
5.001261e-01
1.000000e+00
9.688493e-01
9.376926e-01
9.064998e-01
8.835367e-01
8.441294e-01
8.127829e-01
7.815259e-01
7.502545e-01
7.189791e-01
6.877013e-01
6.564278e-01
6.251555e-01
5.938853e-01
5.626172e-01
5.313488e-01
5.001076e-01
1.000000e+00
9.687819e-01
9.375728e-01
9.063734e-01
8.789299e-01
8.439139e-01
8.126285e-01
7.813741e-01
7.501138e-01
7.188519e-01
6.875908e-01
6.563296e-01
6.250693e-01
5.938100e-01
5.625517e-01
5.312919e-01
5.000582e-01
1.000000e+00
9.687160e-01
9.374391e-01
9.061388e-01
8.729764e-01
8.436733e-01
8.124262e-01
7.811813e-01
7.499360e-01
7.186922e-01
6.874480e-01
6.562035e-01
6.249586e-01
5.937132e-01
5.624674e-01
5.312185e-01
4.999945e-01
1.000000e+00
9.686535e-01
9.373505e-01
9.059653e-01
8.677771e-01
8.434988e-01
8.122448e-01
7.810121e-01
7.497807e-01
7.185497e-01
6.873210e-01
6.560917e-01
6.248604e-01
5.936273e-01
5.623925e-01
5.311534e-01
4.999379e-01
1.000000e+00
9.686325e-01
9.373033e-01
9.058419e-01
8.649417e-01
8.434046e-01
8.121488e-01
7.809228e-01
7.497001e-01
7.184780e-01
6.872540e-01
6.560315e-01
6.248076e-01
5.935811e-01
5.623522e-01
5.311183e-01
4.999074e-01
1.000000e+00
9.686424e-01
9.373170e-01
9.058659e-01
8.655454e-01
8.434218e-01
8.121691e-01
7.809414e-01
7.497128e-01
7.184928e-01
6.872675e-01
6.560433e-01
6.248179e-01
5.935901e-01
5.623599e-01
5.311250e-01
4.999132e-01
1.000000e+00
9.686685e-01
9.373692e-01
9.060166e-01
8.693201e-01
8.435518e-01
8.122977e-01
7.810611e-01
7.498230e-01
7.185901e-01
6.873569e-01
6.561230e-01
6.248876e-01
5.936510e-01
5.624130e-01
5.311711e-01
4.999532e-01
1.000000e+00
9.687401e-01
9.374839e-01
9.062158e-01
8.749681e-01
8.437466e-01
8.124930e-01
7.812444e-01
7.499942e-01
7.187438e-01
6.874935e-01
6.562433e-01
6.249932e-01
5.937432e-01
5.624933e-01
5.312409e-01
5.000138e-01
1.000000e+00
9.688002e-01
9.376158e-01
9.064344e-01
8.807084e-01
8.439960e-01
8.126858e-01
7.814297e-01
7.501633e-01
7.188961e-01
6.876299e-01
6.563639e-01
6.250992e-01
5.938359e-01
5.625741e-01
5.313111e-01
5.000748e-01
1.000000e+00
9.688594e-01
9.377058e-01
9.065149e-01
8.844725e-01
8.441755e-01
8.128119e-01
7.815544e-01
7.502787e-01
7.190018e-01
6.877210e-01
6.564444e-01
6.251701e-01
5.938980e-01
5.626284e-01
5.313585e-01
5.001160e-01
1.000000e+00
9.688575e-01
9.377099e-01
9.065082e-01
8.850369e-01
8.442179e-01
8.128303e-01
7.815750e-01
7.503013e-01
7.190191e-01
6.877366e-01
6.564586e-01
6.251829e-01
5.939095e-01
5.626387e-01
5.313677e-01
5.001242e-01
1.000000e+00
9.688254e-01
9.376602e-01
9.064723e-01
8.822626e-01
8.440597e-01
8.127397e-01
7.814834e-01
7.502163e-01
7.189423e-01
6.876725e-01
6.564027e-01
6.251344e-01
5.938675e-01
5.626025e-01
5.313366e-01
5.000975e-01
1.000000e+00
9.687610e-01
9.375265e-01
9.062939e-01
8.769901e-01
8.438247e-01
8.125649e-01
7.813142e-01
7.500608e-01
7.188064e-01
6.875517e-01
6.562967e-01
6.250419e-01
5.937874e-01
5.625331e-01
5.312767e-01
5.000458e-01
1.000000e+00
9.686876e-01
9.373984e-01
9.060763e-01
8.710772e-01
8.436078e-01
8.123641e-01
7.811257e-01
7.498881e-01
7.186522e-01
6.874152e-01
6.561771e-01
6.249376e-01
5.936968e-01
5.624547e-01
5.312089e-01
4.999873e-01
1.000000e+00
9.686546e-01
9.373386e-01
9.059116e-01
8.665025e-01
8.434560e-01
8.122088e-01
7.809822e-01
7.497578e-01
7.185333e-01
6.873091e-01
6.560842e-01
6.248565e-01
5.936263e-01
5.623937e-01
5.311562e-01
4.999418e-01
1.000000e+00
9.686319e-01
9.372924e-01
9.058280e-01
8.647410e-01
8.434052e-01
8.121521e-01
7.809304e-01
7.497125e-01
7.184893e-01
6.872688e-01
6.560489e-01
6.248256e-01
5.935995e-01
5.623705e-01
5.311362e-01
4.999244e-01
1.000000e+00
9.688508e-01
9.377012e-01
9.064913e-01
8.844614e-01
8.441842e-01
8.128155e-01
7.815598e-01
7.502836e-01
7.190047e-01
6.877242e-01
6.564481e-01
6.251734e-01
5.939010e-01
5.626310e-01
5.313608e-01
5.001180e-01
1.000000e+00
9.688393e-01
9.376766e-01
9.064827e-01
8.828894e-01
8.440934e-01
8.127622e-01
7.815049e-01
7.502338e-01
7.189598e-01
6.876858e-01
6.564139e-01
6.251434e-01
5.938748e-01
5.626082e-01
5.313409e-01
5.001008e-01
1.000000e+00
9.687799e-01
9.375678e-01
9.063629e-01
8.786319e-01
8.438983e-01
8.126189e-01
7.813644e-01
7.501049e-01
7.188439e-01
6.875835e-01
6.563232e-01
6.250637e-01
5.938052e-01
5.625476e-01
5.312883e-01
5.000551e-01
1.000000e+00
9.687187e-01
9.374437e-01
9.061496e-01
8.731340e-01
8.436774e-01
8.124320e-01
7.811864e-01
7.499407e-01
7.186964e-01
6.874517e-01
6.562067e-01
6.249614e-01
5.937157e-01
5.624696e-01
5.312205e-01
4.999962e-01
1.000000e+00
9.686605e-01
9.373606e-01
9.059972e-01
8.683195e-01
8.435133e-01
8.122645e-01
7.810291e-01
7.497956e-01
7.185648e-01
6.873346e-01
6.561035e-01
6.248707e-01
5.936364e-01
5.624004e-01
5.311603e-01
4.999440e-01
1.000000e+00
9.686393e-01
9.373217e-01
9.058941e-01
8.656890e-01
8.434308e-01
8.121760e-01
7.809471e-01
7.497208e-01
7.184962e-01
6.872721e-01
6.560480e-01
6.248220e-01
5.935937e-01
5.623632e-01
5.311279e-01
4.999158e-01
1.000000e+00
9.686462e-01
9.373315e-01
9.059110e-01
8.662503e-01
8.434464e-01
8.121935e-01
7.809640e-01
7.497347e-01
7.185102e-01
6.872846e-01
6.560589e-01
6.248315e-01
5.936020e-01
5.623703e-01
5.311341e-01
4.999212e-01
1.000000e+00
9.686757e-01
9.373798e-01
9.060400e-01
8.697495e-01
8.435626e-01
8.123127e-01
7.810745e-01
7.498364e-01
7.186023e-01
6.873677e-01
6.561324e-01
6.248959e-01
5.936582e-01
5.624193e-01
5.311767e-01
4.999581e-01
1.000000e+00
9.687406e-01
9.374847e-01
9.062192e-01
8.749752e-01
8.437457e-01
8.124937e-01
7.812447e-01
7.499944e-01
7.187440e-01
6.874937e-01
6.562436e-01
6.249935e-01
5.937435e-01
5.624936e-01
5.312412e-01
5.000141e-01
1.000000e+00
9.687975e-01
9.376081e-01
9.064184e-01
8.802765e-01
8.439714e-01
8.126716e-01
7.814152e-01
7.501508e-01
7.188849e-01
6.876198e-01
6.563550e-01
6.250914e-01
5.938291e-01
5.625682e-01
5.313061e-01
5.000704e-01
1.000000e+00
9.688480e-01
9.376911e-01
9.064987e-01
8.837543e-01
8.441354e-01
8.127886e-01
7.815307e-01
7.502573e-01
7.189804e-01
6.877038e-01
6.564294e-01
6.251570e-01
5.938865e-01
5.626184e-01
5.313498e-01
5.001084e-01
1.000000e+00
9.688501e-01
9.376989e-01
9.064962e-01
8.842792e-01
8.441697e-01
8.128073e-01
7.815495e-01
7.502761e-01
7.189962e-01
6.877182e-01
6.564425e-01
6.251688e-01
5.938972e-01
5.626279e-01
5.313583e-01
5.001160e-01
1.000000e+00
9.688185e-01
9.376476e-01
9.064539e-01
8.817118e-01
8.440315e-01
8.127221e-01
7.814644e-01
7.501982e-01
7.189276e-01
6.876592e-01
6.563909e-01
6.251239e-01
5.938584e-01
5.625945e-01
5.313296e-01
5.000914e-01
1.000000e+00
9.687603e-01
9.375245e-01
9.062906e-01
8.768396e-01
8.438185e-01
8.125598e-01
7.813093e-01
7.500561e-01
7.188020e-01
6.875476e-01
6.562930e-01
6.250386e-01
5.937843e-01
5.625304e-01
5.312742e-01
5.000436e-01
1.000000e+00
9.686929e-01
9.374064e-01
9.060942e-01
8.713749e-01
8.436157e-01
8.123744e-01
7.811350e-01
7.498966e-01
7.186596e-01
6.874215e-01
6.561825e-01
6.249422e-01
5.937006e-01
5.624579e-01
5.312116e-01
4.999895e-01
1.000000e+00
9.686612e-01
9.373479e-01
9.059478e-01
8.671382e-01
8.434777e-01
8.122312e-01
7.810024e-01
7.497742e-01
7.185494e-01
6.873236e-01
6.560967e-01
6.248672e-01
5.936355e-01
5.624015e-01
5.311629e-01
4.999474e-01
1.000000e+00
9.686395e-01
9.373051e-01
9.058738e-01
8.655095e-01
8.434319e-01
8.121792e-01
7.809550e-01
7.497296e-01
7.185080e-01
6.872864e-01
6.560640e-01
6.248387e-01
5.936107e-01
5.623801e-01
5.311443e-01
4.999314e-01
1.000000e+00
9.688281e-01
9.376597e-01
9.064634e-01
8.822559e-01
8.440610e-01
8.127419e-01
7.814843e-01
7.502139e-01
7.189415e-01
6.876711e-01
6.564008e-01
6.251321e-01
5.938650e-01
5.625997e-01
5.313337e-01
5.000945e-01
1.000000e+00
9.688122e-01
9.376303e-01
9.064343e-01
8.810382e-01
8.440012e-01
8.127008e-01
7.814433e-01
7.501771e-01
7.189088e-01
6.876416e-01
6.563746e-01
6.251091e-01
5.938449e-01
5.625822e-01
5.313185e-01
5.000813e-01
1.000000e+00
9.687729e-01
9.375529e-01
9.063358e-01
8.777777e-01
8.438584e-01
8.125907e-01
7.813367e-01
7.500796e-01
7.188212e-01
6.875631e-01
6.563052e-01
6.250480e-01
5.937915e-01
5.625358e-01
5.312781e-01
5.000463e-01
1.000000e+00
9.687269e-01
9.374592e-01
9.061822e-01
8.735740e-01
8.436923e-01
8.124475e-01
7.812006e-01
7.499539e-01
7.187081e-01
6.874621e-01
6.562161e-01
6.249697e-01
5.937230e-01
5.624760e-01
5.312262e-01
5.000012e-01
1.000000e+00
9.686819e-01
9.373882e-01
9.060641e-01
8.698756e-01
8.435619e-01
8.123193e-01
7.810794e-01
7.498418e-01
7.186077e-01
6.873727e-01
6.561370e-01
6.249002e-01
5.936623e-01
5.624231e-01
5.311801e-01
4.999612e-01
1.000000e+00
9.686581e-01
9.373579e-01
9.059976e-01
8.678841e-01
8.434994e-01
8.122506e-01
7.810157e-01
7.497830e-01
7.185535e-01
6.873246e-01
6.560946e-01
6.248629e-01
5.936296e-01
5.623946e-01
5.311553e-01
4.999397e-01
1.000000e+00
9.686620e-01
9.373634e-01
9.060097e-01
8.682990e-01
8.435119e-01
8.122640e-01
7.810287e-01
7.497953e-01
7.185644e-01
6.873341e-01
6.561029e-01
6.248702e-01
5.936360e-01
5.624000e-01
5.311600e-01
4.999438e-01
1.000000e+00
9.686951e-01
9.374078e-01
9.061004e-01
8.709704e-01
8.435997e-01
8.123562e-01
7.811144e-01
7.498743e-01
7.186364e-01
6.873980e-01
6.561592e-01
6.249195e-01
5.936790e-01
5.624375e-01
5.311926e-01
4.999720e-01
1.000000e+00
9.687430e-01
9.374893e-01
9.062311e-01
8.749873e-01
8.437453e-01
8.124950e-01
7.812454e-01
7.499950e-01
7.187446e-01
6.874944e-01
6.562443e-01
6.249943e-01
5.937443e-01
5.624944e-01
5.312420e-01
5.000148e-01
1.000000e+00
9.687861e-01
9.375822e-01
9.063779e-01
8.790360e-01
8.439109e-01
8.126314e-01
7.813755e-01
7.501151e-01
7.188528e-01
6.875910e-01
6.563296e-01
6.250692e-01
5.938098e-01
5.625514e-01
5.312916e-01
5.000578e-01
1.000000e+00
9.688179e-01
9.376452e-01
9.064528e-01
8.817043e-01
8.440311e-01
8.127212e-01
7.814630e-01
7.501956e-01
7.189244e-01
6.876554e-01
6.563867e-01
6.251194e-01
5.938538e-01
5.625899e-01
5.313250e-01
5.000869e-01
1.000000e+00
9.688239e-01
9.376561e-01
9.064607e-01
8.821183e-01
8.440515e-01
8.127360e-01
7.814770e-01
7.502085e-01
7.189365e-01
6.876664e-01
6.563967e-01
6.251285e-01
5.938619e-01
5.625972e-01
5.313316e-01
5.000927e-01
1.000000e+00
9.687994e-01
9.376077e-01
9.064057e-01
8.801352e-01
8.439582e-01
8.126700e-01
7.814128e-01
7.501503e-01
7.188856e-01
6.876212e-01
6.563572e-01
6.250942e-01
5.938322e-01
5.625716e-01
5.313096e-01
5.000739e-01
1.000000e+00
9.687578e-01
9.375197e-01
9.062836e-01
8.764080e-01
8.438015e-01
8.125454e-01
7.812949e-01
7.500425e-01
7.187891e-01
6.875357e-01
6.562822e-01
6.250288e-01
5.937755e-01
5.625225e-01
5.312672e-01
5.000374e-01
1.000000e+00
9.687087e-01
9.374309e-01
9.061430e-01
8.722185e-01
8.436442e-01
8.124037e-01
7.811616e-01
7.499204e-01
7.186802e-01
6.874393e-01
6.561977e-01
6.249550e-01
5.937114e-01
5.624670e-01
5.312192e-01
4.999959e-01
1.000000e+00
9.686781e-01
9.373778e-01
9.060360e-01
8.689616e-01
8.435380e-01
8.122936e-01
7.810592e-01
7.498255e-01
7.185957e-01
6.873645e-01
6.561320e-01
6.248976e-01
5.936616e-01
5.624238e-01
5.311818e-01
4.999636e-01
1.000000e+00
9.686660e-01
9.373556e-01
9.059895e-01
8.677276e-01
8.435025e-01
8.122530e-01
7.810215e-01
7.497894e-01
7.185637e-01
6.873360e-01
6.561070e-01
6.248758e-01
5.936426e-01
5.624073e-01
5.311676e-01
4.999513e-01
1.000000e+00
9.687860e-01
9.375820e-01
9.063762e-01
8.789371e-01
8.439056e-01
8.126295e-01
7.813738e-01
7.501141e-01
7.188525e-01
6.875912e-01
6.563302e-01
6.250701e-01
5.938109e-01
5.625526e-01
5.312928e-01
5.000591e-01
1.000000e+00
9.687778e-01
9.375645e-01
9.063518e-01
8.782669e-01
8.438778e-01
8.126073e-01
7.813524e-01
7.500943e-01
7.188347e-01
6.875752e-01
6.563161e-01
6.250577e-01
5.938000e-01
5.625432e-01
5.312846e-01
5.000520e-01
1.000000e+00
9.687608e-01
9.375273e-01
9.062957e-01
8.764997e-01
8.438052e-01
8.125477e-01
7.812953e-01
7.500416e-01
7.187871e-01
6.875327e-01
6.562785e-01
6.250246e-01
5.937711e-01
5.625180e-01
5.312627e-01
5.000330e-01
1.000000e+00
9.687386e-01
9.374814e-01
9.062198e-01
8.742270e-01
8.437170e-01
8.124702e-01
7.812216e-01
7.499735e-01
7.187258e-01
6.874780e-01
6.562302e-01
6.249821e-01
5.937340e-01
5.624857e-01
5.312346e-01
5.000086e-01
1.000000e+00
9.687136e-01
9.374359e-01
9.061455e-01
8.722213e-01
8.436426e-01
8.124007e-01
7.811561e-01
7.499131e-01
7.186714e-01
6.874295e-01
6.561873e-01
6.249445e-01
5.937011e-01
5.624570e-01
5.312097e-01
4.999869e-01
1.000000e+00
9.686967e-01
9.374098e-01
9.061015e-01
8.711668e-01
8.436042e-01
8.123631e-01
7.811209e-01
7.498806e-01
7.186423e-01
6.874035e-01
6.561643e-01
6.249243e-01
5.936835e-01
5.624416e-01
5.311963e-01
4.999753e-01
1.000000e+00
9.686996e-01
9.374146e-01
9.061134e-01
8.713821e-01
8.436121e-01
8.123709e-01
7.811281e-01
7.498872e-01
7.186482e-01
6.874087e-01
6.561688e-01
6.249282e-01
5.936869e-01
5.624446e-01
5.311988e-01
4.999775e-01
1.000000e+00
9.687214e-01
9.374493e-01
9.061706e-01
8.728130e-01
8.436640e-01
8.124211e-01
7.811752e-01
7.499305e-01
7.186870e-01
6.874432e-01
6.561993e-01
6.249549e-01
5.937102e-01
5.624648e-01
5.312164e-01
4.999927e-01
1.000000e+00
9.687470e-01
9.374973e-01
9.062445e-01
8.749942e-01
8.437459e-01
8.124960e-01
7.812460e-01
7.499958e-01
7.187456e-01
6.874955e-01
6.562455e-01
6.249954e-01
5.937455e-01
5.624955e-01
5.312431e-01
5.000158e-01
1.000000e+00
9.687665e-01
9.375400e-01
9.063171e-01
8.771803e-01
8.438321e-01
8.125702e-01
7.813167e-01
7.500610e-01
7.188043e-01
6.875479e-01
6.562917e-01
6.250361e-01
5.937809e-01
5.625264e-01
5.312699e-01
5.000391e-01
1.000000e+00
9.687817e-01
9.375735e-01
9.063652e-01
8.786331e-01
8.438922e-01
8.126189e-01
7.813635e-01
7.501042e-01
7.188433e-01
6.875828e-01
6.563227e-01
6.250633e-01
5.938047e-01
5.625472e-01
5.312880e-01
5.000548e-01
1.000000e+00
9.687845e-01
9.375783e-01
9.063720e-01
8.788621e-01
8.439014e-01
8.126265e-01
7.813710e-01
7.501113e-01
7.188499e-01
6.875888e-01
6.563281e-01
6.250682e-01
5.938091e-01
5.625511e-01
5.312915e-01
5.000580e-01
1.000000e+00
9.687734e-01
9.375525e-01
9.063340e-01
8.777770e-01
8.438568e-01
8.125907e-01
7.813370e-01
7.500803e-01
7.188222e-01
6.875643e-01
6.563067e-01
6.250496e-01
5.937931e-01
5.625373e-01
5.312796e-01
5.000478e-01
1.000000e+00
9.687533e-01
9.375114e-01
9.062705e-01
8.757610e-01
8.437763e-01
8.125234e-01
7.812730e-01
7.500216e-01
7.187698e-01
6.875179e-01
6.562660e-01
6.250142e-01
5.937624e-01
5.625107e-01
5.312567e-01
5.000280e-01
1.000000e+00
9.687291e-01
9.374650e-01
9.061967e-01
8.734903e-01
8.436908e-01
8.124468e-01
7.812010e-01
7.499556e-01
7.187108e-01
6.874657e-01
6.562202e-01
6.249742e-01
5.937276e-01
5.624806e-01
5.312306e-01
5.000055e-01
1.000000e+00
9.687059e-01
9.374268e-01
9.061389e-01
8.717245e-01
8.436294e-01
8.123870e-01
7.811451e-01
7.499046e-01
7.186652e-01
6.874252e-01
6.561846e-01
6.249431e-01
5.937006e-01
5.624572e-01
5.312104e-01
4.999880e-01
1.000000e+00
9.686969e-01
9.374147e-01
9.061201e-01
8.710634e-01
8.436078e-01
8.123644e-01
7.811239e-01
7.498853e-01
7.186479e-01
6.874098e-01
6.561711e-01
6.249312e-01
5.936903e-01
5.624482e-01
5.312026e-01
4.999813e-01
1.000000e+00
9.687417e-01
9.374870e-01
9.062318e-01
8.749938e-01
8.437452e-01
8.124961e-01
7.812467e-01
7.499967e-01
7.187468e-01
6.874969e-01
6.562469e-01
6.249970e-01
5.937470e-01
5.624971e-01
5.312446e-01
5.000173e-01
1.000000e+00
9.687441e-01
9.374918e-01
9.062395e-01
8.749936e-01
8.437458e-01
8.124963e-01
7.812467e-01
7.499967e-01
7.187468e-01
6.874969e-01
6.562470e-01
6.249970e-01
5.937470e-01
5.624971e-01
5.312446e-01
5.000173e-01
1.000000e+00
9.687471e-01
9.374976e-01
9.062471e-01
8.749955e-01
8.437462e-01
8.124965e-01
7.812466e-01
7.499967e-01
7.187468e-01
6.874969e-01
6.562469e-01
6.249969e-01
5.937470e-01
5.624970e-01
5.312445e-01
5.000172e-01
1.000000e+00
9.687479e-01
9.374995e-01
9.062484e-01
8.749961e-01
8.437463e-01
8.124965e-01
7.812466e-01
7.499966e-01
7.187467e-01
6.874968e-01
6.562468e-01
6.249968e-01
5.937469e-01
5.624970e-01
5.312445e-01
5.000172e-01
1.000000e+00
9.687450e-01
9.374943e-01
9.062411e-01
8.749937e-01
8.437457e-01
8.124963e-01
7.812465e-01
7.499966e-01
7.187467e-01
6.874967e-01
6.562468e-01
6.249968e-01
5.937469e-01
5.624970e-01
5.312445e-01
5.000171e-01
1.000000e+00
9.687421e-01
9.374880e-01
9.062306e-01
8.749930e-01
8.437448e-01
8.124961e-01
7.812465e-01
7.499966e-01
7.187467e-01
6.874967e-01
6.562467e-01
6.249968e-01
5.937469e-01
5.624969e-01
5.312444e-01
5.000171e-01
1.000000e+00
9.687431e-01
9.374895e-01
9.062333e-01
8.749931e-01
8.437451e-01
8.124962e-01
7.812466e-01
7.499967e-01
7.187467e-01
6.874967e-01
6.562467e-01
6.249968e-01
5.937469e-01
5.624969e-01
5.312444e-01
5.000171e-01
1.000000e+00
9.687462e-01
9.374960e-01
9.062436e-01
8.749945e-01
8.437460e-01
8.124965e-01
7.812466e-01
7.499967e-01
7.187467e-01
6.874968e-01
6.562468e-01
6.249968e-01
5.937469e-01
5.624969e-01
5.312444e-01
5.000171e-01
1.000000e+00
9.687488e-01
9.375006e-01
9.062490e-01
8.749966e-01
8.437465e-01
8.124967e-01
7.812468e-01
7.499968e-01
7.187468e-01
6.874968e-01
6.562469e-01
6.249969e-01
5.937469e-01
5.624969e-01
5.312444e-01
5.000171e-01
1.000000e+00
9.687464e-01
9.374962e-01
9.062445e-01
8.749949e-01
8.437463e-01
8.124966e-01
7.812469e-01
7.499968e-01
7.187469e-01
6.874969e-01
6.562470e-01
6.249970e-01
5.937469e-01
5.624969e-01
5.312444e-01
5.000171e-01
1.000000e+00
9.687434e-01
9.374901e-01
9.062351e-01
8.749931e-01
8.437457e-01
8.124965e-01
7.812470e-01
7.499969e-01
7.187469e-01
6.874970e-01
6.562470e-01
6.249970e-01
5.937470e-01
5.624969e-01
5.312444e-01
5.000171e-01
1.000000e+00
9.687424e-01
9.374884e-01
9.062310e-01
8.749922e-01
8.437454e-01
8.124964e-01
7.812470e-01
7.499969e-01
7.187470e-01
6.874970e-01
6.562470e-01
6.249970e-01
5.937470e-01
5.624970e-01
5.312444e-01
5.000171e-01
1.000000e+00
9.687450e-01
9.374939e-01
9.062410e-01
8.749935e-01
8.437461e-01
8.124966e-01
7.812470e-01
7.499969e-01
7.187470e-01
6.874969e-01
6.562470e-01
6.249970e-01
5.937469e-01
5.624969e-01
5.312444e-01
5.000171e-01
1.000000e+00
9.687474e-01
9.374986e-01
9.062481e-01
8.749964e-01
8.437466e-01
8.124968e-01
7.812470e-01
7.499969e-01
7.187469e-01
6.874969e-01
6.562469e-01
6.249969e-01
5.937469e-01
5.624969e-01
5.312443e-01
5.000171e-01
1.000000e+00
9.687473e-01
9.374986e-01
9.062471e-01
8.749964e-01
8.437468e-01
8.124967e-01
7.812470e-01
7.499969e-01
7.187468e-01
6.874968e-01
6.562468e-01
6.249968e-01
5.937468e-01
5.624968e-01
5.312443e-01
5.000170e-01
1.000000e+00
9.687446e-01
9.374937e-01
9.062443e-01
8.749949e-01
8.437470e-01
8.124966e-01
7.812469e-01
7.499969e-01
7.187468e-01
6.874968e-01
6.562468e-01
6.249968e-01
5.937467e-01
5.624968e-01
5.312442e-01
5.000169e-01
1.000000e+00
9.687417e-01
9.374880e-01
9.062424e-01
8.749939e-01
8.437469e-01
8.124964e-01
7.812469e-01
7.499968e-01
7.187468e-01
6.874967e-01
6.562467e-01
6.249967e-01
5.937467e-01
5.624967e-01
5.312442e-01
5.000168e-01
1.000000e+00
9.686948e-01
9.374090e-01
9.061075e-01
8.710845e-01
8.436026e-01
8.123605e-01
7.811187e-01
7.498789e-01
7.186411e-01
6.874026e-01
6.561637e-01
6.249239e-01
5.936833e-01
5.624415e-01
5.311964e-01
4.999755e-01
1.000000e+00
9.687048e-01
9.374237e-01
9.061328e-01
8.717313e-01
8.436258e-01
8.123837e-01
7.811404e-01
7.498989e-01
7.186590e-01
6.874186e-01
6.561779e-01
6.249363e-01
5.936941e-01
5.624510e-01
5.312046e-01
4.999826e-01
1.000000e+00
9.687293e-01
9.374646e-01
9.061965e-01
8.734893e-01
8.436892e-01
8.124447e-01
7.811978e-01
7.499518e-01
7.187065e-01
6.874610e-01
6.562153e-01
6.249692e-01
5.937229e-01
5.624760e-01
5.312264e-01
5.000015e-01
1.000000e+00
9.687539e-01
9.375122e-01
9.062698e-01
8.757610e-01
8.437757e-01
8.125225e-01
7.812715e-01
7.500198e-01
7.187676e-01
6.875156e-01
6.562635e-01
6.250115e-01
5.937599e-01
5.625083e-01
5.312544e-01
5.000257e-01
1.000000e+00
9.687731e-01
9.375523e-01
9.063333e-01
8.777780e-01
8.438565e-01
8.125908e-01
7.813368e-01
7.500801e-01
7.188219e-01
6.875640e-01
6.563063e-01
6.250491e-01
5.937927e-01
5.625368e-01
5.312792e-01
5.000473e-01
1.000000e+00
9.687843e-01
9.375795e-01
9.063731e-01
8.788628e-01
8.439013e-01
8.126270e-01
7.813716e-01
7.501122e-01
7.188510e-01
6.875900e-01
6.563293e-01
6.250693e-01
5.938103e-01
5.625522e-01
5.312925e-01
5.000589e-01
1.000000e+00
9.687810e-01
9.375740e-01
9.063658e-01
8.786356e-01
8.438920e-01
8.126197e-01
7.813646e-01
7.501057e-01
7.188451e-01
6.875848e-01
6.563248e-01
6.250654e-01
5.938069e-01
5.625493e-01
5.312900e-01
5.000566e-01
1.000000e+00
9.687658e-01
9.375392e-01
9.063158e-01
8.771809e-01
8.438323e-01
8.125710e-01
7.813180e-01
7.500628e-01
7.188065e-01
6.875503e-01
6.562943e-01
6.250387e-01
5.937836e-01
5.625290e-01
5.312724e-01
5.000414e-01
1.000000e+00
9.687468e-01
9.374969e-01
9.062442e-01
8.749942e-01
8.437464e-01
8.124970e-01
7.812475e-01
7.499978e-01
7.187480e-01
6.874982e-01
6.562483e-01
6.249983e-01
5.937483e-01
5.624983e-01
5.312457e-01
5.000184e-01
1.000000e+00
9.687213e-01
9.374494e-01
9.061732e-01
8.728120e-01
8.436648e-01
8.124222e-01
7.811769e-01
7.499326e-01
7.186895e-01
6.874459e-01
6.562021e-01
6.249578e-01
5.937130e-01
5.624675e-01
5.312190e-01
4.999952e-01
1.000000e+00
9.687002e-01
9.374153e-01
9.061175e-01
8.713762e-01
8.436135e-01
8.123722e-01
7.811299e-01
7.498892e-01
7.186505e-01
6.874111e-01
6.561713e-01
6.249307e-01
5.936892e-01
5.624468e-01
5.312009e-01
4.999795e-01
1.000000e+00
9.686968e-01
9.374100e-01
9.061033e-01
8.711643e-01
8.436054e-01
8.123643e-01
7.811224e-01
7.498822e-01
7.186440e-01
6.874051e-01
6.561659e-01
6.249259e-01
5.936848e-01
5.624429e-01
5.311974e-01
4.999764e-01
1.000000e+00
9.687131e-01
9.374359e-01
9.061478e-01
8.722203e-01
8.436436e-01
8.124013e-01
7.811568e-01
7.499135e-01
7.186718e-01
6.874296e-01
6.561873e-01
6.249444e-01
5.937008e-01
5.624567e-01
5.312093e-01
4.999865e-01
1.000000e+00
9.687386e-01
9.374816e-01
9.062217e-01
8.742276e-01
8.437172e-01
8.124698e-01
7.812209e-01
7.499721e-01
7.187240e-01
6.874759e-01
6.562278e-01
6.249797e-01
5.937314e-01
5.624831e-01
5.312321e-01
5.000062e-01
1.000000e+00
9.687631e-01
9.375292e-01
9.062953e-01
8.765004e-01
8.438050e-01
8.125460e-01
7.812928e-01
7.500381e-01
7.187829e-01
6.875280e-01
6.562735e-01
6.250196e-01
5.937661e-01
5.625131e-01
5.312580e-01
5.000285e-01
1.000000e+00
9.687791e-01
9.375634e-01
9.063490e-01
8.782628e-01
8.438774e-01
8.126043e-01
7.813483e-01
7.500891e-01
7.188285e-01
6.875685e-01
6.563090e-01
6.250506e-01
5.937930e-01
5.625364e-01
5.312781e-01
5.000459e-01
1.000000e+00
9.687874e-01
9.375809e-01
9.063722e-01
8.789252e-01
8.439053e-01
8.126258e-01
7.813690e-01
7.501082e-01
7.188457e-01
6.875837e-01
6.563224e-01
6.250623e-01
5.938032e-01
5.625452e-01
5.312857e-01
5.000524e-01
1.000000e+00
9.686605e-01
9.373583e-01
9.059914e-01
8.677364e-01
8.434958e-01
8.122457e-01
7.810127e-01
7.497791e-01
7.185507e-01
6.873226e-01
6.560933e-01
6.248621e-01
5.936292e-01
5.623945e-01
5.311556e-01
4.999401e-01
1.000000e+00
9.686728e-01
9.373757e-01
9.060329e-01
8.689681e-01
8.435330e-01
8.122877e-01
7.810513e-01
7.498158e-01
7.185841e-01
6.873522e-01
6.561194e-01
6.248850e-01
5.936493e-01
5.624120e-01
5.311707e-01
4.999533e-01
1.000000e+00
9.687092e-01
9.374304e-01
9.061394e-01
8.722178e-01
8.436433e-01
8.124001e-01
7.811563e-01
7.499136e-01
7.186723e-01
6.874306e-01
6.561886e-01
6.249457e-01
5.937024e-01
5.624582e-01
5.312110e-01
4.999881e-01
1.000000e+00
9.687581e-01
9.375204e-01
9.062830e-01
8.764079e-01
8.438006e-01
8.125440e-01
7.812926e-01
7.500394e-01
7.187854e-01
6.875315e-01
6.562777e-01
6.250240e-01
5.937708e-01
5.625178e-01
5.312627e-01
5.000330e-01
1.000000e+00
9.687974e-01
9.376070e-01
9.064084e-01
8.801377e-01
8.439574e-01
8.126702e-01
7.814130e-01
7.501503e-01
7.188855e-01
6.876210e-01
6.563567e-01
6.250934e-01
5.938315e-01
5.625707e-01
5.313086e-01
5.000728e-01
1.000000e+00
9.688231e-01
9.376566e-01
9.064636e-01
8.821171e-01
8.440516e-01
8.127371e-01
7.814787e-01
7.502108e-01
7.189387e-01
6.876689e-01
6.563992e-01
6.251308e-01
5.938641e-01
5.625991e-01
5.313333e-01
5.000942e-01
1.000000e+00
9.688171e-01
9.376465e-01
9.064528e-01
8.817051e-01
8.440318e-01
8.127228e-01
7.814654e-01
7.501990e-01
7.189280e-01
6.876594e-01
6.563909e-01
6.251236e-01
5.938578e-01
5.625936e-01
5.313286e-01
5.000902e-01
1.000000e+00
9.687850e-01
9.375819e-01
9.063766e-01
8.790359e-01
8.439112e-01
8.126331e-01
7.813782e-01
7.501186e-01
7.188570e-01
6.875957e-01
6.563346e-01
6.250742e-01
5.938148e-01
5.625562e-01
5.312961e-01
5.000621e-01
1.000000e+00
9.687428e-01
9.374891e-01
9.062309e-01
8.749872e-01
8.437461e-01
8.124968e-01
7.812481e-01
7.499986e-01
7.187490e-01
6.874993e-01
6.562495e-01
6.249996e-01
5.937496e-01
5.624995e-01
5.312469e-01
5.000194e-01
1.000000e+00
9.686955e-01
9.374075e-01
9.061010e-01
8.709704e-01
8.436011e-01
8.123581e-01
7.811173e-01
7.498780e-01
7.186408e-01
6.874027e-01
6.561642e-01
6.249247e-01
5.936842e-01
5.624426e-01
5.311975e-01
4.999766e-01
1.000000e+00
9.686635e-01
9.373633e-01
9.060107e-01
8.682968e-01
8.435134e-01
8.122661e-01
7.810316e-01
7.497985e-01
7.185684e-01
6.873383e-01
6.561073e-01
6.248746e-01
5.936403e-01
5.624043e-01
5.311641e-01
4.999477e-01
1.000000e+00
9.686599e-01
9.373603e-01
9.059963e-01
8.678859e-01
8.435013e-01
8.122526e-01
7.810179e-01
7.497853e-01
7.185562e-01
6.873272e-01
6.560973e-01
6.248656e-01
5.936322e-01
5.623971e-01
5.311577e-01
4.999419e-01
1.000000e+00
9.686832e-01
9.373918e-01
9.060660e-01
8.698719e-01
8.435640e-01
8.123202e-01
7.810800e-01
7.498423e-01
7.186079e-01
6.873726e-01
6.561368e-01
6.248999e-01
5.936618e-01
5.624226e-01
5.311795e-01
4.999607e-01
1.000000e+00
9.687268e-01
9.374599e-01
9.061870e-01
8.735753e-01
8.436925e-01
8.124466e-01
7.811987e-01
7.499511e-01
7.187047e-01
6.874581e-01
6.562117e-01
6.249652e-01
5.937184e-01
5.624715e-01
5.312217e-01
4.999970e-01
1.000000e+00
9.687744e-01
9.375539e-01
9.063361e-01
8.777778e-01
8.438556e-01
8.125873e-01
7.813315e-01
7.500729e-01
7.188135e-01
6.875545e-01
6.562963e-01
6.250389e-01
5.937824e-01
5.625269e-01
5.312696e-01
5.000383e-01
1.000000e+00
9.688157e-01
9.376285e-01
9.064302e-01
8.810350e-01
8.439985e-01
8.126950e-01
7.814348e-01
7.501667e-01
7.188976e-01
6.876293e-01
6.563619e-01
6.250962e-01
5.938322e-01
5.625700e-01
5.313068e-01
5.000704e-01
1.000000e+00
9.688291e-01
9.376531e-01
9.064526e-01
8.822515e-01
8.440572e-01
8.127354e-01
7.814744e-01
7.502016e-01
7.189293e-01
6.876575e-01
6.563867e-01
6.251179e-01
5.938510e-01
5.625863e-01
5.313209e-01
5.000826e-01
1.000000e+00
9.686376e-01
9.373140e-01
9.058725e-01
8.655038e-01
8.434250e-01
8.121697e-01
7.809432e-01
7.497155e-01
7.184939e-01
6.872687e-01
6.560462e-01
6.248208e-01
5.935932e-01
5.623631e-01
5.311283e-01
4.999165e-01
1.000000e+00
9.686565e-01
9.373491e-01
9.059434e-01
8.671419e-01
8.434729e-01
8.122235e-01
7.809923e-01
7.497615e-01
7.185354e-01
6.873076e-01
6.560803e-01
6.248507e-01
5.936194e-01
5.623859e-01
5.311481e-01
4.999337e-01
1.000000e+00
9.686939e-01
9.374059e-01
9.060886e-01
8.713723e-01
8.436170e-01
8.123697e-01
7.811284e-01
7.498879e-01
7.186492e-01
6.874103e-01
6.561707e-01
6.249300e-01
5.936888e-01
5.624464e-01
5.312007e-01
4.999792e-01
1.000000e+00
9.687605e-01
9.375256e-01
9.062911e-01
8.768351e-01
8.438190e-01
8.125577e-01
7.813064e-01
7.500522e-01
7.187972e-01
6.875422e-01
6.562871e-01
6.250323e-01
5.937782e-01
5.625242e-01
5.312683e-01
5.000378e-01
1.000000e+00
9.688157e-01
9.376462e-01
9.064588e-01
8.817107e-01
8.440359e-01
8.127217e-01
7.814648e-01
7.501983e-01
7.189277e-01
6.876588e-01
6.563904e-01
6.251230e-01
5.938574e-01
5.625933e-01
5.313283e-01
5.000899e-01
1.000000e+00
9.688516e-01
9.377005e-01
9.065026e-01
8.842793e-01
8.441694e-01
8.128086e-01
7.815519e-01
7.502792e-01
7.189993e-01
6.877219e-01
6.564458e-01
6.251719e-01
5.939001e-01
5.626304e-01
5.313605e-01
5.001179e-01
1.000000e+00
9.688475e-01
9.376908e-01
9.064968e-01
8.837521e-01
8.441373e-01
8.127906e-01
7.815343e-01
7.502618e-01
7.189852e-01
6.877094e-01
6.564349e-01
6.251624e-01
5.938918e-01
5.626233e-01
5.313544e-01
5.001125e-01
1.000000e+00
9.687970e-01
9.376087e-01
9.064178e-01
8.802759e-01
8.439717e-01
8.126738e-01
7.814189e-01
7.501555e-01
7.188905e-01
6.876259e-01
6.563615e-01
6.250980e-01
5.938356e-01
5.625744e-01
5.313119e-01
5.000758e-01
1.000000e+00
9.687405e-01
9.374849e-01
9.062193e-01
8.749748e-01
8.437468e-01
8.124960e-01
7.812483e-01
7.499992e-01
7.187498e-01
6.875001e-01
6.562503e-01
6.250004e-01
5.937504e-01
5.625003e-01
5.312477e-01
5.000202e-01
1.000000e+00
9.686758e-01
9.373789e-01
9.060358e-01
8.697515e-01
8.435646e-01
8.123151e-01
7.810779e-01
7.498412e-01
7.186080e-01
6.873738e-01
6.561389e-01
6.249026e-01
5.936650e-01
5.624260e-01
5.311831e-01
4.999642e-01
1.000000e+00
9.686471e-01
9.373317e-01
9.059097e-01
8.662574e-01
8.434474e-01
8.121961e-01
7.809672e-01
7.497388e-01
7.185153e-01
6.872896e-01
6.560645e-01
6.248371e-01
5.936077e-01
5.623760e-01
5.311396e-01
4.999264e-01
1.000000e+00
9.686398e-01
9.373217e-01
9.058928e-01
8.656867e-01
8.434338e-01
8.121785e-01
7.809498e-01
7.497236e-01
7.184996e-01
6.872752e-01
6.560514e-01
6.248254e-01
5.935971e-01
5.623665e-01
5.311311e-01
4.999189e-01
1.000000e+00
9.686634e-01
9.373663e-01
9.060024e-01
8.683154e-01
8.435126e-01
8.122662e-01
7.810296e-01
7.497960e-01
7.185649e-01
6.873344e-01
6.561031e-01
6.248702e-01
5.936358e-01
5.623998e-01
5.311597e-01
4.999434e-01
1.000000e+00
9.687180e-01
9.374435e-01
9.061545e-01
8.731404e-01
8.436762e-01
8.124309e-01
7.811837e-01
7.499369e-01
7.186917e-01
6.874463e-01
6.562010e-01
6.249555e-01
5.937097e-01
5.624637e-01
5.312148e-01
4.999909e-01
1.000000e+00
9.687801e-01
9.375688e-01
9.063630e-01
8.786325e-01
8.438920e-01
8.126144e-01
7.813572e-01
7.500960e-01
7.188338e-01
6.875722e-01
6.563115e-01
6.250519e-01
5.937934e-01
5.625361e-01
5.312773e-01
5.000448e-01
1.000000e+00
9.688417e-01
9.376740e-01
9.064812e-01
8.828875e-01
8.440871e-01
8.127545e-01
7.814934e-01