<?xml version="1.0"?>
<VTKFile type="StructuredGrid" version="0.1">
  <StructuredGrid WholeExtent="0 16 0 16 0 16">
    <Piece Extent="0 16 0 16 0 16">
      <PointData Scalars="temperature" Vectors="velocity">
        <DataArray type="Float32" Name="temperature" format="ascii">
1.000000e+00
9.691126e-01
9.381998e-01
9.071081e-01
8.857774e-01
8.453743e-01
8.136542e-01
7.824071e-01
7.510877e-01
7.197478e-01
6.883929e-01
6.570559e-01
6.257216e-01
5.943934e-01
5.630734e-01
5.317462e-01
5.005021e-01
1.000000e+00
9.690740e-01
9.381298e-01
9.070863e-01
8.840298e-01
8.450696e-01
8.134542e-01
7.822061e-01
7.508982e-01
7.195729e-01
6.882414e-01
6.569153e-01
6.255952e-01
5.942799e-01
5.629709e-01
5.316578e-01
5.004263e-01
1.000000e+00
9.688532e-01
9.377382e-01
9.066542e-01
8.791535e-01
8.443120e-01
8.129385e-01
7.816782e-01
7.504016e-01
7.191164e-01
6.878318e-01
6.565458e-01
6.252636e-01
5.939836e-01
5.627063e-01
5.314250e-01
5.002165e-01
1.000000e+00
9.686396e-01
9.373008e-01
9.058793e-01
8.727721e-01
8.434905e-01
8.122465e-01
7.810089e-01
7.497720e-01
7.185398e-01
6.873071e-01
6.560743e-01
6.248403e-01
5.936054e-01
5.623694e-01
5.311256e-01
4.999525e-01
1.000000e+00
9.684312e-01
9.370025e-01
9.052687e-01
8.674147e-01
8.429254e-01
8.116258e-01
7.804213e-01
7.492233e-01
7.180316e-01
6.868453e-01
6.556584e-01
6.244672e-01
5.932722e-01
5.620724e-01
5.308588e-01
4.997159e-01
1.000000e+00
9.683664e-01
9.368406e-01
9.048660e-01
8.643909e-01
8.425734e-01
8.112980e-01
7.801108e-01
7.489347e-01
7.177679e-01
6.865993e-01
6.554348e-01
6.242673e-01
5.930943e-01
5.619151e-01
5.307196e-01
4.995866e-01
1.000000e+00
9.683992e-01
9.368881e-01
9.049457e-01
8.650573e-01
8.426463e-01
8.113636e-01
7.801745e-01
7.489858e-01
7.178215e-01
6.866487e-01
6.554792e-01
6.243073e-01
5.931280e-01
5.619420e-01
5.307471e-01
4.996111e-01
1.000000e+00
9.684807e-01
9.370688e-01
9.054460e-01
8.689991e-01
8.430979e-01
8.118134e-01
7.805894e-01
7.493753e-01
7.181753e-01
6.869750e-01
6.557742e-01
6.245706e-01
5.933626e-01
5.621508e-01
5.309313e-01
4.997762e-01
1.000000e+00
9.687178e-01
9.374469e-01
9.061364e-01
8.748666e-01
8.437228e-01
8.124745e-01
7.812260e-01
7.499755e-01
7.187237e-01
6.874724e-01
6.562217e-01
6.249717e-01
5.937222e-01
5.624728e-01
5.312166e-01
5.000334e-01
1.000000e+00
9.689128e-01
9.378788e-01
9.068539e-01
8.810478e-01
8.446087e-01
8.131331e-01
7.818687e-01
7.505772e-01
7.192758e-01
6.879760e-01
6.566764e-01
6.253793e-01
5.940841e-01
5.627954e-01
5.315037e-01
5.002847e-01
1.000000e+00
9.691167e-01
9.381747e-01
9.071340e-01
8.849946e-01
8.452263e-01
8.135519e-01
7.823051e-01
7.509860e-01
7.196541e-01
6.883146e-01
6.569827e-01
6.256555e-01
5.943309e-01
5.630170e-01
5.317009e-01
5.004612e-01
1.000000e+00
9.691090e-01
9.381827e-01
9.071169e-01
8.855731e-01
8.453250e-01
8.136276e-01
7.823792e-01
7.510630e-01
7.197190e-01
6.883748e-01
6.570380e-01
6.257070e-01
5.943825e-01
5.630645e-01
5.317410e-01
5.004971e-01
1.000000e+00
9.689986e-01
9.380303e-01
9.069913e-01
8.827057e-01
8.448313e-01
8.133195e-01
7.820673e-01
7.507711e-01
7.194534e-01
6.881434e-01
6.568321e-01
6.255240e-01
5.942200e-01
5.629202e-01
5.316149e-01
5.003927e-01
1.000000e+00
9.687888e-01
9.375930e-01
9.064051e-01
8.770768e-01
8.440189e-01
8.127309e-01
7.814857e-01
7.502277e-01
7.189660e-01
6.877027e-01
6.564380e-01
6.251734e-01
5.939091e-01
5.626454e-01
5.313753e-01
5.001793e-01
1.000000e+00
9.685501e-01
9.371700e-01
9.056794e-01
8.708305e-01
8.433057e-01
8.120501e-01
7.808389e-01
7.496256e-01
7.184168e-01
6.872074e-01
6.559952e-01
6.247791e-01
5.935597e-01
5.623363e-01
5.311021e-01
4.999386e-01
1.000000e+00
9.684330e-01
9.369671e-01
9.051398e-01
8.660822e-01
8.427923e-01
8.115253e-01
7.803450e-01
7.491690e-01
7.179951e-01
6.868253e-01
6.556535e-01
6.244756e-01
5.932881e-01
5.620953e-01
5.308895e-01
4.997516e-01
1.000000e+00
9.683660e-01
9.368236e-01
9.048766e-01
8.641576e-01
8.425971e-01
8.113334e-01
7.801611e-01
7.490014e-01
7.178391e-01
6.866820e-01
6.555263e-01
6.243640e-01
5.931859e-01
5.620036e-01
5.308087e-01
4.996801e-01
1.000000e+00
9.690874e-01
9.381655e-01
9.070686e-01
8.849751e-01
8.452080e-01
8.135718e-01
7.823201e-01
7.510000e-01
7.196644e-01
6.883258e-01
6.569947e-01
6.256673e-01
5.943434e-01
5.630258e-01
5.317066e-01
5.004691e-01
1.000000e+00
9.690398e-01
9.380813e-01
9.070259e-01
8.833564e-01
8.449369e-01
8.133862e-01
7.821333e-01
7.508258e-01
7.195050e-01
6.881834e-01
6.568641e-01
6.255495e-01
5.942387e-01
5.629331e-01
5.316254e-01
5.003981e-01
1.000000e+00
9.688469e-01
9.377225e-01
9.066206e-01
8.788448e-01
8.442606e-01
8.129038e-01
7.816455e-01
7.503697e-01
7.190870e-01
6.878049e-01
6.565224e-01
6.252427e-01
5.939652e-01
5.626901e-01
5.314104e-01
5.002058e-01
1.000000e+00
9.686493e-01
9.373165e-01
9.059148e-01
8.729511e-01
8.435083e-01
8.122645e-01
7.810270e-01
7.497891e-01
7.185552e-01
6.873210e-01
6.560868e-01
6.248517e-01
5.936158e-01
5.623787e-01
5.311337e-01
4.999609e-01
1.000000e+00
9.684518e-01
9.370337e-01
9.053733e-01
8.679707e-01
8.429753e-01
8.116907e-01
7.804820e-01
7.492786e-01
7.180859e-01
6.868947e-01
6.557027e-01
6.245071e-01
5.933062e-01
5.621028e-01
5.308875e-01
4.997426e-01
1.000000e+00
9.683870e-01
9.369089e-01
9.050289e-01
8.651608e-01
8.426585e-01
8.113895e-01
7.801961e-01
7.490114e-01
7.178380e-01
6.866672e-01
6.554973e-01
6.243236e-01
5.931425e-01
5.619564e-01
5.307567e-01
4.996240e-01
1.000000e+00
9.684091e-01
9.369402e-01
9.050920e-01
8.657794e-01
8.427242e-01
8.114481e-01
7.802543e-01
7.490630e-01
7.178881e-01
6.867129e-01
6.555375e-01
6.243578e-01
5.931740e-01
5.619831e-01
5.307820e-01
4.996465e-01
1.000000e+00
9.685034e-01
9.370994e-01
9.055288e-01
8.694467e-01
8.431395e-01
8.118589e-01
7.806377e-01
7.494225e-01
7.182188e-01
6.870145e-01
6.558091e-01
6.246009e-01
5.933905e-01
5.621768e-01
5.309541e-01
4.997997e-01
1.000000e+00
9.687203e-01
9.374506e-01
9.061469e-01
8.748887e-01
8.437265e-01
8.124753e-01
7.812278e-01
7.499766e-01
7.187250e-01
6.874738e-01
6.562234e-01
6.249734e-01
5.937237e-01
5.624741e-01
5.312176e-01
5.000353e-01
1.000000e+00
9.689013e-01
9.378519e-01
9.068060e-01
8.805972e-01
8.445238e-01
8.130827e-01
7.818206e-01
7.505330e-01
7.192355e-01
6.879392e-01
6.566418e-01
6.253488e-01
5.940581e-01
5.627725e-01
5.314830e-01
5.002694e-01
1.000000e+00
9.690776e-01
9.381320e-01
9.070835e-01
8.842489e-01
8.450758e-01
8.134756e-01
7.822239e-01
7.509106e-01
7.195814e-01
6.882526e-01
6.569249e-01
6.256040e-01
5.942871e-01
5.629756e-01
5.316641e-01
5.004310e-01
1.000000e+00
9.690857e-01
9.381566e-01
9.070803e-01
8.847908e-01
8.451612e-01
8.135473e-01
7.822919e-01
7.509776e-01
7.196409e-01
6.883082e-01
6.569786e-01
6.256541e-01
5.943330e-01
5.630178e-01
5.317013e-01
5.004647e-01
1.000000e+00
9.689733e-01
9.379883e-01
9.069324e-01
8.821274e-01
8.447260e-01
8.132598e-01
7.820024e-01
7.507089e-01
7.193996e-01
6.880939e-01
6.567872e-01
6.254837e-01
5.941821e-01
5.628866e-01
5.315862e-01
5.003665e-01
1.000000e+00
9.687861e-01
9.375869e-01
9.063932e-01
8.769233e-01
8.439952e-01
8.127135e-01
7.814676e-01
7.502102e-01
7.189490e-01
6.876866e-01
6.564231e-01
6.251596e-01
5.938965e-01
5.626338e-01
5.313645e-01
5.001701e-01
1.000000e+00
9.685667e-01
9.371954e-01
9.057369e-01
8.711496e-01
8.433316e-01
8.120844e-01
7.808689e-01
7.496530e-01
7.184418e-01
6.872292e-01
6.560141e-01
6.247955e-01
5.935735e-01
5.623480e-01
5.311120e-01
4.999473e-01
1.000000e+00
9.684548e-01
9.370049e-01
9.052516e-01
8.667308e-01
8.428612e-01
8.115993e-01
7.804122e-01
7.492267e-01
7.180518e-01
6.868767e-01
6.556984e-01
6.245131e-01
5.933221e-01
5.621253e-01
5.309154e-01
4.997741e-01
1.000000e+00
9.683892e-01
9.368742e-01
9.050085e-01
8.649426e-01
8.426858e-01
8.114235e-01
7.802453e-01
7.490690e-01
7.179072e-01
6.867456e-01
6.555815e-01
6.244073e-01
5.932270e-01
5.620406e-01
5.308407e-01
4.997080e-01
1.000000e+00
9.690063e-01
9.380323e-01
9.069591e-01
8.826970e-01
8.447876e-01
8.133245e-01
7.820631e-01
7.507577e-01
7.194410e-01
6.881290e-01
6.568159e-01
6.255067e-01
5.942004e-01
5.628982e-01
5.315955e-01
5.003722e-01
1.000000e+00
9.689519e-01
9.379341e-01
9.068639e-01
8.814192e-01
8.445962e-01
8.131830e-01
7.819212e-01
7.506262e-01
7.193215e-01
6.880194e-01
6.567169e-01
6.254176e-01
5.941213e-01
5.628288e-01
5.315336e-01
5.003172e-01
1.000000e+00
9.688232e-01
9.376723e-01
9.065328e-01
8.779483e-01
8.441193e-01
8.128076e-01
7.815505e-01
7.502803e-01
7.190053e-01
6.877307e-01
6.564564e-01
6.251837e-01
5.939128e-01
5.626437e-01
5.313689e-01
5.001709e-01
1.000000e+00
9.686763e-01
9.373659e-01
9.060195e-01
8.734448e-01
8.435582e-01
8.123179e-01
7.810775e-01
7.498366e-01
7.185988e-01
6.873607e-01
6.561228e-01
6.248842e-01
5.936452e-01
5.624051e-01
5.311570e-01
4.999827e-01
1.000000e+00
9.685229e-01
9.371254e-01
9.056078e-01
8.695877e-01
8.431326e-01
8.118774e-01
7.806580e-01
7.494426e-01
7.182386e-01
6.870334e-01
6.558276e-01
6.246194e-01
5.934072e-01
5.621931e-01
5.309688e-01
4.998158e-01
1.000000e+00
9.684438e-01
9.370292e-01
9.053742e-01
8.674988e-01
8.429080e-01
8.116438e-01
7.804370e-01
7.492356e-01
7.180457e-01
6.868581e-01
6.556698e-01
6.244781e-01
5.932806e-01
5.620794e-01
5.308672e-01
4.997258e-01
1.000000e+00
9.684574e-01
9.370456e-01
9.054181e-01
8.679402e-01
8.429502e-01
8.116898e-01
7.804819e-01
7.492783e-01
7.180843e-01
6.868928e-01
6.557003e-01
6.245039e-01
5.933053e-01
5.621013e-01
5.308864e-01
4.997427e-01
1.000000e+00
9.685688e-01
9.371896e-01
9.057316e-01
8.707273e-01
8.432594e-01
8.120038e-01
7.807782e-01
7.495554e-01
7.183405e-01
6.871252e-01
6.559093e-01
6.246914e-01
5.934723e-01
5.622506e-01
5.310194e-01
4.998604e-01
1.000000e+00
9.687287e-01
9.374662e-01
9.061844e-01
8.749370e-01
8.437312e-01
8.124795e-01
7.812315e-01
7.499800e-01
7.187287e-01
6.874779e-01
6.562277e-01
6.249776e-01
5.937277e-01
5.624779e-01
5.312210e-01
5.000391e-01
1.000000e+00
9.688623e-01
9.377653e-01
9.066737e-01
8.792938e-01
8.443019e-01
8.129450e-01
7.816846e-01
7.504056e-01
7.191191e-01
6.878333e-01
6.565470e-01
6.252642e-01
5.939839e-01
5.627065e-01
5.314242e-01
5.002197e-01
1.000000e+00
9.689741e-01
9.379852e-01
9.069311e-01
8.821125e-01
8.446995e-01
8.132510e-01
7.819905e-01
7.506930e-01
7.193801e-01
6.880722e-01
6.567626e-01
6.254584e-01
5.941583e-01
5.628609e-01
5.315620e-01
5.003424e-01
1.000000e+00
9.689929e-01
9.380196e-01
9.069560e-01
8.825469e-01
8.447750e-01
8.133032e-01
7.820414e-01
7.507413e-01
7.194257e-01
6.881151e-01
6.568041e-01
6.254969e-01
5.941921e-01
5.628920e-01
5.315906e-01
5.003685e-01
1.000000e+00
9.689097e-01
9.378595e-01
9.067744e-01
8.804629e-01
8.444597e-01
8.130825e-01
7.818215e-01
7.505376e-01
7.192447e-01
6.879515e-01
6.566581e-01
6.253672e-01
5.940777e-01
5.627931e-01
5.315036e-01
5.002922e-01
1.000000e+00
9.687761e-01
9.375676e-01
9.063649e-01
8.764801e-01
8.439293e-01
8.126629e-01
7.814150e-01
7.501593e-01
7.189003e-01
6.876408e-01
6.563804e-01
6.251202e-01
5.938600e-01
5.626003e-01
5.313335e-01
5.001422e-01
1.000000e+00
9.686166e-01
9.372741e-01
9.058941e-01
8.720437e-01
8.434142e-01
8.121817e-01
7.809562e-01
7.497323e-01
7.185124e-01
6.872907e-01
6.560674e-01
6.248414e-01
5.936125e-01
5.623811e-01
5.311400e-01
4.999715e-01
1.000000e+00
9.685128e-01
9.371049e-01
9.055450e-01
8.686093e-01
8.430538e-01
8.118087e-01
7.806037e-01
7.494021e-01
7.182126e-01
6.870199e-01
6.558246e-01
6.246239e-01
5.934198e-01
5.622105e-01
5.309894e-01
4.998384e-01
1.000000e+00
9.684722e-01
9.370367e-01
9.053938e-01
8.672645e-01
8.429281e-01
8.116718e-01
7.804743e-01
7.492783e-01
7.181003e-01
6.869187e-01
6.557335e-01
6.245409e-01
5.933465e-01
5.621457e-01
5.309321e-01
4.997878e-01
1.000000e+00
9.688692e-01
9.377733e-01
9.066693e-01
8.792034e-01
8.442801e-01
8.129422e-01
7.816815e-01
7.504038e-01
7.191187e-01
6.878346e-01
6.565504e-01
6.252685e-01
5.939889e-01
5.627119e-01
5.314297e-01
5.002250e-01
1.000000e+00
9.688426e-01
9.377156e-01
9.065896e-01
8.784806e-01
8.441780e-01
8.128667e-01
7.816065e-01
7.503337e-01
7.190548e-01
6.877763e-01
6.564979e-01
6.252213e-01
5.939467e-01
5.626742e-01
5.313962e-01
5.001953e-01
1.000000e+00
9.687839e-01
9.375875e-01
9.063994e-01
8.765898e-01
8.439339e-01
8.126629e-01
7.814077e-01
7.501472e-01
7.188840e-01
6.876207e-01
6.563576e-01
6.250953e-01
5.938341e-01
5.625737e-01
5.313069e-01
5.001161e-01
1.000000e+00
9.687153e-01
9.374405e-01
9.061483e-01
8.741618e-01
8.436382e-01
8.123975e-01
7.811519e-01
7.499069e-01
7.186636e-01
6.874202e-01
6.561768e-01
6.249330e-01
5.936891e-01
5.624445e-01
5.311922e-01
5.000141e-01
1.000000e+00
9.686314e-01
9.372876e-01
9.058956e-01
8.720459e-01
8.434002e-01
8.121582e-01
7.809247e-01
7.496935e-01
7.184680e-01
6.872422e-01
6.560163e-01
6.247890e-01
5.935605e-01
5.623300e-01
5.310904e-01
4.999237e-01
1.000000e+00
9.685753e-01
9.372006e-01
9.057421e-01
8.709611e-01
8.432948e-01
8.120280e-01
7.808031e-01
7.495796e-01
7.183633e-01
6.871465e-01
6.559299e-01
6.247114e-01
5.934912e-01
5.622682e-01
5.310356e-01
4.998750e-01
1.000000e+00
9.685856e-01
9.372166e-01
9.057773e-01
8.711819e-01
8.433121e-01
8.120549e-01
7.808277e-01
7.496025e-01
7.183841e-01
6.871652e-01
6.559467e-01
6.247265e-01
5.935044e-01
5.622799e-01
5.310458e-01
4.998841e-01
1.000000e+00
9.686582e-01
9.373332e-01
9.059757e-01
8.726658e-01
8.434669e-01
8.122278e-01
7.809901e-01
7.497544e-01
7.185232e-01
6.872920e-01
6.560608e-01
6.248287e-01
5.935955e-01
5.623608e-01
5.311176e-01
4.999477e-01
1.000000e+00
9.687425e-01
9.374940e-01
9.062330e-01
8.749766e-01
8.437344e-01
8.124851e-01
7.812356e-01
7.499847e-01
7.187341e-01
6.874837e-01
6.562335e-01
6.249834e-01
5.937335e-01
5.624836e-01
5.312265e-01
5.000443e-01
1.000000e+00
9.688006e-01
9.376272e-01
9.064675e-01
8.773181e-01
8.440252e-01
8.127383e-01
7.814811e-01
7.502148e-01
7.189451e-01
6.876757e-01
6.564068e-01
6.251389e-01
5.938722e-01
5.626073e-01
5.313364e-01
5.001419e-01
1.000000e+00
9.688538e-01
9.377442e-01
9.066350e-01
8.788708e-01
8.442374e-01
8.129038e-01
7.816447e-01
7.503690e-01
7.190859e-01
6.878042e-01
6.565229e-01
6.252433e-01
5.939658e-01
5.626911e-01
5.314111e-01
5.002083e-01
1.000000e+00
9.688627e-01
9.377609e-01
9.066572e-01
8.791138e-01
8.442853e-01
8.129297e-01
7.816719e-01
7.503953e-01
7.191108e-01
6.878274e-01
6.565443e-01
6.252631e-01
5.939842e-01
5.627080e-01
5.314265e-01
5.002224e-01
1.000000e+00
9.688274e-01
9.376766e-01
9.065322e-01
8.779557e-01
8.441171e-01
8.128112e-01
7.815550e-01
7.502865e-01
7.190130e-01
6.877395e-01
6.564660e-01
6.251939e-01
5.939232e-01
5.626542e-01
5.313793e-01
5.001811e-01
1.000000e+00
9.687605e-01
9.375364e-01
9.063169e-01
8.758028e-01
8.438401e-01
8.125843e-01
7.813351e-01
7.500819e-01
7.188270e-01
6.875718e-01
6.563162e-01
6.250606e-01
5.938050e-01
5.625496e-01
5.312872e-01
5.000999e-01
1.000000e+00
9.686833e-01
9.373875e-01
9.060759e-01
8.733885e-01
8.435576e-01
8.123246e-01
7.810871e-01
7.498509e-01
7.186169e-01
6.873821e-01
6.561465e-01
6.249094e-01
5.936708e-01
5.624309e-01
5.311823e-01
5.000074e-01
1.000000e+00
9.686069e-01
9.372602e-01
9.058852e-01
8.715154e-01
8.433527e-01
8.121221e-01
7.808948e-01
7.496720e-01
7.184540e-01
6.872348e-01
6.560145e-01
6.247918e-01
5.935664e-01
5.623384e-01
5.311006e-01
4.999352e-01
1.000000e+00
9.685769e-01
9.372190e-01
9.058265e-01
8.708174e-01
8.432814e-01
8.120457e-01
7.808221e-01
7.496043e-01
7.183923e-01
6.871788e-01
6.559643e-01
6.247472e-01
5.935268e-01
5.623032e-01
5.310695e-01
4.999077e-01
1.000000e+00
9.687235e-01
9.374576e-01
9.061846e-01
8.749678e-01
8.437377e-01
8.124866e-01
7.812396e-01
7.499898e-01
7.187403e-01
6.874906e-01
6.562408e-01
6.249910e-01
5.937412e-01
5.624913e-01
5.312341e-01
5.000516e-01
1.000000e+00
9.687318e-01
9.374737e-01
9.062114e-01
8.749741e-01
8.437367e-01
8.124878e-01
7.812397e-01
7.499900e-01
7.187404e-01
6.874907e-01
6.562409e-01
6.249910e-01
5.937412e-01
5.624912e-01
5.312340e-01
5.000516e-01
1.000000e+00
9.687424e-01
9.374949e-01
9.062419e-01
8.749864e-01
8.437375e-01
8.124891e-01
7.812397e-01
7.499899e-01
7.187402e-01
6.874904e-01
6.562406e-01
6.249907e-01
5.937409e-01
5.624910e-01
5.312338e-01
5.000514e-01
1.000000e+00
9.687452e-01
9.375009e-01
9.062473e-01
8.749894e-01
8.437377e-01
8.124891e-01
7.812396e-01
7.499897e-01
7.187399e-01
6.874901e-01
6.562403e-01
6.249904e-01
5.937407e-01
5.624908e-01
5.312336e-01
5.000512e-01
1.000000e+00
9.687353e-01
9.374820e-01
9.062187e-01
8.749724e-01
8.437354e-01
8.124870e-01
7.812393e-01
7.499896e-01
7.187398e-01
6.874900e-01
6.562402e-01
6.249902e-01
5.937406e-01
5.624907e-01
5.312335e-01
5.000510e-01
1.000000e+00
9.687258e-01
9.374615e-01
9.061828e-01
8.749554e-01
8.437368e-01
8.124845e-01
7.812391e-01
7.499893e-01
7.187396e-01
6.874899e-01
6.562401e-01
6.249902e-01
5.937405e-01
5.624906e-01
5.312334e-01
5.000509e-01
1.000000e+00
9.687286e-01
9.374667e-01
9.061917e-01
8.749597e-01
8.437365e-01
8.124852e-01
7.812392e-01
7.499894e-01
7.187397e-01
6.874899e-01
6.562401e-01
6.249902e-01
5.937405e-01
5.624906e-01
5.312333e-01
5.000508e-01
1.000000e+00
9.687394e-01
9.374895e-01
9.062298e-01
8.749782e-01
8.437362e-01
8.124879e-01
7.812395e-01
7.499897e-01
7.187398e-01
6.874900e-01
6.562401e-01
6.249902e-01
5.937404e-01
5.624905e-01
5.312332e-01
5.000508e-01
1.000000e+00
9.687483e-01
9.375056e-01
9.062519e-01
8.749916e-01
8.437384e-01
8.124893e-01
7.812399e-01
7.499898e-01
7.187400e-01
6.874901e-01
6.562402e-01
6.249903e-01
5.937404e-01
5.624905e-01
5.312332e-01
5.000508e-01
1.000000e+00
9.687400e-01
9.374902e-01
9.062324e-01
8.749817e-01
8.437369e-01
8.124887e-01
7.812401e-01
7.499900e-01
7.187402e-01
6.874903e-01
6.562405e-01
6.249905e-01
5.937405e-01
5.624905e-01
5.312333e-01
5.000508e-01
1.000000e+00
9.687295e-01
9.374686e-01
9.061972e-01
8.749637e-01
8.437368e-01
8.124867e-01
7.812402e-01
7.499900e-01
7.187404e-01
6.874906e-01
6.562407e-01
6.249907e-01
5.937406e-01
5.624906e-01
5.312333e-01
5.000509e-01
1.000000e+00
9.687260e-01
9.374624e-01
9.061845e-01
8.749527e-01
8.437372e-01
8.124858e-01
7.812402e-01
7.499900e-01
7.187404e-01
6.874906e-01
6.562408e-01
6.249908e-01
5.937407e-01
5.624907e-01
5.312333e-01
5.000509e-01
1.000000e+00
9.687345e-01
9.374803e-01
9.062170e-01
8.749687e-01
8.437365e-01
8.124877e-01
7.812403e-01
7.499902e-01
7.187404e-01
6.874904e-01
6.562406e-01
6.249906e-01
5.937405e-01
5.624905e-01
5.312332e-01
5.000507e-01
1.000000e+00
9.687431e-01
9.374972e-01
9.062446e-01
8.749882e-01
8.437385e-01
8.124895e-01
7.812403e-01
7.499901e-01
7.187401e-01
6.874901e-01
6.562403e-01
6.249903e-01
5.937403e-01
5.624903e-01
5.312329e-01
5.000505e-01
1.000000e+00
9.687431e-01
9.374981e-01
9.062434e-01
8.749886e-01
8.437395e-01
8.124896e-01
7.812402e-01
7.499900e-01
7.187400e-01
6.874899e-01
6.562399e-01
6.249900e-01
5.937399e-01
5.624900e-01
5.312326e-01
5.000502e-01
1.000000e+00
9.687332e-01
9.374797e-01
9.062284e-01
8.749824e-01
8.437395e-01
8.124890e-01
7.812402e-01
7.499901e-01
7.187400e-01
6.874899e-01
6.562398e-01
6.249898e-01
5.937398e-01
5.624898e-01
5.312325e-01
5.000500e-01
1.000000e+00
9.687231e-01
9.374597e-01
9.062167e-01
8.749797e-01
8.437391e-01
8.124884e-01
7.812400e-01
7.499900e-01
7.187399e-01
6.874898e-01
6.562397e-01
6.249897e-01
5.937396e-01
5.624896e-01
5.312323e-01
5.000498e-01
1.000000e+00
9.685693e-01
9.371990e-01
9.057606e-01
8.708847e-01
8.432693e-01
8.120245e-01
7.807985e-01
7.495760e-01
7.183611e-01
6.871459e-01
6.559305e-01
6.247128e-01
5.934932e-01
5.622709e-01
5.310387e-01
4.998785e-01
1.000000e+00
9.686028e-01
9.372479e-01
9.058493e-01
8.715397e-01
8.433380e-01
8.121037e-01
7.808728e-01
7.496461e-01
7.184256e-01
6.872047e-01
6.559835e-01
6.247603e-01
5.935356e-01
5.623086e-01
5.310722e-01
4.999082e-01
1.000000e+00
9.686842e-01
9.373837e-01
9.060680e-01
8.733820e-01
8.435480e-01
8.123123e-01
7.810712e-01
7.498324e-01
7.185964e-01
6.873601e-01
6.561236e-01
6.248861e-01
5.936479e-01
5.624084e-01
5.311608e-01
4.999868e-01
1.000000e+00
9.687624e-01
9.375389e-01
9.063154e-01
8.757985e-01
8.438356e-01
8.125783e-01
7.813270e-01
7.500724e-01
7.188162e-01
6.875600e-01
6.563038e-01
6.250477e-01
5.937923e-01
5.625370e-01
5.312750e-01
5.000881e-01
1.000000e+00
9.688243e-01
9.376751e-01
9.065318e-01
8.779555e-01
8.441153e-01
8.128102e-01
7.815536e-01
7.502849e-01
7.190109e-01
6.877373e-01
6.564635e-01
6.251910e-01
5.939205e-01
5.626513e-01
5.313764e-01
5.001781e-01
1.000000e+00
9.688618e-01
9.377661e-01
9.066642e-01
8.791161e-01
8.442871e-01
8.129317e-01
7.816752e-01
7.503994e-01
7.191157e-01
6.878324e-01
6.565493e-01
6.252680e-01
5.939893e-01
5.627127e-01
5.314311e-01
5.002266e-01
1.000000e+00
9.688517e-01
9.377472e-01
9.066397e-01
8.788749e-01
8.442477e-01
8.129073e-01
7.816508e-01
7.503766e-01
7.190949e-01
6.878136e-01
6.565326e-01
6.252533e-01
5.939761e-01
5.627010e-01
5.314207e-01
5.002175e-01
1.000000e+00
9.687991e-01
9.376263e-01
9.064663e-01
8.773187e-01
8.440311e-01
8.127436e-01
7.814887e-01
7.502243e-01
7.189558e-01
6.876876e-01
6.564192e-01
6.251517e-01
5.938853e-01
5.626202e-01
5.313489e-01
5.001539e-01
1.000000e+00
9.687419e-01
9.374938e-01
9.062340e-01
8.749791e-01
8.437387e-01
8.124914e-01
7.812440e-01
7.499950e-01
7.187459e-01
6.874965e-01
6.562471e-01
6.249974e-01
5.937476e-01
5.624975e-01
5.312401e-01
5.000574e-01
1.000000e+00
9.686583e-01
9.373348e-01
9.059844e-01
8.726692e-01
8.434693e-01
8.122347e-01
7.809988e-01
7.497647e-01
7.185351e-01
6.873047e-01
6.560743e-01
6.248424e-01
5.936090e-01
5.623741e-01
5.311305e-01
4.999601e-01
1.000000e+00
9.685877e-01
9.372204e-01
9.057911e-01
8.711732e-01
8.433087e-01
8.120620e-01
7.808357e-01
7.496118e-01
7.183941e-01
6.871762e-01
6.559581e-01
6.247379e-01
5.935154e-01
5.622907e-01
5.310562e-01
4.998940e-01
1.000000e+00
9.685758e-01
9.372024e-01
9.057469e-01
8.709547e-01
8.432971e-01
8.120330e-01
7.808087e-01
7.495858e-01
7.183694e-01
6.871530e-01
6.559364e-01
6.247178e-01
5.934970e-01
5.622738e-01
5.310408e-01
4.998800e-01
1.000000e+00
9.686295e-01
9.372875e-01
9.058982e-01
8.720460e-01
8.434024e-01
8.121592e-01
7.809254e-01
7.496935e-01
7.184676e-01
6.872411e-01
6.560148e-01
6.247872e-01
5.935582e-01
5.623274e-01
5.310876e-01
4.999209e-01
1.000000e+00
9.687139e-01
9.374390e-01
9.061498e-01
8.741633e-01
8.436358e-01
8.123930e-01
7.811455e-01
7.498984e-01
7.186536e-01
6.874088e-01
6.561646e-01
6.249204e-01
5.936760e-01
5.624314e-01
5.311791e-01
5.000015e-01
1.000000e+00
9.687922e-01
9.375951e-01
9.063959e-01
8.765857e-01
8.439274e-01
8.126523e-01
7.813932e-01
7.501291e-01
7.188632e-01
6.875980e-01
6.563338e-01
6.250711e-01
5.938096e-01
5.625495e-01
5.312833e-01
5.000933e-01
1.000000e+00
9.688452e-01
9.377073e-01
9.065709e-01
8.784608e-01
8.441661e-01
8.128508e-01
7.815844e-01
7.503075e-01
7.190255e-01
6.877447e-01
6.564652e-01
6.251883e-01
5.939136e-01
5.626416e-01
5.313646e-01
5.001650e-01
1.000000e+00
9.688722e-01
9.377643e-01
9.066496e-01
8.791661e-01
8.442591e-01
8.129243e-01
7.816557e-01
7.503744e-01
7.190865e-01
6.877999e-01
6.565146e-01
6.252326e-01
5.939529e-01
5.626764e-01
5.313953e-01
5.001921e-01
1.000000e+00
9.684504e-01
9.370323e-01
9.053755e-01
8.673144e-01
8.428896e-01
8.116335e-01
7.804307e-01
7.492276e-01
7.180409e-01
6.868566e-01
6.556704e-01
6.244802e-01
5.932843e-01
5.620835e-01
5.308732e-01
4.997320e-01
1.000000e+00
9.684920e-01
9.370869e-01
9.055150e-01
8.686307e-01
8.430263e-01
8.117756e-01
7.805649e-01
7.493553e-01
7.181590e-01
6.869634e-01
6.557665e-01
6.245661e-01
5.933619e-01
5.621535e-01
5.309351e-01
4.997869e-01
1.000000e+00
9.686176e-01
9.372687e-01
9.058734e-01
8.720293e-01
8.434044e-01
8.121594e-01
7.809282e-01
7.496984e-01
7.184741e-01
6.872494e-01
6.560243e-01
6.247972e-01
5.935690e-01
5.623385e-01
5.310991e-01
4.999323e-01
1.000000e+00
9.687766e-01
9.375674e-01
9.063602e-01
8.764677e-01
8.439233e-01
8.126514e-01
7.814006e-01
7.501421e-01
7.188805e-01
6.876190e-01
6.563573e-01
6.250961e-01
5.938360e-01
5.625763e-01
5.313102e-01
5.001196e-01
1.000000e+00
9.689003e-01
9.378546e-01
9.067828e-01
8.804657e-01
8.444649e-01
8.130795e-01
7.818197e-01
7.505351e-01
7.192414e-01
6.879478e-01
6.566537e-01
6.253620e-01
5.940724e-01
5.627871e-01
5.314976e-01
5.002861e-01
1.000000e+00
9.689920e-01
9.380261e-01
9.069691e-01
8.825466e-01
8.447756e-01
8.133077e-01
7.820483e-01
7.507500e-01
7.194353e-01
6.881247e-01
6.568139e-01
6.255063e-01
5.942012e-01
5.629011e-01
5.315984e-01
5.003758e-01
1.000000e+00
9.689720e-01
9.379919e-01
9.069357e-01
8.821154e-01
8.447077e-01
8.132599e-01
7.820025e-01
7.507081e-01
7.193970e-01
6.880902e-01
6.567825e-01
6.254771e-01
5.941769e-01
5.628797e-01
5.315793e-01
5.003590e-01
1.000000e+00
9.688591e-01
9.377659e-01
9.066741e-01
8.792975e-01
8.443082e-01
8.129548e-01
7.816993e-01
7.504234e-01
7.191395e-01
6.878557e-01
6.565712e-01
6.252880e-01
5.940079e-01
5.627300e-01
5.314471e-01
5.002417e-01
1.000000e+00
9.687291e-01
9.374679e-01
9.061881e-01
8.749417e-01
8.437391e-01
8.124912e-01
7.812471e-01
7.499990e-01
7.187506e-01
6.875018e-01
6.562529e-01
6.250035e-01
5.937537e-01
5.625037e-01
5.312461e-01
5.000633e-01
1.000000e+00
9.685709e-01
9.371920e-01
9.057373e-01
8.707299e-01
8.432680e-01
8.120168e-01
7.807937e-01
7.495742e-01
7.183620e-01
6.871482e-01
6.559330e-01
6.247166e-01
5.934975e-01
5.622756e-01
5.310436e-01
4.998838e-01
1.000000e+00
9.684634e-01
9.370472e-01
9.054260e-01
8.679347e-01
8.429573e-01
8.117008e-01
7.804959e-01
7.492944e-01
7.181023e-01
6.869124e-01
6.557195e-01
6.245247e-01
5.933260e-01
5.621209e-01
5.309062e-01
4.997615e-01
1.000000e+00
9.684501e-01
9.370353e-01
9.053796e-01
8.674948e-01
8.429172e-01
8.116521e-01
7.804462e-01
7.492457e-01
7.180564e-01
6.868696e-01
6.556814e-01
6.244896e-01
5.932918e-01
5.620896e-01
5.308776e-01
4.997355e-01
1.000000e+00
9.685262e-01
9.371366e-01
9.056193e-01
8.695815e-01
8.431291e-01
8.118801e-01
7.806583e-01
7.494423e-01
7.182375e-01
6.870312e-01
6.558246e-01
6.246160e-01
5.934031e-01
5.621891e-01
5.309644e-01
4.998112e-01
1.000000e+00
9.686738e-01
9.373646e-01
9.060284e-01
8.734544e-01
8.435517e-01
8.123098e-01
7.810651e-01
7.498206e-01
7.185802e-01
6.873399e-01
6.561006e-01
6.248612e-01
5.936216e-01
5.623816e-01
5.311338e-01
4.999603e-01
1.000000e+00
9.688281e-01
9.376730e-01
9.065262e-01
8.779428e-01
8.440985e-01
8.127874e-01
7.815224e-01
7.502467e-01
7.189676e-01
6.876897e-01
6.564135e-01
6.251400e-01
5.938688e-01
5.626002e-01
5.313265e-01
5.001301e-01
1.000000e+00
9.689628e-01
9.379240e-01
9.068374e-01
8.814027e-01
8.445719e-01
8.131533e-01
7.818785e-01
7.505769e-01
7.192687e-01
6.879621e-01
6.566572e-01
6.253562e-01
5.940610e-01
5.627704e-01
5.314768e-01
5.002626e-01
1.000000e+00
9.690062e-01
9.380070e-01
9.069066e-01
8.826690e-01
8.447633e-01
8.132908e-01
7.820152e-01
7.507020e-01
7.193833e-01
6.880663e-01
6.567503e-01
6.254377e-01
5.941337e-01
5.628349e-01
5.315337e-01
5.003129e-01
1.000000e+00
9.683802e-01
9.368876e-01
9.050008e-01
8.649212e-01
8.426457e-01
8.113742e-01
7.801859e-01
7.490003e-01
7.178343e-01
6.866630e-01
6.554980e-01
6.243265e-01
5.931473e-01
5.619621e-01
5.307632e-01
4.996334e-01
1.000000e+00
9.684360e-01
9.369945e-01
9.052242e-01
8.667274e-01
8.428363e-01
8.115552e-01
7.803600e-01
7.491648e-01
7.179856e-01
6.868035e-01
6.556224e-01
6.244373e-01
5.932469e-01
5.620513e-01
5.308438e-01
4.997058e-01
1.000000e+00
9.685681e-01
9.371901e-01
9.057079e-01
8.711262e-01
8.433195e-01
8.120600e-01
7.808320e-01
7.496091e-01
7.183926e-01
6.871758e-01
6.559577e-01
6.247378e-01
5.935161e-01
5.622915e-01
5.310581e-01
4.998938e-01
1.000000e+00
9.687854e-01
9.375861e-01
9.063890e-01
8.768974e-01
8.439867e-01
8.126992e-01
7.814487e-01
7.501879e-01
7.189230e-01
6.876582e-01
6.563929e-01
6.251282e-01
5.938651e-01
5.626023e-01
5.313339e-01
5.001402e-01
1.000000e+00
9.689605e-01
9.379806e-01
9.069463e-01
8.821230e-01
8.447465e-01
8.132546e-01
7.819994e-01
7.507055e-01
7.193957e-01
6.880889e-01
6.567816e-01
6.254771e-01
5.941751e-01
5.628788e-01
5.315784e-01
5.003572e-01
1.000000e+00
9.690914e-01
9.381652e-01
9.071026e-01
8.847962e-01
8.451628e-01
8.135525e-01
7.823012e-01
7.509893e-01
7.196530e-01
6.883217e-01
6.569916e-01
6.256665e-01
5.943447e-01
5.630296e-01
5.317120e-01
5.004736e-01
1.000000e+00
9.690769e-01
9.381338e-01
9.070819e-01
8.842506e-01
8.450766e-01
8.134891e-01
7.822408e-01
7.509306e-01
7.196028e-01
6.882768e-01
6.569508e-01
6.256288e-01
5.943125e-01
5.629999e-01
5.316873e-01
5.004519e-01
1.000000e+00
9.689006e-01
9.378567e-01
9.068096e-01
8.806054e-01
8.445297e-01
8.130953e-01
7.818407e-01
7.505565e-01
7.192624e-01
6.879686e-01
6.566736e-01
6.253803e-01
5.940903e-01
5.628031e-01
5.315129e-01
5.002979e-01
1.000000e+00
9.687213e-01
9.374539e-01
9.061536e-01
8.748947e-01
8.437366e-01
8.124907e-01
7.812481e-01
7.500015e-01
7.187535e-01
6.875050e-01
6.562563e-01
6.250072e-01
5.937578e-01
5.625078e-01
5.312504e-01
5.000669e-01
1.000000e+00
9.685056e-01
9.370998e-01
9.055234e-01
8.694504e-01
8.431515e-01
8.118770e-01
7.806571e-01
7.494469e-01
7.182465e-01
6.870444e-01
6.558399e-01
6.246334e-01
5.934228e-01
5.622096e-01
5.309859e-01
4.998300e-01
1.000000e+00
9.684132e-01
9.369425e-01
9.050954e-01
8.657974e-01
8.427392e-01
8.114614e-01
7.802714e-01
7.490835e-01
7.179123e-01
6.867376e-01
6.555627e-01
6.243846e-01
5.932001e-01
5.620091e-01
5.308073e-01
4.996721e-01
1.000000e+00
9.683893e-01
9.369079e-01
9.050438e-01
8.651350e-01
8.426702e-01
8.114006e-01
7.802079e-01
7.490242e-01
7.178523e-01
6.866812e-01
6.555122e-01
6.243386e-01
5.931573e-01
5.619697e-01
5.307698e-01
4.996376e-01
1.000000e+00
9.684606e-01
9.370504e-01
9.054049e-01
8.679558e-01
8.429637e-01
8.116938e-01
7.804829e-01
7.492781e-01
7.180839e-01
6.868918e-01
6.556987e-01
6.245026e-01
5.933010e-01
5.620976e-01
5.308819e-01
4.997382e-01
1.000000e+00
9.686444e-01
9.373110e-01
9.059234e-01
8.729753e-01
8.435018e-01
8.122526e-01
7.810107e-01
7.497680e-01
7.185310e-01
6.872938e-01
6.560578e-01
6.248216e-01
5.935852e-01
5.623483e-01
5.311037e-01
4.999321e-01
1.000000e+00
9.688459e-01
9.377199e-01
9.066133e-01
8.788410e-01
8.442280e-01
8.128748e-01
7.816090e-01
7.503255e-01
7.190369e-01
6.877508e-01
6.564666e-01
6.251859e-01
5.939083e-01
5.626341e-01
5.313555e-01
5.001546e-01
1.000000e+00
9.690454e-01
9.380697e-01
9.070052e-01
8.833498e-01
8.448866e-01
8.133493e-01
7.820783e-01