<?xml version="1.0"?>
<VTKFile type="StructuredGrid" version="0.1">
  <StructuredGrid WholeExtent="16 32 0 16 0 16">
    <Piece Extent="16 32 0 16 0 16">
      <PointData Scalars="temperature" Vectors="velocity">
        <DataArray type="Float32" Name="temperature" format="ascii">
5.002019e-01
4.688479e-01
4.375927e-01
4.063301e-01
3.750688e-01
3.438087e-01
3.125496e-01
2.812911e-01
2.500339e-01
2.187768e-01
1.875206e-01
1.562649e-01
1.250094e-01
9.375436e-02
6.249942e-02
3.124327e-02
0.000000e+00
5.001791e-01
4.688279e-01
4.375752e-01
4.063147e-01
3.750553e-01
3.437970e-01
3.125395e-01
2.812825e-01
2.500265e-01
2.187706e-01
1.875155e-01
1.562607e-01
1.250062e-01
9.375203e-02
6.249794e-02
3.124259e-02
0.000000e+00
5.001184e-01
4.687745e-01
4.375283e-01
4.062736e-01
3.750194e-01
3.437657e-01
3.125124e-01
2.812593e-01
2.500065e-01
2.187539e-01
1.875016e-01
1.562494e-01
1.249975e-01
9.374557e-02
6.249373e-02
3.124051e-02
0.000000e+00
5.000402e-01
4.687056e-01
4.374679e-01
4.062207e-01
3.749731e-01
3.437254e-01
3.124775e-01
2.812295e-01
2.499808e-01
2.187324e-01
1.874837e-01
1.562349e-01
1.249862e-01
9.373726e-02
6.248832e-02
3.123785e-02
0.000000e+00
4.999707e-01
4.686445e-01
4.374142e-01
4.061737e-01
3.749321e-01
3.436897e-01
3.124465e-01
2.812030e-01
2.499579e-01
2.187134e-01
1.874677e-01
1.562220e-01
1.249762e-01
9.372988e-02
6.248351e-02
3.123548e-02
0.000000e+00
4.999333e-01
4.686115e-01
4.373853e-01
4.061483e-01
3.749099e-01
3.436704e-01
3.124298e-01
2.811887e-01
2.499455e-01
2.187030e-01
1.874591e-01
1.562150e-01
1.249708e-01
9.372589e-02
6.248090e-02
3.123419e-02
0.000000e+00
4.999404e-01
4.686178e-01
4.373907e-01
4.061531e-01
3.749140e-01
3.436740e-01
3.124329e-01
2.811913e-01
2.499478e-01
2.187049e-01
1.874607e-01
1.562163e-01
1.249718e-01
9.372662e-02
6.248138e-02
3.123442e-02
0.000000e+00
4.999894e-01
4.686609e-01
4.374285e-01
4.061862e-01
3.749430e-01
3.436992e-01
3.124547e-01
2.812100e-01
2.499639e-01
2.187184e-01
1.874719e-01
1.562253e-01
1.249788e-01
9.373182e-02
6.248477e-02
3.123609e-02
0.000000e+00
5.000639e-01
4.687264e-01
4.374860e-01
4.062365e-01
3.749870e-01
3.437374e-01
3.124879e-01
2.812383e-01
2.499884e-01
2.187388e-01
1.874890e-01
1.562392e-01
1.249896e-01
9.373975e-02
6.248995e-02
3.123864e-02
0.000000e+00
5.001389e-01
4.687924e-01
4.375440e-01
4.062874e-01
3.750315e-01
3.437762e-01
3.125215e-01
2.812671e-01
2.500133e-01
2.187596e-01
1.875063e-01
1.562533e-01
1.250005e-01
9.374779e-02
6.249520e-02
3.124123e-02
0.000000e+00
5.001898e-01
4.688374e-01
4.375835e-01
4.063221e-01
3.750619e-01
3.438027e-01
3.125445e-01
2.812868e-01
2.500304e-01
2.187738e-01
1.875183e-01
1.562630e-01
1.250080e-01
9.375334e-02
6.249882e-02
3.124301e-02
0.000000e+00
5.002003e-01
4.688469e-01
4.375921e-01
4.063298e-01
3.750687e-01
3.438087e-01
3.125499e-01
2.812914e-01
2.500344e-01
2.187772e-01
1.875211e-01
1.562653e-01
1.250098e-01
9.375469e-02
6.249970e-02
3.124345e-02
0.000000e+00
5.001682e-01
4.688190e-01
4.375679e-01
4.063088e-01
3.750505e-01
3.437931e-01
3.125364e-01
2.812800e-01
2.500246e-01
2.187691e-01
1.875144e-01
1.562598e-01
1.250056e-01
9.375157e-02
6.249767e-02
3.124244e-02
0.000000e+00
5.001054e-01
4.687641e-01
4.375200e-01
4.062671e-01
3.750144e-01
3.437618e-01
3.125094e-01
2.812570e-01
2.500048e-01
2.187526e-01
1.875006e-01
1.562487e-01
1.249970e-01
9.374524e-02
6.249355e-02
3.124041e-02
0.000000e+00
5.000341e-01
4.687017e-01
4.374656e-01
4.062196e-01
3.749730e-01
3.437259e-01
3.124785e-01
2.812306e-01
2.499821e-01
2.187337e-01
1.874849e-01
1.562360e-01
1.249871e-01
9.373797e-02
6.248881e-02
3.123808e-02
0.000000e+00
4.999786e-01
4.686531e-01
4.374231e-01
4.061826e-01
3.749407e-01
3.436979e-01
3.124543e-01
2.812100e-01
2.499643e-01
2.187189e-01
1.874726e-01
1.562260e-01
1.249794e-01
9.373228e-02
6.248511e-02
3.123626e-02
0.000000e+00
4.999573e-01
4.686344e-01
4.374068e-01
4.061683e-01
3.749283e-01
3.436872e-01
3.124449e-01
2.812020e-01
2.499574e-01
2.187132e-01
1.874678e-01
1.562220e-01
1.249763e-01
9.372996e-02
6.248354e-02
3.123540e-02
0.000000e+00
5.001918e-01
4.688391e-01
4.375850e-01
4.063233e-01
3.750629e-01
3.438035e-01
3.125452e-01
2.812873e-01
2.500307e-01
2.187741e-01
1.875184e-01
1.562630e-01
1.250080e-01
9.375332e-02
6.249875e-02
3.124293e-02
0.000000e+00
5.001708e-01
4.688206e-01
4.375688e-01
4.063091e-01
3.750504e-01
3.437927e-01
3.125358e-01
2.812793e-01
2.500238e-01
2.187684e-01
1.875136e-01
1.562592e-01
1.250050e-01
9.375117e-02
6.249739e-02
3.124231e-02
0.000000e+00
5.001146e-01
4.687712e-01
4.375254e-01
4.062711e-01
3.750172e-01
3.437638e-01
3.125107e-01
2.812579e-01
2.500053e-01
2.187529e-01
1.875008e-01
1.562488e-01
1.249970e-01
9.374520e-02
6.249351e-02
3.124040e-02
0.000000e+00
5.000424e-01
4.687076e-01
4.374696e-01
4.062222e-01
3.749745e-01
3.437266e-01
3.124785e-01
2.812304e-01
2.499815e-01
2.187331e-01
1.874842e-01
1.562353e-01
1.249866e-01
9.373754e-02
6.248851e-02
3.123794e-02
0.000000e+00
4.999782e-01
4.686511e-01
4.374201e-01
4.061788e-01
3.749366e-01
3.436936e-01
3.124499e-01
2.812059e-01
2.499604e-01
2.187155e-01
1.874695e-01
1.562234e-01
1.249773e-01
9.373072e-02
6.248407e-02
3.123575e-02
0.000000e+00
4.999437e-01
4.686207e-01
4.373934e-01
4.061554e-01
3.749161e-01
3.436759e-01
3.124345e-01
2.811927e-01
2.499490e-01
2.187059e-01
1.874616e-01
1.562170e-01
1.249723e-01
9.372703e-02
6.248166e-02
3.123457e-02
0.000000e+00
4.999502e-01
4.686264e-01
4.373984e-01
4.061598e-01
3.749199e-01
3.436792e-01
3.124374e-01
2.811951e-01
2.499511e-01
2.187077e-01
1.874630e-01
1.562181e-01
1.249732e-01
9.372770e-02
6.248209e-02
3.123478e-02
0.000000e+00
4.999955e-01
4.686662e-01
4.374333e-01
4.061904e-01
3.749466e-01
3.437024e-01
3.124575e-01
2.812123e-01
2.499660e-01
2.187201e-01
1.874734e-01
1.562265e-01
1.249797e-01
9.373250e-02
6.248522e-02
3.123632e-02
0.000000e+00
5.000642e-01
4.687267e-01
4.374863e-01
4.062368e-01
3.749872e-01
3.437377e-01
3.124881e-01
2.812385e-01
2.499886e-01
2.187390e-01
1.874891e-01
1.562393e-01
1.249896e-01
9.373981e-02
6.248999e-02
3.123867e-02
0.000000e+00
5.001335e-01
4.687877e-01
4.375399e-01
4.062838e-01
3.750283e-01
3.437734e-01
3.125191e-01
2.812651e-01
2.500115e-01
2.187581e-01
1.875051e-01
1.562523e-01
1.249997e-01
9.374723e-02
6.249483e-02
3.124105e-02
0.000000e+00
5.001805e-01
4.688292e-01
4.375764e-01
4.063158e-01
3.750564e-01
3.437979e-01
3.125404e-01
2.812833e-01
2.500273e-01
2.187713e-01
1.875161e-01
1.562612e-01
1.250066e-01
9.375235e-02
6.249817e-02
3.124269e-02
0.000000e+00
5.001902e-01
4.688380e-01
4.375843e-01
4.063229e-01
3.750627e-01
3.438035e-01
3.125453e-01
2.812875e-01
2.500310e-01
2.187744e-01
1.875188e-01
1.562634e-01
1.250083e-01
9.375359e-02
6.249897e-02
3.124308e-02
0.000000e+00
5.001606e-01
4.688122e-01
4.375619e-01
4.063035e-01
3.750459e-01
3.437890e-01
3.125329e-01
2.812770e-01
2.500220e-01
2.187669e-01
1.875125e-01
1.562583e-01
1.250044e-01
9.375070e-02
6.249709e-02
3.124215e-02
0.000000e+00
5.001026e-01
4.687615e-01
4.375177e-01
4.062651e-01
3.750125e-01
3.437601e-01
3.125080e-01
2.812558e-01
2.500037e-01
2.187517e-01
1.874998e-01
1.562481e-01
1.249965e-01
9.374485e-02
6.249328e-02
3.124027e-02
0.000000e+00
5.000367e-01
4.687039e-01
4.374674e-01
4.062212e-01
3.749743e-01
3.437270e-01
3.124794e-01
2.812314e-01
2.499827e-01
2.187342e-01
1.874853e-01
1.562363e-01
1.249873e-01
9.373814e-02
6.248890e-02
3.123812e-02
0.000000e+00
4.999853e-01
4.686589e-01
4.374281e-01
4.061869e-01
3.749445e-01
3.437012e-01
3.124570e-01
2.812123e-01
2.499663e-01
2.187206e-01
1.874739e-01
1.562271e-01
1.249802e-01
9.373289e-02
6.248550e-02
3.123645e-02
0.000000e+00
4.999657e-01
4.686417e-01
4.374131e-01
4.061737e-01
3.749330e-01
3.436912e-01
3.124484e-01
2.812049e-01
2.499599e-01
2.187152e-01
1.874695e-01
1.562234e-01
1.249774e-01
9.373074e-02
6.248405e-02
3.123566e-02
0.000000e+00
5.001630e-01
4.688138e-01
4.375628e-01
4.063039e-01
3.750459e-01
3.437888e-01
3.125325e-01
2.812765e-01
2.500213e-01
2.187663e-01
1.875119e-01
1.562578e-01
1.250039e-01
9.375031e-02
6.249680e-02
3.124196e-02
0.000000e+00
5.001469e-01
4.687996e-01
4.375504e-01
4.062930e-01
3.750364e-01
3.437806e-01
3.125253e-01
2.812704e-01
2.500161e-01
2.187619e-01
1.875083e-01
1.562549e-01
1.250017e-01
9.374869e-02
6.249578e-02
3.124152e-02
0.000000e+00
5.001039e-01
4.687617e-01
4.375172e-01
4.062639e-01
3.750110e-01
3.437584e-01
3.125061e-01
2.812540e-01
2.500019e-01
2.187501e-01
1.874984e-01
1.562469e-01
1.249955e-01
9.374412e-02
6.249281e-02
3.124004e-02
0.000000e+00
5.000486e-01
4.687131e-01
4.374745e-01
4.062265e-01
3.749783e-01
3.437300e-01
3.124815e-01
2.812329e-01
2.499837e-01
2.187349e-01
1.874858e-01
1.562366e-01
1.249875e-01
9.373826e-02
6.248899e-02
3.123817e-02
0.000000e+00
4.999995e-01
4.686699e-01
4.374366e-01
4.061934e-01
3.749493e-01
3.437048e-01
3.124596e-01
2.812142e-01
2.499676e-01
2.187214e-01
1.874745e-01
1.562275e-01
1.249805e-01
9.373304e-02
6.248559e-02
3.123650e-02
0.000000e+00
4.999731e-01
4.686467e-01
4.374162e-01
4.061755e-01
3.749337e-01
3.436912e-01
3.124478e-01
2.812041e-01
2.499588e-01
2.187142e-01
1.874684e-01
1.562225e-01
1.249766e-01
9.373022e-02
6.248375e-02
3.123560e-02
0.000000e+00
4.999781e-01
4.686510e-01
4.374200e-01
4.061788e-01
3.749366e-01
3.436937e-01
3.124500e-01
2.812059e-01
2.499604e-01
2.187155e-01
1.874695e-01
1.562234e-01
1.249773e-01
9.373073e-02
6.248407e-02
3.123576e-02
0.000000e+00
5.000127e-01
4.686815e-01
4.374467e-01
4.062022e-01
3.749570e-01
3.437114e-01
3.124653e-01
2.812191e-01
2.499718e-01
2.187249e-01
1.874774e-01
1.562298e-01
1.249823e-01
9.373439e-02
6.248645e-02
3.123693e-02
0.000000e+00
5.000652e-01
4.687277e-01
4.374872e-01
4.062377e-01
3.749880e-01
3.437384e-01
3.124887e-01
2.812391e-01
2.499891e-01
2.187394e-01
1.874895e-01
1.562396e-01
1.249899e-01
9.373998e-02
6.249010e-02
3.123872e-02
0.000000e+00
5.001182e-01
4.687743e-01
4.375281e-01
4.062735e-01
3.750194e-01
3.437657e-01
3.125124e-01
2.812593e-01
2.500066e-01
2.187540e-01
1.875017e-01
1.562495e-01
1.249976e-01
9.374565e-02
6.249379e-02
3.124054e-02
0.000000e+00
5.001541e-01
4.688060e-01
4.375560e-01
4.062980e-01
3.750408e-01
3.437844e-01
3.125287e-01
2.812733e-01
2.500187e-01
2.187641e-01
1.875101e-01
1.562563e-01
1.250028e-01
9.374955e-02
6.249634e-02
3.124178e-02
0.000000e+00
5.001616e-01
4.688127e-01
4.375620e-01
4.063034e-01
3.750456e-01
3.437886e-01
3.125324e-01
2.812765e-01
2.500215e-01
2.187665e-01
1.875121e-01
1.562580e-01
1.250041e-01
9.375049e-02
6.249694e-02
3.124208e-02
0.000000e+00
5.001389e-01
4.687930e-01
4.375449e-01
4.062886e-01
3.750328e-01
3.437776e-01
3.125229e-01
2.812685e-01
2.500146e-01
2.187607e-01
1.875073e-01
1.562541e-01
1.250011e-01
9.374827e-02
6.249550e-02
3.124136e-02
0.000000e+00
5.000945e-01
4.687543e-01
4.375112e-01
4.062592e-01
3.750073e-01
3.437555e-01
3.125039e-01
2.812522e-01
2.500006e-01
2.187491e-01
1.874976e-01
1.562463e-01
1.249950e-01
9.374380e-02
6.249258e-02
3.123993e-02
0.000000e+00
5.000440e-01
4.687101e-01
4.374727e-01
4.062256e-01
3.749781e-01
3.437302e-01
3.124820e-01
2.812336e-01
2.499845e-01
2.187357e-01
1.874865e-01
1.562372e-01
1.249881e-01
9.373866e-02
6.248923e-02
3.123828e-02
0.000000e+00
5.000047e-01
4.686756e-01
4.374426e-01
4.061994e-01
3.749552e-01
3.437104e-01
3.124649e-01
2.812190e-01
2.499720e-01
2.187252e-01
1.874778e-01
1.562302e-01
1.249826e-01
9.373465e-02
6.248664e-02
3.123701e-02
0.000000e+00
4.999896e-01
4.686624e-01
4.374310e-01
4.061892e-01
3.749463e-01
3.437027e-01
3.124582e-01
2.812133e-01
2.499670e-01
2.187211e-01
1.874743e-01
1.562274e-01
1.249804e-01
9.373298e-02
6.248550e-02
3.123638e-02
0.000000e+00
5.001197e-01
4.687758e-01
4.375295e-01
4.062748e-01
3.750205e-01
3.437667e-01
3.125133e-01
2.812602e-01
2.500073e-01
2.187546e-01
1.875021e-01
1.562498e-01
1.249978e-01
9.374578e-02
6.249384e-02
3.124051e-02
0.000000e+00
5.001111e-01
4.687681e-01
4.375229e-01
4.062690e-01
3.750154e-01
3.437623e-01
3.125095e-01
2.812569e-01
2.500045e-01
2.187523e-01
1.875002e-01
1.562483e-01
1.249966e-01
9.374494e-02
6.249334e-02
3.124031e-02
0.000000e+00
5.000878e-01
4.687476e-01
4.375049e-01
4.062532e-01
3.750016e-01
3.437503e-01
3.124991e-01
2.812480e-01
2.499968e-01
2.187459e-01
1.874949e-01
1.562440e-01
1.249933e-01
9.374247e-02
6.249172e-02
3.123950e-02
0.000000e+00
5.000578e-01
4.687213e-01
4.374817e-01
4.062329e-01
3.749840e-01
3.437349e-01
3.124858e-01
2.812366e-01
2.499870e-01
2.187376e-01
1.874880e-01
1.562384e-01
1.249890e-01
9.373929e-02
6.248966e-02
3.123848e-02
0.000000e+00
5.000313e-01
4.686979e-01
4.374613e-01
4.062150e-01
3.749683e-01
3.437213e-01
3.124739e-01
2.812265e-01
2.499782e-01
2.187303e-01
1.874819e-01
1.562335e-01
1.249851e-01
9.373647e-02
6.248781e-02
3.123758e-02
0.000000e+00
5.000170e-01
4.686853e-01
4.374502e-01
4.062053e-01
3.749598e-01
3.437139e-01
3.124676e-01
2.812210e-01
2.499735e-01
2.187264e-01
1.874786e-01
1.562308e-01
1.249831e-01
9.373495e-02
6.248681e-02
3.123709e-02
0.000000e+00
5.000196e-01
4.686877e-01
4.374523e-01
4.062071e-01
3.749614e-01
3.437153e-01
3.124687e-01
2.812220e-01
2.499743e-01
2.187271e-01
1.874792e-01
1.562313e-01
1.249834e-01
9.373522e-02
6.248699e-02
3.123718e-02
0.000000e+00
5.000383e-01
4.687041e-01
4.374667e-01
4.062197e-01
3.749724e-01
3.437248e-01
3.124770e-01
2.812291e-01
2.499805e-01
2.187322e-01
1.874835e-01
1.562347e-01
1.249861e-01
9.373720e-02
6.248828e-02
3.123782e-02
0.000000e+00
5.000667e-01
4.687291e-01
4.374886e-01
4.062389e-01
3.749891e-01
3.437394e-01
3.124897e-01
2.812399e-01
2.499898e-01
2.187400e-01
1.874900e-01
1.562400e-01
1.249902e-01
9.374022e-02
6.249026e-02
3.123880e-02
0.000000e+00
5.000954e-01
4.687543e-01
4.375107e-01
4.062583e-01
3.750061e-01
3.437541e-01
3.125024e-01
2.812508e-01
2.499993e-01
2.187479e-01
1.874966e-01
1.562454e-01
1.249944e-01
9.374329e-02
6.249226e-02
3.123978e-02
0.000000e+00
5.001148e-01
4.687714e-01
4.375257e-01
4.062715e-01
3.750176e-01
3.437642e-01
3.125112e-01
2.812584e-01
2.500058e-01
2.187533e-01
1.875011e-01
1.562491e-01
1.249972e-01
9.374539e-02
6.249364e-02
3.124046e-02
0.000000e+00
5.001188e-01
4.687751e-01
4.375290e-01
4.062744e-01
3.750202e-01
3.437665e-01
3.125132e-01
2.812601e-01
2.500073e-01
2.187546e-01
1.875022e-01
1.562499e-01
1.249979e-01
9.374589e-02
6.249396e-02
3.124062e-02
0.000000e+00
5.001065e-01
4.687644e-01
4.375197e-01
4.062664e-01
3.750133e-01
3.437605e-01
3.125081e-01
2.812557e-01
2.500036e-01
2.187515e-01
1.874996e-01
1.562478e-01
1.249963e-01
9.374469e-02
6.249318e-02
3.124023e-02
0.000000e+00
5.000825e-01
4.687434e-01
4.375014e-01
4.062505e-01
3.749995e-01
3.437486e-01
3.124978e-01
2.812469e-01
2.499960e-01
2.187452e-01
1.874944e-01
1.562436e-01
1.249930e-01
9.374227e-02
6.249160e-02
3.123945e-02
0.000000e+00
5.000551e-01
4.687195e-01
4.374806e-01
4.062323e-01
3.749837e-01
3.437349e-01
3.124859e-01
2.812368e-01
2.499873e-01
2.187379e-01
1.874883e-01
1.562387e-01
1.249892e-01
9.373949e-02
6.248978e-02
3.123856e-02
0.000000e+00
5.000338e-01
4.687008e-01
4.374643e-01
4.062181e-01
3.749713e-01
3.437242e-01
3.124767e-01
2.812289e-01
2.499805e-01
2.187323e-01
1.874836e-01
1.562349e-01
1.249863e-01
9.373733e-02
6.248838e-02
3.123787e-02
0.000000e+00
5.000255e-01
4.686935e-01
4.374579e-01
4.062125e-01
3.749664e-01
3.437199e-01
3.124730e-01
2.812258e-01
2.499777e-01
2.187300e-01
1.874817e-01
1.562333e-01
1.249850e-01
9.373635e-02
6.248769e-02
3.123745e-02
0.000000e+00
5.000686e-01
4.687308e-01
4.374902e-01
4.062404e-01
3.749905e-01
3.437407e-01
3.124908e-01
2.812409e-01
2.499906e-01
2.187407e-01
1.874906e-01
1.562405e-01
1.249905e-01
9.374043e-02
6.249036e-02
3.123879e-02
0.000000e+00
5.000687e-01
4.687309e-01
4.374903e-01
4.062405e-01
3.749906e-01
3.437407e-01
3.124908e-01
2.812410e-01
2.499907e-01
2.187408e-01
1.874907e-01
1.562406e-01
1.249906e-01
9.374053e-02
6.249046e-02
3.123889e-02
0.000000e+00
5.000686e-01
4.687309e-01
4.374903e-01
4.062404e-01
3.749906e-01
3.437407e-01
3.124908e-01
2.812409e-01
2.499907e-01
2.187408e-01
1.874907e-01
1.562406e-01
1.249906e-01
9.374052e-02
6.249045e-02
3.123888e-02
0.000000e+00
5.000686e-01
4.687308e-01
4.374902e-01
4.062404e-01
3.749905e-01
3.437407e-01
3.124908e-01
2.812409e-01
2.499907e-01
2.187408e-01
1.874907e-01
1.562406e-01
1.249906e-01
9.374052e-02
6.249045e-02
3.123887e-02
0.000000e+00
5.000686e-01
4.687308e-01
4.374902e-01
4.062404e-01
3.749905e-01
3.437407e-01
3.124908e-01
2.812409e-01
2.499907e-01
2.187408e-01
1.874906e-01
1.562406e-01
1.249906e-01
9.374052e-02
6.249045e-02
3.123887e-02
0.000000e+00
5.000685e-01
4.687308e-01
4.374902e-01
4.062404e-01
3.749905e-01
3.437407e-01
3.124908e-01
2.812409e-01
2.499907e-01
2.187408e-01
1.874906e-01
1.562406e-01
1.249906e-01
9.374052e-02
6.249045e-02
3.123887e-02
0.000000e+00
5.000685e-01
4.687308e-01
4.374901e-01
4.062404e-01
3.749905e-01
3.437406e-01
3.124908e-01
2.812409e-01
2.499907e-01
2.187408e-01
1.874906e-01
1.562406e-01
1.249906e-01
9.374052e-02
6.249045e-02
3.123888e-02
0.000000e+00
5.000685e-01
4.687308e-01
4.374901e-01
4.062403e-01
3.749905e-01
3.437406e-01
3.124908e-01
2.812409e-01
2.499907e-01
2.187407e-01
1.874906e-01
1.562405e-01
1.249906e-01
9.374052e-02
6.249045e-02
3.123888e-02
0.000000e+00
5.000685e-01
4.687308e-01
4.374901e-01
4.062403e-01
3.749905e-01
3.437406e-01
3.124907e-01
2.812409e-01
2.499907e-01
2.187407e-01
1.874906e-01
1.562405e-01
1.249906e-01
9.374051e-02
6.249045e-02
3.123889e-02
0.000000e+00
5.000685e-01
4.687308e-01
4.374901e-01
4.062403e-01
3.749905e-01
3.437406e-01
3.124907e-01
2.812408e-01
2.499906e-01
2.187407e-01
1.874906e-01
1.562405e-01
1.249906e-01
9.374051e-02
6.249045e-02
3.123889e-02
0.000000e+00
5.000685e-01
4.687308e-01
4.374901e-01
4.062403e-01
3.749904e-01
3.437406e-01
3.124907e-01
2.812408e-01
2.499906e-01
2.187407e-01
1.874906e-01
1.562405e-01
1.249906e-01
9.374050e-02
6.249045e-02
3.123889e-02
0.000000e+00
5.000685e-01
4.687308e-01
4.374901e-01
4.062403e-01
3.749904e-01
3.437406e-01
3.124907e-01
2.812408e-01
2.499906e-01
2.187407e-01
1.874906e-01
1.562405e-01
1.249906e-01
9.374049e-02
6.249044e-02
3.123889e-02
0.000000e+00
5.000685e-01
4.687307e-01
4.374901e-01
4.062403e-01
3.749904e-01
3.437406e-01
3.124907e-01
2.812408e-01
2.499906e-01
2.187407e-01
1.874906e-01
1.562405e-01
1.249906e-01
9.374049e-02
6.249044e-02
3.123889e-02
0.000000e+00
5.000684e-01
4.687307e-01
4.374900e-01
4.062403e-01
3.749904e-01
3.437405e-01
3.124907e-01
2.812408e-01
2.499906e-01
2.187406e-01
1.874906e-01
1.562405e-01
1.249906e-01
9.374049e-02
6.249044e-02
3.123889e-02
0.000000e+00
5.000683e-01
4.687306e-01
4.374900e-01
4.062402e-01
3.749903e-01
3.437405e-01
3.124906e-01
2.812408e-01
2.499906e-01
2.187406e-01
1.874906e-01
1.562405e-01
1.249906e-01
9.374049e-02
6.249044e-02
3.123889e-02
0.000000e+00
5.000683e-01
4.687306e-01
4.374899e-01
4.062402e-01
3.749903e-01
3.437405e-01
3.124906e-01
2.812407e-01
2.499906e-01
2.187406e-01
1.874906e-01
1.562405e-01
1.249906e-01
9.374050e-02
6.249045e-02
3.123889e-02
0.000000e+00
5.000681e-01
4.687304e-01
4.374898e-01
4.062400e-01
3.749902e-01
3.437403e-01
3.124905e-01
2.812406e-01
2.499904e-01
2.187405e-01
1.874904e-01
1.562403e-01
1.249904e-01
9.374035e-02
6.249030e-02
3.123874e-02
0.000000e+00
5.000175e-01
4.686860e-01
4.374509e-01
4.062060e-01
3.749605e-01
3.437146e-01
3.124682e-01
2.812216e-01
2.499740e-01
2.187268e-01
1.874790e-01
1.562311e-01
1.249833e-01
9.373510e-02
6.248689e-02
3.123708e-02
0.000000e+00
5.000263e-01
4.686937e-01
4.374577e-01
4.062120e-01
3.749658e-01
3.437192e-01
3.124722e-01
2.812250e-01
2.499770e-01
2.187293e-01
1.874811e-01
1.562328e-01
1.249846e-01
9.373613e-02
6.248759e-02
3.123748e-02
0.000000e+00
5.000495e-01
4.687141e-01
4.374756e-01
4.062277e-01
3.749795e-01
3.437311e-01
3.124825e-01
2.812339e-01
2.499846e-01
2.187357e-01
1.874864e-01
1.562372e-01
1.249880e-01
9.373859e-02
6.248920e-02
3.123826e-02
0.000000e+00
5.000793e-01
4.687404e-01
4.374986e-01
4.062479e-01
3.749971e-01
3.437464e-01
3.124958e-01
2.812453e-01
2.499945e-01
2.187439e-01
1.874933e-01
1.562427e-01
1.249923e-01
9.374177e-02
6.249127e-02
3.123928e-02
0.000000e+00
5.001058e-01
4.687636e-01
4.375191e-01
4.062657e-01
3.750127e-01
3.437600e-01
3.125076e-01
2.812554e-01
2.500032e-01
2.187512e-01
1.874994e-01
1.562477e-01
1.249961e-01
9.374459e-02
6.249312e-02
3.124019e-02
0.000000e+00
5.001200e-01
4.687762e-01
4.375301e-01
4.062754e-01
3.750211e-01
3.437673e-01
3.125140e-01
2.812608e-01
2.500079e-01
2.187552e-01
1.875027e-01
1.562503e-01
1.249982e-01
9.374613e-02
6.249412e-02
3.124069e-02
0.000000e+00
5.001173e-01
4.687738e-01
4.375280e-01
4.062736e-01
3.750196e-01
3.437660e-01
3.125128e-01
2.812598e-01
2.500070e-01
2.187544e-01
1.875021e-01
1.562498e-01
1.249978e-01
9.374584e-02
6.249394e-02
3.124060e-02
0.000000e+00
5.000986e-01
4.687574e-01
4.375136e-01
4.062610e-01
3.750086e-01
3.437564e-01
3.125045e-01
2.812527e-01
2.500009e-01
2.187493e-01
1.874978e-01
1.562464e-01
1.249951e-01
9.374385e-02
6.249263e-02
3.123996e-02
0.000000e+00
5.000703e-01
4.687324e-01
4.374917e-01
4.062418e-01
3.749918e-01
3.437418e-01
3.124918e-01
2.812418e-01
2.499915e-01
2.187415e-01
1.874912e-01
1.562410e-01
1.249910e-01
9.374081e-02
6.249064e-02
3.123898e-02
0.000000e+00
5.000417e-01
4.687073e-01
4.374696e-01
4.062224e-01
3.749749e-01
3.437271e-01
3.124790e-01
2.812308e-01
2.499820e-01
2.187335e-01
1.874846e-01
1.562356e-01
1.249868e-01
9.373772e-02
6.248863e-02
3.123799e-02
0.000000e+00
5.000224e-01
4.686902e-01
4.374546e-01
4.062092e-01
3.749633e-01
3.437170e-01
3.124702e-01
2.812233e-01
2.499755e-01
2.187281e-01
1.874800e-01
1.562319e-01
1.249839e-01
9.373559e-02
6.248724e-02
3.123730e-02
0.000000e+00
5.000183e-01
4.686866e-01
4.374513e-01
4.062063e-01
3.749607e-01
3.437147e-01
3.124682e-01
2.812215e-01
2.499739e-01
2.187267e-01
1.874789e-01
1.562310e-01
1.249832e-01
9.373508e-02
6.248690e-02
3.123714e-02
0.000000e+00
5.000306e-01
4.686972e-01
4.374605e-01
4.062143e-01
3.749676e-01
3.437206e-01
3.124733e-01
2.812259e-01
2.499777e-01
2.187298e-01
1.874815e-01
1.562331e-01
1.249849e-01
9.373627e-02
6.248768e-02
3.123753e-02
0.000000e+00
5.000544e-01
4.687181e-01
4.374787e-01
4.062301e-01
3.749813e-01
3.437325e-01
3.124836e-01
2.812346e-01
2.499852e-01
2.187361e-01
1.874868e-01
1.562374e-01
1.249881e-01
9.373870e-02
6.248926e-02
3.123831e-02
0.000000e+00
5.000816e-01
4.687419e-01
4.374994e-01
4.062482e-01
3.749971e-01
3.437462e-01
3.124954e-01
2.812447e-01
2.499939e-01
2.187433e-01
1.874928e-01
1.562423e-01
1.249919e-01
9.374148e-02
6.249108e-02
3.123920e-02
0.000000e+00
5.001028e-01
4.687604e-01
4.375157e-01
4.062623e-01
3.750094e-01
3.437569e-01
3.125046e-01
2.812526e-01
2.500007e-01
2.187490e-01
1.874975e-01
1.562461e-01
1.249949e-01
9.374368e-02
6.249251e-02
3.123991e-02
0.000000e+00
5.001106e-01
4.687673e-01
4.375217e-01
4.062676e-01
3.750139e-01
3.437608e-01
3.125080e-01
2.812554e-01
2.500031e-01
2.187510e-01
1.874991e-01
1.562474e-01
1.249959e-01
9.374435e-02
6.249290e-02
3.124001e-02
0.000000e+00
4.999742e-01
4.686479e-01
4.374176e-01
4.061769e-01
3.749351e-01
3.436925e-01
3.124491e-01
2.812053e-01
2.499599e-01
2.187151e-01
1.874692e-01
1.562232e-01
1.249772e-01
9.373060e-02
6.248395e-02
3.123563e-02
0.000000e+00
4.999905e-01
4.686623e-01
4.374302e-01
4.061879e-01
3.749448e-01
3.437009e-01
3.124564e-01
2.812115e-01
2.499654e-01
2.187197e-01
1.874730e-01
1.562263e-01
1.249796e-01
9.373241e-02
6.248517e-02
3.123628e-02
0.000000e+00
5.000333e-01
4.686999e-01
4.374632e-01
4.062169e-01
3.749701e-01
3.437230e-01
3.124755e-01
2.812279e-01
2.499795e-01
2.187315e-01
1.874829e-01
1.562343e-01
1.249858e-01
9.373696e-02
6.248814e-02
3.123774e-02
0.000000e+00
5.000884e-01
4.687484e-01
4.375058e-01
4.062542e-01
3.750027e-01
3.437513e-01
3.125001e-01
2.812489e-01
2.499977e-01
2.187466e-01
1.874956e-01
1.562446e-01
1.249937e-01
9.374284e-02
6.249197e-02
3.123962e-02
0.000000e+00
5.001373e-01
4.687915e-01
4.375435e-01
4.062872e-01
3.750316e-01
3.437764e-01
3.125219e-01
2.812676e-01
2.500138e-01
2.187601e-01
1.875068e-01
1.562537e-01
1.250008e-01
9.374807e-02
6.249538e-02
3.124131e-02
0.000000e+00
5.001636e-01
4.688146e-01
4.375639e-01
4.063050e-01
3.750471e-01
3.437900e-01
3.125337e-01
2.812777e-01
2.500226e-01
2.187674e-01
1.875129e-01
1.562587e-01
1.250047e-01
9.375090e-02
6.249724e-02
3.124222e-02
0.000000e+00
5.001587e-01
4.688103e-01
4.375601e-01
4.063017e-01
3.750442e-01
3.437874e-01
3.125315e-01
2.812758e-01
2.500209e-01
2.187660e-01
1.875118e-01
1.562577e-01
1.250040e-01
9.375038e-02
6.249690e-02
3.124206e-02
0.000000e+00
5.001242e-01
4.687799e-01
4.375335e-01
4.062784e-01
3.750239e-01
3.437698e-01
3.125161e-01
2.812627e-01
2.500096e-01
2.187565e-01
1.875038e-01
1.562513e-01
1.249990e-01
9.374669e-02
6.249449e-02
3.124087e-02
0.000000e+00
5.000718e-01
4.687339e-01
4.374930e-01
4.062430e-01
3.749929e-01
3.437429e-01
3.124928e-01
2.812426e-01
2.499922e-01
2.187421e-01
1.874918e-01
1.562415e-01
1.249913e-01
9.374106e-02
6.249081e-02
3.123906e-02
0.000000e+00
5.000190e-01
4.686874e-01
4.374523e-01
4.062073e-01
3.749617e-01
3.437156e-01
3.124691e-01
2.812224e-01
2.499747e-01
2.187274e-01
1.874795e-01
1.562315e-01
1.249836e-01
9.373536e-02
6.248708e-02
3.123722e-02
0.000000e+00
4.999833e-01
4.686559e-01
4.374245e-01
4.061829e-01
3.749403e-01
3.436970e-01
3.124529e-01
2.812084e-01
2.499626e-01
2.187173e-01
1.874711e-01
1.562247e-01
1.249783e-01
9.373142e-02
6.248451e-02
3.123596e-02
0.000000e+00
4.999759e-01
4.686492e-01
4.374185e-01
4.061775e-01
3.749355e-01
3.436928e-01
3.124491e-01
2.812052e-01
2.499598e-01
2.187149e-01
1.874690e-01
1.562230e-01
1.249770e-01
9.373047e-02
6.248389e-02
3.123565e-02
0.000000e+00
4.999985e-01
4.686688e-01
4.374355e-01
4.061922e-01
3.749482e-01
3.437037e-01
3.124586e-01
2.812132e-01
2.499667e-01
2.187206e-01
1.874738e-01
1.562269e-01
1.249800e-01
9.373268e-02
6.248533e-02
3.123637e-02
0.000000e+00
5.000426e-01
4.687074e-01
4.374691e-01
4.062215e-01
3.749737e-01
3.437257e-01
3.124776e-01
2.812294e-01
2.499807e-01
2.187323e-01
1.874835e-01
1.562347e-01
1.249861e-01
9.373717e-02
6.248826e-02
3.123782e-02
0.000000e+00
5.000929e-01
4.687514e-01
4.375075e-01
4.062550e-01
3.750028e-01
3.437510e-01
3.124994e-01
2.812480e-01
2.499967e-01
2.187456e-01
1.874946e-01
1.562437e-01
1.249931e-01
9.374232e-02
6.249162e-02
3.123947e-02
0.000000e+00
5.001320e-01
4.687857e-01
4.375375e-01
4.062811e-01
3.750256e-01
3.437707e-01
3.125165e-01
2.812626e-01
2.500093e-01
2.187561e-01
1.875034e-01
1.562508e-01
1.249985e-01
9.374635e-02
6.249426e-02
3.124077e-02
0.000000e+00
5.001467e-01
4.687986e-01
4.375487e-01
4.062909e-01
3.750341e-01
3.437781e-01
3.125229e-01
2.812680e-01
2.500139e-01
2.187599e-01
1.875065e-01
1.562534e-01
1.250005e-01
9.374773e-02
6.249509e-02
3.124109e-02
0.000000e+00
4.999453e-01
4.686226e-01
4.373954e-01
4.061575e-01
3.749181e-01
3.436778e-01
3.124363e-01
2.811944e-01
2.499505e-01
2.187073e-01
1.874627e-01
1.562179e-01
1.249731e-01
9.372759e-02
6.248199e-02
3.123466e-02
0.000000e+00
4.999665e-01
4.686412e-01
4.374118e-01
4.061718e-01
3.749307e-01
3.436887e-01
3.124459e-01
2.812025e-01
2.499576e-01
2.187132e-01
1.874677e-01
1.562220e-01
1.249762e-01
9.372993e-02
6.248355e-02
3.123549e-02
0.000000e+00
5.000225e-01
4.686905e-01
4.374550e-01
4.062097e-01
3.749638e-01
3.437175e-01
3.124709e-01
2.812239e-01
2.499761e-01
2.187286e-01
1.874805e-01
1.562324e-01
1.249843e-01
9.373588e-02
6.248743e-02
3.123739e-02
0.000000e+00
5.000945e-01
4.687538e-01
4.375106e-01
4.062584e-01
3.750064e-01
3.437546e-01
3.125030e-01
2.812514e-01
2.499999e-01
2.187485e-01
1.874971e-01
1.562458e-01
1.249947e-01
9.374356e-02
6.249243e-02
3.123985e-02
0.000000e+00
5.001584e-01
4.688101e-01
4.375599e-01
4.063016e-01
3.750442e-01
3.437874e-01
3.125315e-01
2.812758e-01
2.500210e-01
2.187661e-01
1.875118e-01
1.562578e-01
1.250040e-01
9.375039e-02
6.249690e-02
3.124205e-02
0.000000e+00
5.001928e-01
4.688403e-01
4.375865e-01
4.063249e-01
3.750645e-01
3.438051e-01
3.125469e-01
2.812890e-01
2.500323e-01
2.187756e-01
1.875198e-01
1.562642e-01
1.250090e-01
9.375409e-02
6.249932e-02
3.124325e-02
0.000000e+00
5.001863e-01
4.688346e-01
4.375815e-01
4.063205e-01
3.750607e-01
3.438018e-01
3.125440e-01
2.812865e-01
2.500302e-01
2.187738e-01
1.875183e-01
1.562630e-01
1.250081e-01
9.375341e-02
6.249889e-02
3.124304e-02
0.000000e+00
5.001412e-01
4.687950e-01
4.375467e-01
4.062901e-01
3.750341e-01
3.437787e-01
3.125239e-01
2.812694e-01
2.500154e-01
2.187614e-01
1.875079e-01
1.562546e-01
1.250015e-01
9.374858e-02
6.249573e-02
3.124148e-02
0.000000e+00
5.000728e-01
4.687348e-01
4.374939e-01
4.062439e-01
3.749937e-01
3.437435e-01
3.124934e-01
2.812432e-01
2.499927e-01
2.187425e-01
1.874921e-01
1.562418e-01
1.249916e-01
9.374123e-02
6.249092e-02
3.123911e-02
0.000000e+00
5.000039e-01
4.686742e-01
4.374407e-01
4.061971e-01
3.749529e-01
3.437080e-01
3.124625e-01
2.812167e-01
2.499698e-01
2.187234e-01
1.874761e-01
1.562288e-01
1.249815e-01
9.373377e-02
6.248604e-02
3.123671e-02
0.000000e+00
4.999572e-01
4.686329e-01
4.374044e-01
4.061653e-01
3.749249e-01
3.436837e-01
3.124413e-01
2.811985e-01
2.499540e-01
2.187102e-01
1.874651e-01
1.562198e-01
1.249745e-01
9.372863e-02
6.248268e-02
3.123505e-02
0.000000e+00
4.999475e-01
4.686242e-01
4.373965e-01
4.061582e-01
3.749187e-01
3.436781e-01
3.124364e-01
2.811942e-01
2.499503e-01
2.187070e-01
1.874624e-01
1.562176e-01
1.249728e-01
9.372739e-02
6.248187e-02
3.123466e-02
0.000000e+00
4.999770e-01
4.686498e-01
4.374188e-01
4.061775e-01
3.749353e-01
3.436925e-01
3.124487e-01
2.812048e-01
2.499593e-01
2.187145e-01
1.874687e-01
1.562227e-01
1.249767e-01
9.373027e-02
6.248376e-02
3.123560e-02
0.000000e+00
5.000347e-01
4.687003e-01
4.374627e-01
4.062158e-01
3.749685e-01
3.437212e-01
3.124736e-01
2.812259e-01
2.499776e-01
2.187297e-01
1.874813e-01
1.562329e-01
1.249847e-01
9.373614e-02
6.248759e-02
3.123749e-02
0.000000e+00
5.001004e-01
4.687577e-01
4.375128e-01
4.062595e-01
3.750066e-01
3.437542e-01
3.125021e-01
2.812503e-01
2.499986e-01
2.187472e-01
1.874959e-01
1.562447e-01
1.249938e-01
9.374287e-02
6.249198e-02
3.123965e-02
0.000000e+00
5.001516e-01
4.688026e-01
4.375521e-01
4.062937e-01
3.750364e-01
3.437800e-01
3.125244e-01
2.812693e-01