<?xml version="1.0"?>
<VTKFile type="StructuredGrid" version="0.1">
  <StructuredGrid WholeExtent="0 16 0 16 0 16">
    <Piece Extent="0 16 0 16 0 16">
      <PointData Scalars="temperature" Vectors="velocity">
        <DataArray type="Float32" Name="temperature" format="ascii">
1.000000e+00
9.688122e-01
9.376208e-01
9.064157e-01
8.851332e-01
8.440345e-01
8.126996e-01
7.814440e-01
7.501786e-01
7.189103e-01
6.876425e-01
6.563754e-01
6.251096e-01
5.938452e-01
5.625824e-01
5.313186e-01
5.000814e-01
1.000000e+00
9.688056e-01
9.376067e-01
9.064034e-01
8.834249e-01
8.439804e-01
8.126659e-01
7.814108e-01
7.501480e-01
7.188827e-01
6.876179e-01
6.563536e-01
6.250904e-01
5.938285e-01
5.625679e-01
5.313059e-01
5.000704e-01
1.000000e+00
9.687688e-01
9.375428e-01
9.063243e-01
8.788737e-01
8.438474e-01
8.125751e-01
7.813224e-01
7.500664e-01
7.188092e-01
6.875523e-01
6.562957e-01
6.250396e-01
5.937841e-01
5.625292e-01
5.312724e-01
5.000413e-01
1.000000e+00
9.687271e-01
9.374643e-01
9.061926e-01
8.730151e-01
8.436998e-01
8.124562e-01
7.812086e-01
7.499613e-01
7.187148e-01
6.874681e-01
6.562213e-01
6.249743e-01
5.937270e-01
5.624795e-01
5.312291e-01
5.000037e-01
1.000000e+00
9.686993e-01
9.374168e-01
9.060814e-01
8.678396e-01
8.435907e-01
8.123491e-01
7.811078e-01
7.498683e-01
7.186311e-01
6.873934e-01
6.561554e-01
6.249164e-01
5.936764e-01
5.624354e-01
5.311908e-01
4.999704e-01
1.000000e+00
9.686796e-01
9.373794e-01
9.060053e-01
8.650578e-01
8.435423e-01
8.122911e-01
7.810539e-01
7.498185e-01
7.185863e-01
6.873534e-01
6.561200e-01
6.248853e-01
5.936492e-01
5.624116e-01
5.311701e-01
4.999524e-01
1.000000e+00
9.686843e-01
9.373896e-01
9.060273e-01
8.656331e-01
8.435520e-01
8.123030e-01
7.810648e-01
7.498286e-01
7.185953e-01
6.873614e-01
6.561270e-01
6.248914e-01
5.936545e-01
5.624162e-01
5.311740e-01
4.999559e-01
1.000000e+00
9.687042e-01
9.374284e-01
9.061203e-01
8.693713e-01
8.436205e-01
8.123804e-01
7.811369e-01
7.498950e-01
7.186549e-01
6.874145e-01
6.561738e-01
6.249325e-01
5.936904e-01
5.624474e-01
5.312012e-01
4.999794e-01
1.000000e+00
9.687417e-01
9.374887e-01
9.062340e-01
8.749895e-01
8.437459e-01
8.124954e-01
7.812457e-01
7.499953e-01
7.187450e-01
6.874948e-01
6.562447e-01
6.249947e-01
5.937447e-01
5.624948e-01
5.312424e-01
5.000152e-01
1.000000e+00
9.687814e-01
9.375685e-01
9.063592e-01
8.806278e-01
8.438949e-01
8.126085e-01
7.813545e-01
7.500957e-01
7.188353e-01
6.875753e-01
6.563158e-01
6.250571e-01
5.937993e-01
5.625424e-01
5.312837e-01
5.000511e-01
1.000000e+00
9.688098e-01
9.376163e-01
9.064141e-01
8.843585e-01
8.440079e-01
8.126824e-01
7.814267e-01
7.501624e-01
7.188954e-01
6.876290e-01
6.563633e-01
6.250990e-01
5.938359e-01
5.625744e-01
5.313116e-01
5.000754e-01
1.000000e+00
9.688108e-01
9.376180e-01
9.064129e-01
8.849373e-01
8.440263e-01
8.126938e-01
7.814383e-01
7.501733e-01
7.189054e-01
6.876383e-01
6.563717e-01
6.251065e-01
5.938427e-01
5.625805e-01
5.313170e-01
5.000802e-01
1.000000e+00
9.687970e-01
9.375901e-01
9.063818e-01
8.821625e-01
8.439403e-01
8.126396e-01
7.813856e-01
7.501252e-01
7.188626e-01
6.876005e-01
6.563387e-01
6.250779e-01
5.938180e-01
5.625591e-01
5.312987e-01
5.000645e-01
1.000000e+00
9.687550e-01
9.375142e-01
9.062802e-01
8.769679e-01
8.437962e-01
8.125369e-01
7.812869e-01
7.500348e-01
7.187820e-01
6.875291e-01
6.562762e-01
6.250234e-01
5.937707e-01
5.625183e-01
5.312635e-01
5.000340e-01
1.000000e+00
9.687145e-01
9.374433e-01
9.061597e-01
8.711163e-01
8.436584e-01
8.124194e-01
7.811758e-01
7.499330e-01
7.186911e-01
6.874486e-01
6.562057e-01
6.249619e-01
5.937173e-01
5.624720e-01
5.312235e-01
4.999995e-01
1.000000e+00
9.686914e-01
9.374003e-01
9.060548e-01
8.665692e-01
8.435705e-01
8.123272e-01
7.810900e-01
7.498543e-01
7.186207e-01
6.873862e-01
6.561508e-01
6.249140e-01
5.936758e-01
5.624360e-01
5.311924e-01
4.999727e-01
1.000000e+00
9.686780e-01
9.373756e-01
9.060001e-01
8.648657e-01
8.435421e-01
8.122924e-01
7.810577e-01
7.498246e-01
7.185941e-01
6.873625e-01
6.561300e-01
6.248958e-01
5.936599e-01
5.624223e-01
5.311805e-01
4.999624e-01
1.000000e+00
9.688074e-01
9.376113e-01
9.064058e-01
8.843616e-01
8.440099e-01
8.126843e-01
7.814289e-01
7.501647e-01
7.188977e-01
6.876313e-01
6.563655e-01
6.251010e-01
5.938378e-01
5.625760e-01
5.313130e-01
5.000766e-01
1.000000e+00
9.688006e-01
9.375975e-01
9.063921e-01
8.827823e-01
8.439608e-01
8.126531e-01
7.813982e-01
7.501364e-01
7.188722e-01
6.876085e-01
6.563454e-01
6.250833e-01
5.938223e-01
5.625625e-01
5.313013e-01
5.000664e-01
1.000000e+00
9.687675e-01
9.375399e-01
9.063190e-01
8.785782e-01
8.438394e-01
8.125691e-01
7.813165e-01
7.500610e-01
7.188044e-01
6.875480e-01
6.562919e-01
6.250363e-01
5.937813e-01
5.625268e-01
5.312703e-01
5.000395e-01
1.000000e+00
9.687289e-01
9.374675e-01
9.061999e-01
8.731659e-01
8.437034e-01
8.124593e-01
7.812114e-01
7.499640e-01
7.187171e-01
6.874702e-01
6.562232e-01
6.249760e-01
5.937285e-01
5.624808e-01
5.312303e-01
5.000048e-01
1.000000e+00
9.687033e-01
9.374219e-01
9.060965e-01
8.683802e-01
8.436015e-01
8.123605e-01
7.811183e-01
7.498781e-01
7.186399e-01
6.874013e-01
6.561623e-01
6.249225e-01
5.936817e-01
5.624400e-01
5.311948e-01
4.999740e-01
1.000000e+00
9.686844e-01
9.373872e-01
9.060260e-01
8.658142e-01
8.435552e-01
8.123070e-01
7.810685e-01
7.498321e-01
7.185985e-01
6.873643e-01
6.561296e-01
6.248937e-01
5.936566e-01
5.624180e-01
5.311757e-01
4.999574e-01
1.000000e+00
9.686886e-01
9.373966e-01
9.060433e-01
8.663459e-01
8.435645e-01
8.123180e-01
7.810787e-01
7.498414e-01
7.186068e-01
6.873717e-01
6.561360e-01
6.248993e-01
5.936614e-01
5.624223e-01
5.311794e-01
4.999606e-01
1.000000e+00
9.687086e-01
9.374352e-01
9.061304e-01
8.697974e-01
8.436294e-01
8.123894e-01
7.811453e-01
7.499027e-01
7.186619e-01
6.874207e-01
6.561794e-01
6.249373e-01
5.936946e-01
5.624512e-01
5.312045e-01
4.999823e-01
1.000000e+00
9.687420e-01
9.374896e-01
9.062373e-01
8.749907e-01
8.437461e-01
8.124956e-01
7.812457e-01
7.499954e-01
7.187452e-01
6.874950e-01
6.562449e-01
6.249949e-01
5.937449e-01
5.624949e-01
5.312425e-01
5.000153e-01
1.000000e+00
9.687796e-01
9.375640e-01
9.063499e-01
8.801985e-01
8.438828e-01
8.126000e-01
7.813462e-01
7.500881e-01
7.188285e-01
6.875694e-01
6.563106e-01
6.250526e-01
5.937953e-01
5.625389e-01
5.312807e-01
5.000485e-01
1.000000e+00
9.688043e-01
9.376062e-01
9.064007e-01
8.836461e-01
8.439856e-01
8.126684e-01
7.814130e-01
7.501498e-01
7.188841e-01
6.876190e-01
6.563545e-01
6.250912e-01
5.938292e-01
5.625685e-01
5.313065e-01
5.000709e-01
1.000000e+00
9.688059e-01
9.376085e-01
9.064030e-01
8.841804e-01
8.440024e-01
8.126790e-01
7.814237e-01
7.501599e-01
7.188934e-01
6.876275e-01
6.563623e-01
6.250982e-01
5.938355e-01
5.625741e-01
5.313115e-01
5.000754e-01
1.000000e+00
9.687926e-01
9.375820e-01
9.063718e-01
8.816158e-01
8.439243e-01
8.126288e-01
7.813750e-01
7.501154e-01
7.188538e-01
6.875926e-01
6.563318e-01
6.250718e-01
5.938126e-01
5.625544e-01
5.312946e-01
5.000609e-01
1.000000e+00
9.687546e-01
9.375136e-01
9.062791e-01
8.768181e-01
8.437923e-01
8.125339e-01
7.812838e-01
7.500319e-01
7.187793e-01
6.875267e-01
6.562740e-01
6.250214e-01
5.937690e-01
5.625167e-01
5.312620e-01
5.000327e-01
1.000000e+00
9.687177e-01
9.374489e-01
9.061669e-01
8.714109e-01
8.436648e-01
8.124254e-01
7.811812e-01
7.499379e-01
7.186954e-01
6.874524e-01
6.562088e-01
6.249646e-01
5.937196e-01
5.624739e-01
5.312251e-01
5.000008e-01
1.000000e+00
9.686952e-01
9.374070e-01
9.060691e-01
8.672106e-01
8.435820e-01
8.123403e-01
7.811019e-01
7.498651e-01
7.186304e-01
6.873947e-01
6.561582e-01
6.249204e-01
5.936812e-01
5.624406e-01
5.311963e-01
4.999760e-01
1.000000e+00
9.686831e-01
9.373848e-01
9.060217e-01
8.656365e-01
8.435549e-01
8.123082e-01
7.810721e-01
7.498377e-01
7.186057e-01
6.873728e-01
6.561389e-01
6.249035e-01
5.936666e-01
5.624280e-01
5.311854e-01
4.999665e-01
1.000000e+00
9.687940e-01
9.375879e-01
9.063743e-01
8.821637e-01
8.439419e-01
8.126406e-01
7.813859e-01
7.501251e-01
7.188621e-01
6.875996e-01
6.563376e-01
6.250765e-01
5.938165e-01
5.625575e-01
5.312970e-01
5.000627e-01
1.000000e+00
9.687854e-01
9.375719e-01
9.063581e-01
8.809546e-01
8.439063e-01
8.126166e-01
7.813625e-01
7.501035e-01
7.188426e-01
6.875822e-01
6.563222e-01
6.250630e-01
5.938046e-01
5.625472e-01
5.312881e-01
5.000549e-01
1.000000e+00
9.687639e-01
9.375307e-01
9.063016e-01
8.777374e-01
8.438168e-01
8.125521e-01
7.813000e-01
7.500458e-01
7.187908e-01
6.875359e-01
6.562813e-01
6.250271e-01
5.937732e-01
5.625198e-01
5.312643e-01
5.000343e-01
1.000000e+00
9.687346e-01
9.374773e-01
9.062150e-01
8.735959e-01
8.437134e-01
8.124681e-01
7.812196e-01
7.499716e-01
7.187240e-01
6.874764e-01
6.562287e-01
6.249808e-01
5.937328e-01
5.624846e-01
5.312337e-01
5.000077e-01
1.000000e+00
9.687124e-01
9.374379e-01
9.061334e-01
8.699286e-01
8.436329e-01
8.123927e-01
7.811484e-01
7.499058e-01
7.186649e-01
6.874236e-01
6.561820e-01
6.249398e-01
5.936970e-01
5.624534e-01
5.312065e-01
4.999842e-01
1.000000e+00
9.686990e-01
9.374154e-01
9.060847e-01
8.679679e-01
8.435944e-01
8.123519e-01
7.811103e-01
7.498706e-01
7.186332e-01
6.873953e-01
6.561570e-01
6.249178e-01
5.936777e-01
5.624366e-01
5.311919e-01
4.999715e-01
1.000000e+00
9.687010e-01
9.374193e-01
9.060950e-01
8.683753e-01
8.436021e-01
8.123603e-01
7.811181e-01
7.498777e-01
7.186396e-01
6.874009e-01
6.561619e-01
6.249221e-01
5.936815e-01
5.624398e-01
5.311947e-01
4.999739e-01
1.000000e+00
9.687191e-01
9.374502e-01
9.061586e-01
8.710144e-01
8.436553e-01
8.124147e-01
7.811690e-01
7.499247e-01
7.186818e-01
6.874385e-01
6.561951e-01
6.249512e-01
5.937069e-01
5.624619e-01
5.312139e-01
4.999905e-01
1.000000e+00
9.687439e-01
9.374938e-01
9.062437e-01
8.749935e-01
8.437463e-01
8.124959e-01
7.812460e-01
7.499957e-01
7.187455e-01
6.874954e-01
6.562453e-01
6.249953e-01
5.937454e-01
5.624954e-01
5.312430e-01
5.000157e-01
1.000000e+00
9.687729e-01
9.375476e-01
9.063242e-01
8.789766e-01
8.438492e-01
8.125760e-01
7.813229e-01
7.500667e-01
7.188094e-01
6.875524e-01
6.562957e-01
6.250396e-01
5.937840e-01
5.625291e-01
5.312722e-01
5.000411e-01
1.000000e+00
9.687891e-01
9.375795e-01
9.063675e-01
8.816165e-01
8.439244e-01
8.126285e-01
7.813740e-01
7.501139e-01
7.188519e-01
6.875904e-01
6.563294e-01
6.250692e-01
5.938099e-01
5.625517e-01
5.312919e-01
5.000582e-01
1.000000e+00
9.687930e-01
9.375857e-01
9.063732e-01
8.820248e-01
8.439366e-01
8.126367e-01
7.813822e-01
7.501217e-01
7.188590e-01
6.875969e-01
6.563353e-01
6.250745e-01
5.938147e-01
5.625560e-01
5.312958e-01
5.000616e-01
1.000000e+00
9.687795e-01
9.375598e-01
9.063419e-01
8.800618e-01
8.438797e-01
8.125981e-01
7.813450e-01
7.500877e-01
7.188288e-01
6.875702e-01
6.563119e-01
6.250542e-01
5.937972e-01
5.625409e-01
5.312828e-01
5.000506e-01
1.000000e+00
9.687538e-01
9.375116e-01
9.062731e-01
8.763916e-01
8.437815e-01
8.125253e-01
7.812752e-01
7.500237e-01
7.187717e-01
6.875198e-01
6.562677e-01
6.250157e-01
5.937638e-01
5.625120e-01
5.312578e-01
5.000290e-01
1.000000e+00
9.687263e-01
9.374624e-01
9.061863e-01
8.722519e-01
8.436833e-01
8.124423e-01
7.811967e-01
7.499517e-01
7.187075e-01
6.874629e-01
6.562178e-01
6.249722e-01
5.937260e-01
5.624792e-01
5.312295e-01
5.000046e-01
1.000000e+00
9.687063e-01
9.374259e-01
9.061116e-01
8.690376e-01
8.436166e-01
8.123774e-01
7.811360e-01
7.498961e-01
7.186577e-01
6.874187e-01
6.561791e-01
6.249383e-01
5.936966e-01
5.624538e-01
5.312075e-01
4.999856e-01
1.000000e+00
9.686980e-01
9.374110e-01
9.060806e-01
8.678319e-01
8.435939e-01
8.123529e-01
7.811131e-01
7.498750e-01
7.186389e-01
6.874020e-01
6.561643e-01
6.249255e-01
5.936854e-01
5.624441e-01
5.311991e-01
4.999783e-01
1.000000e+00
9.687714e-01
9.375474e-01
9.063225e-01
8.788742e-01
8.438473e-01
8.125748e-01
7.813220e-01
7.500661e-01
7.188092e-01
6.875524e-01
6.562960e-01
6.250400e-01
5.937846e-01
5.625297e-01
5.312729e-01
5.000418e-01
1.000000e+00
9.687662e-01
9.375367e-01
9.063093e-01
8.782206e-01
8.438295e-01
8.125617e-01
7.813093e-01
7.500544e-01
7.187986e-01
6.875430e-01
6.562877e-01
6.250327e-01
5.937782e-01
5.625242e-01
5.312681e-01
5.000376e-01
1.000000e+00
9.687566e-01
9.375155e-01
9.062762e-01
8.764799e-01
8.437837e-01
8.125266e-01
7.812755e-01
7.500232e-01
7.187706e-01
6.875180e-01
6.562655e-01
6.250133e-01
5.937612e-01
5.625094e-01
5.312552e-01
5.000264e-01
1.000000e+00
9.687411e-01
9.374879e-01
9.062308e-01
8.742391e-01
8.437284e-01
8.124812e-01
7.812320e-01
7.499830e-01
7.187344e-01
6.874857e-01
6.562370e-01
6.249882e-01
5.937393e-01
5.624903e-01
5.312386e-01
5.000121e-01
1.000000e+00
9.687269e-01
9.374640e-01
9.061872e-01
8.722532e-01
8.436827e-01
8.124405e-01
7.811934e-01
7.499474e-01
7.187024e-01
6.874571e-01
6.562117e-01
6.249660e-01
5.937199e-01
5.624734e-01
5.312240e-01
4.999993e-01
1.000000e+00
9.687185e-01
9.374519e-01
9.061654e-01
8.711915e-01
8.436595e-01
8.124186e-01
7.811728e-01
7.499284e-01
7.186852e-01
6.874418e-01
6.561981e-01
6.249540e-01
5.937095e-01
5.624643e-01
5.312161e-01
4.999925e-01
1.000000e+00
9.687202e-01
9.374533e-01
9.061696e-01
8.714123e-01
8.436643e-01
8.124231e-01
7.811770e-01
7.499322e-01
7.186887e-01
6.874448e-01
6.562008e-01
6.249564e-01
5.937115e-01
5.624661e-01
5.312176e-01
4.999938e-01
1.000000e+00
9.687320e-01
9.374712e-01
9.062002e-01
8.728409e-01
8.436958e-01
8.124524e-01
7.812046e-01
7.499577e-01
7.187115e-01
6.874652e-01
6.562188e-01
6.249721e-01
5.937253e-01
5.624780e-01
5.312279e-01
5.000028e-01
1.000000e+00
9.687458e-01
9.374968e-01
9.062467e-01
8.749958e-01
8.437465e-01
8.124963e-01
7.812463e-01
7.499962e-01
7.187461e-01
6.874960e-01
6.562460e-01
6.249960e-01
5.937461e-01
5.624961e-01
5.312436e-01
5.000164e-01
1.000000e+00
9.687610e-01
9.375237e-01
9.062889e-01
8.771503e-01
8.438007e-01
8.125398e-01
7.812880e-01
7.500347e-01
7.187807e-01
6.875269e-01
6.562733e-01
6.250200e-01
5.937670e-01
5.625143e-01
5.312594e-01
5.000300e-01
1.000000e+00
9.687685e-01
9.375409e-01
9.063167e-01
8.785784e-01
8.438387e-01
8.125684e-01
7.813157e-01
7.500602e-01
7.188037e-01
6.875475e-01
6.562916e-01
6.250361e-01
5.937810e-01
5.625265e-01
5.312701e-01
5.000393e-01
1.000000e+00
9.687704e-01
9.375456e-01
9.063221e-01
8.787989e-01
8.438448e-01
8.125729e-01
7.813202e-01
7.500644e-01
7.188076e-01
6.875511e-01
6.562948e-01
6.250389e-01
5.937836e-01
5.625288e-01
5.312721e-01
5.000411e-01
1.000000e+00
9.687633e-01
9.375304e-01
9.063000e-01
8.777376e-01
8.438163e-01
8.125519e-01
7.813000e-01
7.500460e-01
7.187912e-01
6.875366e-01
6.562821e-01
6.250280e-01
5.937741e-01
5.625207e-01
5.312651e-01
5.000351e-01
1.000000e+00
9.687512e-01
9.375060e-01
9.062615e-01
8.757522e-01
8.437654e-01
8.125123e-01
7.812622e-01
7.500114e-01
7.187604e-01
6.875093e-01
6.562582e-01
6.250071e-01
5.937560e-01
5.625050e-01
5.312516e-01
5.000235e-01
1.000000e+00
9.687362e-01
9.374788e-01
9.062149e-01
8.735117e-01
8.437118e-01
8.124675e-01
7.812198e-01
7.499725e-01
7.187256e-01
6.874784e-01
6.562311e-01
6.249835e-01
5.937355e-01
5.624873e-01
5.312363e-01
5.000103e-01
1.000000e+00
9.687245e-01
9.374579e-01
9.061760e-01
8.717714e-01
8.436730e-01
8.124325e-01
7.811869e-01
7.499423e-01
7.186986e-01
6.874546e-01
6.562101e-01
6.249651e-01
5.937196e-01
5.624735e-01
5.312244e-01
5.000000e-01
1.000000e+00
9.687202e-01
9.374503e-01
9.061612e-01
8.711181e-01
8.436592e-01
8.124193e-01
7.811745e-01
7.499310e-01
7.186884e-01
6.874455e-01
6.562021e-01
6.249582e-01
5.937135e-01
5.624682e-01
5.312198e-01
4.999960e-01
1.000000e+00
9.687438e-01
9.374939e-01
9.062457e-01
8.749952e-01
8.437467e-01
8.124964e-01
7.812467e-01
7.499967e-01
7.187468e-01
6.874968e-01
6.562469e-01
6.249969e-01
5.937470e-01
5.624970e-01
5.312445e-01
5.000172e-01
1.000000e+00
9.687451e-01
9.374954e-01
9.062460e-01
8.749956e-01
8.437466e-01
8.124965e-01
7.812467e-01
7.499967e-01
7.187468e-01
6.874968e-01
6.562469e-01
6.249969e-01
5.937470e-01
5.624970e-01
5.312445e-01
5.000172e-01
1.000000e+00
9.687462e-01
9.374968e-01
9.062466e-01
8.749963e-01
8.437465e-01
8.124966e-01
7.812467e-01
7.499967e-01
7.187468e-01
6.874968e-01
6.562469e-01
6.249969e-01
5.937469e-01
5.624970e-01
5.312445e-01
5.000172e-01
1.000000e+00
9.687462e-01
9.374969e-01
9.062467e-01
8.749964e-01
8.437465e-01
8.124966e-01
7.812467e-01
7.499966e-01
7.187467e-01
6.874968e-01
6.562468e-01
6.249969e-01
5.937469e-01
5.624970e-01
5.312445e-01
5.000172e-01
1.000000e+00
9.687453e-01
9.374956e-01
9.062461e-01
8.749958e-01
8.437466e-01
8.124964e-01
7.812467e-01
7.499966e-01
7.187467e-01
6.874967e-01
6.562468e-01
6.249968e-01
5.937469e-01
5.624970e-01
5.312445e-01
5.000171e-01
1.000000e+00
9.687439e-01
9.374933e-01
9.062454e-01
8.749951e-01
8.437467e-01
8.124964e-01
7.812467e-01
7.499966e-01
7.187467e-01
6.874967e-01
6.562468e-01
6.249968e-01
5.937469e-01
5.624970e-01
5.312444e-01
5.000171e-01
1.000000e+00
9.687443e-01
9.374943e-01
9.062456e-01
8.749953e-01
8.437467e-01
8.124964e-01
7.812467e-01
7.499966e-01
7.187467e-01
6.874967e-01
6.562468e-01
6.249968e-01
5.937469e-01
5.624969e-01
5.312444e-01
5.000171e-01
1.000000e+00
9.687456e-01
9.374966e-01
9.062464e-01
8.749961e-01
8.437466e-01
8.124966e-01
7.812467e-01
7.499967e-01
7.187467e-01
6.874968e-01
6.562468e-01
6.249968e-01
5.937469e-01
5.624969e-01
5.312444e-01
5.000171e-01
1.000000e+00
9.687462e-01
9.374968e-01
9.062468e-01
8.749966e-01
8.437466e-01
8.124967e-01
7.812468e-01
7.499968e-01
7.187468e-01
6.874968e-01
6.562469e-01
6.249969e-01
5.937469e-01
5.624969e-01
5.312444e-01
5.000171e-01
1.000000e+00
9.687458e-01
9.374968e-01
9.062465e-01
8.749962e-01
8.437467e-01
8.124967e-01
7.812468e-01
7.499968e-01
7.187468e-01
6.874969e-01
6.562469e-01
6.249969e-01
5.937469e-01
5.624969e-01
5.312444e-01
5.000171e-01
1.000000e+00
9.687447e-01
9.374949e-01
9.062457e-01
8.749954e-01
8.437468e-01
8.124966e-01
7.812469e-01
7.499969e-01
7.187469e-01
6.874969e-01
6.562470e-01
6.249970e-01
5.937469e-01
5.624969e-01
5.312444e-01
5.000171e-01
1.000000e+00
9.687440e-01
9.374935e-01
9.062454e-01
8.749951e-01
8.437468e-01
8.124966e-01
7.812469e-01
7.499969e-01
7.187469e-01
6.874969e-01
6.562470e-01
6.249970e-01
5.937469e-01
5.624969e-01
5.312444e-01
5.000171e-01
1.000000e+00
9.687453e-01
9.374957e-01
9.062461e-01
8.749958e-01
8.437467e-01
8.124967e-01
7.812469e-01
7.499969e-01
7.187469e-01
6.874969e-01
6.562469e-01
6.249969e-01
5.937469e-01
5.624969e-01
5.312444e-01
5.000171e-01
1.000000e+00
9.687462e-01
9.374969e-01
9.062468e-01
8.749966e-01
8.437467e-01
8.124968e-01
7.812469e-01
7.499969e-01
7.187469e-01
6.874969e-01
6.562469e-01
6.249969e-01
5.937469e-01
5.624969e-01
5.312444e-01
5.000170e-01
1.000000e+00
9.687459e-01
9.374967e-01
9.062468e-01
8.749967e-01
8.437468e-01
8.124968e-01
7.812469e-01
7.499969e-01
7.187468e-01
6.874968e-01
6.562468e-01
6.249968e-01
5.937469e-01
5.624968e-01
5.312443e-01
5.000170e-01
1.000000e+00
9.687457e-01
9.374968e-01
9.062463e-01
8.749959e-01
8.437469e-01
8.124966e-01
7.812469e-01
7.499968e-01
7.187468e-01
6.874968e-01
6.562468e-01
6.249968e-01
5.937468e-01
5.624968e-01
5.312443e-01
5.000170e-01
1.000000e+00
9.687455e-01
9.374967e-01
9.062460e-01
8.749953e-01
8.437468e-01
8.124965e-01
7.812468e-01
7.499968e-01
7.187468e-01
6.874968e-01
6.562468e-01
6.249968e-01
5.937468e-01
5.624968e-01
5.312443e-01
5.000170e-01
1.000000e+00
9.687189e-01
9.374521e-01
9.061620e-01
8.711171e-01
8.436577e-01
8.124170e-01
7.811715e-01
7.499273e-01
7.186844e-01
6.874412e-01
6.561978e-01
6.249539e-01
5.937094e-01
5.624643e-01
5.312161e-01
4.999926e-01
1.000000e+00
9.687234e-01
9.374580e-01
9.061761e-01
8.717707e-01
8.436719e-01
8.124305e-01
7.811842e-01
7.499391e-01
7.186950e-01
6.874507e-01
6.562062e-01
6.249612e-01
5.937158e-01
5.624699e-01
5.312210e-01
4.999968e-01
1.000000e+00
9.687365e-01
9.374790e-01
9.062148e-01
8.735113e-01
8.437111e-01
8.124662e-01
7.812179e-01
7.499702e-01
7.187230e-01
6.874756e-01
6.562282e-01
6.249806e-01
5.937327e-01
5.624846e-01
5.312338e-01
5.000079e-01
1.000000e+00
9.687510e-01
9.375062e-01
9.062617e-01
8.757522e-01
8.437651e-01
8.125118e-01
7.812614e-01
7.500102e-01
7.187590e-01
6.875078e-01
6.562566e-01
6.250055e-01
5.937545e-01
5.625036e-01
5.312503e-01
5.000222e-01
1.000000e+00
9.687632e-01
9.375306e-01
9.063000e-01
8.777378e-01
8.438163e-01
8.125519e-01
7.812999e-01
7.500458e-01
7.187910e-01
6.875364e-01
6.562818e-01
6.250276e-01
5.937738e-01
5.625205e-01
5.312649e-01
5.000349e-01
1.000000e+00
9.687701e-01
9.375454e-01
9.063227e-01
8.787991e-01
8.438451e-01
8.125732e-01
7.813206e-01
7.500649e-01
7.188082e-01
6.875517e-01
6.562954e-01
6.250395e-01
5.937842e-01
5.625295e-01
5.312728e-01
5.000417e-01
1.000000e+00
9.687683e-01
9.375410e-01
9.063176e-01
8.785785e-01
8.438391e-01
8.125688e-01
7.813164e-01
7.500611e-01
7.188047e-01
6.875486e-01
6.562927e-01
6.250372e-01
5.937822e-01
5.625278e-01
5.312712e-01
5.000404e-01
1.000000e+00
9.687608e-01
9.375236e-01
9.062888e-01
8.771503e-01
8.438010e-01
8.125403e-01
7.812888e-01
7.500357e-01
7.187819e-01
6.875283e-01
6.562748e-01
6.250215e-01
5.937685e-01
5.625158e-01
5.312609e-01
5.000314e-01
1.000000e+00
9.687457e-01
9.374967e-01
9.062466e-01
8.749958e-01
8.437467e-01
8.124969e-01
7.812472e-01
7.499973e-01
7.187475e-01
6.874976e-01
6.562477e-01
6.249977e-01
5.937477e-01
5.624978e-01
5.312452e-01
5.000179e-01
1.000000e+00
9.687321e-01
9.374712e-01
9.062002e-01
8.728409e-01
8.436961e-01
8.124531e-01
7.812056e-01
7.499590e-01
7.187130e-01
6.874668e-01
6.562205e-01
6.249739e-01
5.937269e-01
5.624796e-01
5.312295e-01
5.000042e-01
1.000000e+00
9.687206e-01
9.374535e-01
9.061689e-01
8.714124e-01
8.436646e-01
8.124238e-01
7.811780e-01
7.499335e-01
7.186901e-01
6.874463e-01
6.562024e-01
6.249579e-01
5.937129e-01
5.624674e-01
5.312188e-01
4.999949e-01
1.000000e+00
9.687189e-01
9.374523e-01
9.061650e-01
8.711918e-01
8.436600e-01
8.124193e-01
7.811736e-01
7.499294e-01
7.186862e-01
6.874428e-01
6.561992e-01
6.249550e-01
5.937103e-01
5.624650e-01
5.312167e-01
4.999931e-01
1.000000e+00
9.687271e-01
9.374642e-01
9.061875e-01
8.722535e-01
8.436830e-01
8.124409e-01
7.811938e-01
7.499478e-01
7.187026e-01
6.874573e-01
6.562118e-01
6.249660e-01
5.937198e-01
5.624731e-01
5.312237e-01
4.999990e-01
1.000000e+00
9.687414e-01
9.374883e-01
9.062311e-01
8.742395e-01
8.437285e-01
8.124810e-01
7.812315e-01
7.499823e-01
7.187334e-01
6.874845e-01
6.562357e-01
6.249868e-01
5.937378e-01
5.624887e-01
5.312371e-01
5.000106e-01
1.000000e+00
9.687563e-01
9.375155e-01
9.062764e-01
8.764802e-01
8.437833e-01
8.125257e-01
7.812740e-01
7.500212e-01
7.187681e-01
6.875153e-01
6.562626e-01
6.250103e-01
5.937582e-01
5.625064e-01
5.312524e-01
5.000238e-01
1.000000e+00
9.687674e-01
9.375362e-01
9.063087e-01
8.782204e-01
8.438285e-01
8.125599e-01
7.813068e-01
7.500513e-01
7.187950e-01
6.875391e-01
6.562835e-01
6.250285e-01
5.937741e-01
5.625202e-01
5.312643e-01
5.000341e-01
1.000000e+00
9.687718e-01
9.375443e-01
9.063202e-01
8.788735e-01
8.438458e-01
8.125726e-01
7.813191e-01
7.500625e-01
7.188051e-01
6.875481e-01
6.562914e-01
6.250354e-01
5.937800e-01
5.625254e-01
5.312687e-01
5.000379e-01
1.000000e+00
9.686981e-01
9.374133e-01
9.060789e-01
8.678303e-01
8.435914e-01
8.123488e-01
7.811077e-01
7.498686e-01
7.186316e-01
6.873942e-01
6.561563e-01
6.249174e-01
5.936776e-01
5.624366e-01
5.311921e-01
4.999717e-01
1.000000e+00
9.687058e-01
9.374266e-01
9.061117e-01
8.690364e-01
8.436147e-01
8.123740e-01
7.811312e-01
7.498902e-01
7.186511e-01
6.874116e-01
6.561717e-01
6.249309e-01
5.936894e-01
5.624469e-01
5.312010e-01
4.999795e-01
1.000000e+00
9.687262e-01
9.374621e-01
9.061866e-01
8.722518e-01
8.436822e-01
8.124403e-01
7.811935e-01
7.499477e-01
7.187028e-01
6.874577e-01
6.562124e-01
6.249667e-01
5.937207e-01
5.624742e-01
5.312247e-01
5.000001e-01
1.000000e+00
9.687536e-01
9.375117e-01
9.062729e-01
8.763915e-01
8.437811e-01
8.125245e-01
7.812738e-01
7.500218e-01
7.187695e-01
6.875171e-01
6.562649e-01
6.250128e-01
5.937609e-01
5.625093e-01
5.312552e-01
5.000266e-01
1.000000e+00
9.687802e-01
9.375610e-01
9.063425e-01
8.800626e-01
8.438798e-01
8.125983e-01
7.813450e-01
7.500875e-01
7.188286e-01
6.875699e-01
6.563115e-01
6.250537e-01
5.937967e-01
5.625405e-01
5.312823e-01
5.000500e-01
1.000000e+00
9.687928e-01
9.375856e-01
9.063739e-01
8.820250e-01
8.439371e-01
8.126375e-01
7.813832e-01
7.501227e-01
7.188603e-01
6.875982e-01
6.563366e-01
6.250757e-01
5.938159e-01
5.625572e-01
5.312968e-01
5.000626e-01
1.000000e+00
9.687892e-01
9.375796e-01
9.063676e-01
8.816169e-01
8.439251e-01
8.126295e-01
7.813755e-01
7.501157e-01
7.188539e-01
6.875926e-01
6.563316e-01
6.250715e-01
5.938122e-01
5.625539e-01
5.312940e-01
5.000602e-01
1.000000e+00
9.687729e-01
9.375478e-01
9.063237e-01
8.789767e-01
8.438498e-01
8.125770e-01
7.813245e-01
7.500687e-01
7.188118e-01
6.875550e-01
6.562985e-01
6.250424e-01
5.937868e-01
5.625319e-01
5.312749e-01
5.000436e-01
1.000000e+00
9.687439e-01
9.374937e-01
9.062435e-01
8.749934e-01
8.437468e-01
8.124969e-01
7.812476e-01
7.499978e-01
7.187481e-01
6.874983e-01
6.562484e-01
6.249984e-01
5.937485e-01
5.624985e-01
5.312459e-01
5.000185e-01
1.000000e+00
9.687189e-01
9.374496e-01
9.061587e-01
8.710144e-01
8.436558e-01
8.124158e-01
7.811707e-01
7.499269e-01
7.186843e-01
6.874414e-01
6.561981e-01
6.249544e-01
5.937100e-01
5.624649e-01
5.312168e-01
4.999933e-01
1.000000e+00
9.687011e-01
9.374192e-01
9.060951e-01
8.683753e-01
8.436027e-01
8.123615e-01
7.811197e-01
7.498799e-01
7.186419e-01
6.874035e-01
6.561646e-01
6.249248e-01
5.936841e-01
5.624423e-01
5.311971e-01
4.999762e-01
1.000000e+00
9.686995e-01
9.374158e-01
9.060846e-01
8.679685e-01
8.435951e-01
8.123529e-01
7.811115e-01
7.498722e-01
7.186349e-01
6.873970e-01
6.561587e-01
6.249195e-01
5.936794e-01
5.624380e-01
5.311933e-01
4.999727e-01
1.000000e+00
9.687123e-01
9.374376e-01
9.061341e-01
8.699284e-01
8.436336e-01
8.123931e-01
7.811488e-01
7.499062e-01
7.186651e-01
6.874237e-01
6.561820e-01
6.249398e-01
5.936968e-01
5.624530e-01
5.312061e-01
4.999837e-01
1.000000e+00
9.687354e-01
9.374784e-01
9.062164e-01
8.735966e-01
8.437134e-01
8.124675e-01
7.812185e-01
7.499700e-01
7.187220e-01
6.874741e-01
6.562262e-01
6.249782e-01
5.937301e-01
5.624818e-01
5.312310e-01
5.000051e-01
1.000000e+00
9.687640e-01
9.375311e-01
9.063010e-01
8.777372e-01
8.438156e-01
8.125500e-01
7.812969e-01
7.500419e-01
7.187862e-01
6.875309e-01
6.562761e-01
6.250217e-01
5.937679e-01
5.625145e-01
5.312592e-01
5.000295e-01
1.000000e+00
9.687857e-01
9.375708e-01
9.063572e-01
8.809539e-01
8.439038e-01
8.126130e-01
7.813576e-01
7.500975e-01
7.188359e-01
6.875750e-01
6.563147e-01
6.250554e-01
5.937972e-01
5.625400e-01
5.312812e-01
5.000485e-01
1.000000e+00
9.687932e-01
9.375845e-01
9.063743e-01
8.821620e-01
8.439387e-01
8.126363e-01
7.813803e-01
7.501183e-01
7.188546e-01
6.875916e-01
6.563293e-01
6.250682e-01
5.938082e-01
5.625496e-01
5.312895e-01
5.000557e-01
1.000000e+00
9.686828e-01
9.373839e-01
9.060201e-01
8.656339e-01
8.435517e-01
8.123029e-01
7.810652e-01
7.498293e-01
7.185964e-01
6.873627e-01
6.561286e-01
6.248930e-01
5.936563e-01
5.624181e-01
5.311760e-01
4.999578e-01
1.000000e+00
9.686955e-01
9.374072e-01
9.060681e-01
8.672119e-01
8.435794e-01
8.123359e-01
7.810958e-01
7.498576e-01
7.186218e-01
6.873854e-01
6.561486e-01
6.249107e-01
5.936717e-01
5.624315e-01
5.311877e-01
4.999680e-01
1.000000e+00
9.687174e-01
9.374482e-01
9.061649e-01
8.714119e-01
8.436633e-01
8.124228e-01
7.811772e-01
7.499326e-01
7.186894e-01
6.874457e-01
6.562018e-01
6.249575e-01
5.937126e-01
5.624672e-01
5.312187e-01
4.999949e-01
1.000000e+00
9.687546e-01
9.375136e-01
9.062782e-01
8.768180e-01
8.437919e-01
8.125329e-01
7.812821e-01
7.500294e-01
7.187764e-01
6.875234e-01
6.562704e-01
6.250177e-01
5.937653e-01
5.625131e-01
5.312585e-01
5.000295e-01
1.000000e+00
9.687930e-01
9.375837e-01
9.063730e-01
8.816179e-01
8.439243e-01
8.126291e-01
7.813752e-01
7.501153e-01
7.188536e-01
6.875923e-01
6.563313e-01
6.250712e-01
5.938120e-01
5.625538e-01
5.312939e-01
5.000601e-01
1.000000e+00
9.688060e-01
9.376091e-01
9.064032e-01
8.841807e-01
8.440031e-01
8.126801e-01
7.814251e-01
7.501614e-01
7.188951e-01
6.876293e-01
6.563640e-01
6.250999e-01
5.938371e-01
5.625756e-01
5.313128e-01
5.000766e-01
1.000000e+00
9.688038e-01
9.376058e-01
9.063993e-01
8.836469e-01
8.439865e-01
8.126697e-01
7.814150e-01
7.501521e-01
7.188868e-01
6.876220e-01
6.563576e-01
6.250943e-01
5.938322e-01
5.625714e-01
5.313092e-01
5.000734e-01
1.000000e+00
9.687800e-01
9.375646e-01
9.063492e-01
8.801986e-01
8.438836e-01
8.126014e-01
7.813483e-01
7.500908e-01
7.188317e-01
6.875729e-01
6.563143e-01
6.250564e-01
5.937991e-01
5.625426e-01
5.312842e-01
5.000517e-01
1.000000e+00
9.687421e-01
9.374895e-01
9.062370e-01
8.749906e-01
8.437467e-01
8.124969e-01
7.812478e-01
7.499982e-01
7.187485e-01
6.874987e-01
6.562489e-01
6.249989e-01
5.937490e-01
5.624989e-01
5.312464e-01
5.000189e-01
1.000000e+00
9.687081e-01
9.374338e-01
9.061306e-01
8.697975e-01
8.436300e-01
8.123907e-01
7.811474e-01
7.499056e-01
7.186652e-01
6.874244e-01
6.561832e-01
6.249413e-01
5.936987e-01
5.624551e-01
5.312083e-01
4.999859e-01
1.000000e+00
9.686889e-01
9.373968e-01
9.060446e-01
8.663456e-01
8.435653e-01
8.123195e-01
7.810807e-01
7.498440e-01
7.186098e-01
6.873749e-01
6.561394e-01
6.249028e-01
5.936649e-01
5.624256e-01
5.311827e-01
4.999636e-01
1.000000e+00
9.686845e-01
9.373869e-01
9.060264e-01
8.658152e-01
8.435562e-01
8.123083e-01
7.810701e-01
7.498340e-01
7.186006e-01
6.873664e-01
6.561317e-01
6.248958e-01
5.936587e-01
5.624200e-01
5.311776e-01
4.999591e-01
1.000000e+00
9.687038e-01
9.374215e-01
9.060982e-01
8.683772e-01
8.436026e-01
8.123610e-01
7.811188e-01
7.498785e-01
7.186401e-01
6.874013e-01
6.561622e-01
6.249223e-01
5.936814e-01
5.624396e-01
5.311944e-01
4.999735e-01
1.000000e+00
9.687296e-01
9.374689e-01
9.062034e-01
8.731665e-01
8.437034e-01
8.124584e-01
7.812099e-01
7.499619e-01
7.187144e-01
6.874671e-01
6.562199e-01
6.249725e-01
5.937250e-01
5.624772e-01
5.312269e-01
5.000015e-01
1.000000e+00
9.687680e-01
9.375407e-01
9.063187e-01
8.785772e-01
8.438377e-01
8.125662e-01
7.813123e-01
7.500557e-01
7.187983e-01
6.875414e-01
6.562850e-01
6.250293e-01
5.937743e-01
5.625200e-01
5.312638e-01
5.000333e-01
1.000000e+00
9.687998e-01
9.375967e-01
9.063905e-01
8.827800e-01
8.439574e-01
8.126482e-01
7.813916e-01