<?xml version="1.0"?>
<VTKFile type="StructuredGrid" version="0.1">
  <StructuredGrid WholeExtent="0 8 0 8 0 8">
    <Piece Extent="0 8 0 8 0 8">
      <PointData Scalars="temperature" Vectors="velocity">
        <DataArray type="Float32" Name="temperature" format="ascii">
1.000000e+00
8.750000e-01
7.500000e-01
6.250000e-01
5.001738e-01
3.750000e-01
2.500000e-01
1.250000e-01
0.000000e+00
1.000000e+00
8.750000e-01
7.500000e-01
6.250000e-01
5.017325e-01
3.750000e-01
2.500000e-01
1.250000e-01
0.000000e+00
1.000000e+00
8.750000e-01
7.500000e-01
6.250000e-01
5.050757e-01
3.750000e-01
2.500000e-01
1.250000e-01
0.000000e+00
1.000000e+00
8.750000e-01
7.500000e-01
6.250000e-01
5.100092e-01
3.750000e-01
2.500000e-01
1.250000e-01
0.000000e+00
1.000000e+00
8.750000e-01
7.500000e-01
6.250000e-01
5.157881e-01
3.750000e-01
2.500000e-01
1.250000e-01
0.000000e+00
1.000000e+00
8.750000e-01
7.500000e-01
6.250000e-01
5.212836e-01
3.750000e-01
2.500000e-01
1.250000e-01
0.000000e+00
1.000000e+00
8.750000e-01
7.500000e-01
6.250000e-01
5.254102e-01
3.750000e-01
2.500000e-01
1.250000e-01
0.000000e+00
1.000000e+00
8.750000e-01
7.500000e-01
6.250000e-01
5.275364e-01
3.750000e-01
2.500000e-01
1.250000e-01
0.000000e+00
1.000000e+00
8.750000e-01
7.500000e-01
6.250000e-01
5.276118e-01
3.750000e-01
2.500000e-01
1.250000e-01
0.000000e+00
1.000000e+00
8.750000e-01
7.500000e-01
6.250000e-01
4.993471e-01
3.750000e-01
2.500000e-01
1.250000e-01
0.000000e+00
1.000000e+00
8.750000e-01
7.500000e-01
6.250000e-01
5.009268e-01
3.750000e-01
2.500000e-01
1.250000e-01
0.000000e+00
1.000000e+00
8.750000e-01
7.500000e-01
6.250000e-01
5.044651e-01
3.750000e-01
2.500000e-01
1.250000e-01
0.000000e+00
1.000000e+00
8.750000e-01
7.500000e-01
6.250000e-01
5.097493e-01
3.750000e-01
2.500000e-01
1.250000e-01
0.000000e+00
1.000000e+00
8.750000e-01
7.500000e-01
6.250000e-01
5.158879e-01
3.750000e-01
2.500000e-01
1.250000e-01
0.000000e+00
1.000000e+00
8.750000e-01
7.500000e-01
6.250000e-01
5.215293e-01
3.750000e-01
2.500000e-01
1.250000e-01
0.000000e+00
1.000000e+00
8.750000e-01
7.500000e-01
6.250000e-01
5.254314e-01
3.750000e-01
2.500000e-01
1.250000e-01
0.000000e+00
1.000000e+00
8.750000e-01
7.500000e-01
6.250000e-01
5.269760e-01
3.750000e-01
2.500000e-01
1.250000e-01
0.000000e+00
1.000000e+00
8.750000e-01
7.500000e-01
6.250000e-01
5.262658e-01
3.750000e-01
2.500000e-01
1.250000e-01
0.000000e+00
1.000000e+00
8.750000e-01
7.500000e-01
6.250000e-01
4.966767e-01
3.750000e-01
2.500000e-01
1.250000e-01
0.000000e+00
1.000000e+00
8.750000e-01
7.500000e-01
6.250000e-01
4.980773e-01
3.750000e-01
2.500000e-01
1.250000e-01
0.000000e+00
1.000000e+00
8.750000e-01
7.500000e-01
6.250000e-01
5.016104e-01
3.750000e-01
2.500000e-01
1.250000e-01
0.000000e+00
1.000000e+00
8.750000e-01
7.500000e-01
6.250000e-01
5.070784e-01
3.750000e-01
2.500000e-01
1.250000e-01
0.000000e+00
1.000000e+00
8.750000e-01
7.500000e-01
6.250000e-01
5.134787e-01
3.750000e-01
2.500000e-01
1.250000e-01
0.000000e+00
1.000000e+00
8.750000e-01
7.500000e-01
6.250000e-01
5.192613e-01
3.750000e-01
2.500000e-01
1.250000e-01
0.000000e+00
1.000000e+00
8.750000e-01
7.500000e-01
6.250000e-01
5.230398e-01
3.750000e-01
2.500000e-01
1.250000e-01
0.000000e+00
1.000000e+00
8.750000e-01
7.500000e-01
6.250000e-01
5.242080e-01
3.750000e-01
2.500000e-01
1.250000e-01
0.000000e+00
1.000000e+00
8.750000e-01
7.500000e-01
6.250000e-01
5.230003e-01
3.750000e-01
2.500000e-01
1.250000e-01
0.000000e+00
1.000000e+00
8.750000e-01
7.500000e-01
6.250000e-01
4.922142e-01
3.750000e-01
2.500000e-01
1.250000e-01
0.000000e+00
1.000000e+00
8.750000e-01
7.500000e-01
6.250000e-01
4.932282e-01
3.750000e-01
2.500000e-01
1.250000e-01
0.000000e+00
1.000000e+00
8.750000e-01
7.500000e-01
6.250000e-01
4.965206e-01
3.750000e-01
2.500000e-01
1.250000e-01
0.000000e+00
1.000000e+00
8.750000e-01
7.500000e-01
6.250000e-01
5.019479e-01
3.750000e-01
2.500000e-01
1.250000e-01
0.000000e+00
1.000000e+00
8.750000e-01
7.500000e-01
6.250000e-01
5.084652e-01
3.750000e-01
2.500000e-01
1.250000e-01
0.000000e+00
1.000000e+00
8.750000e-01
7.500000e-01
6.250000e-01
5.143939e-01
3.750000e-01
2.500000e-01
1.250000e-01
0.000000e+00
1.000000e+00
8.750000e-01
7.500000e-01
6.250000e-01
5.182342e-01
3.750000e-01
2.500000e-01
1.250000e-01
0.000000e+00
1.000000e+00
8.750000e-01
7.500000e-01
6.250000e-01
5.193641e-01
3.750000e-01
2.500000e-01
1.250000e-01
0.000000e+00
1.000000e+00
8.750000e-01
7.500000e-01
6.250000e-01
5.180810e-01
3.750000e-01
2.500000e-01
1.250000e-01
0.000000e+00
1.000000e+00
8.750000e-01
7.500000e-01
6.250000e-01
4.865757e-01
3.750000e-01
2.500000e-01
1.250000e-01
0.000000e+00
1.000000e+00
8.750000e-01
7.500000e-01
6.250000e-01
4.871241e-01
3.750000e-01
2.500000e-01
1.250000e-01
0.000000e+00
1.000000e+00
8.750000e-01
7.500000e-01
6.250000e-01
4.900409e-01
3.750000e-01
2.500000e-01
1.250000e-01
0.000000e+00
1.000000e+00
8.750000e-01
7.500000e-01
6.250000e-01
4.952506e-01
3.750000e-01
2.500000e-01
1.250000e-01
0.000000e+00
1.000000e+00
8.750000e-01
7.500000e-01
6.250000e-01
5.017369e-01
3.750000e-01
2.500000e-01
1.250000e-01
0.000000e+00
1.000000e+00
8.750000e-01
7.500000e-01
6.250000e-01
5.077933e-01
3.750000e-01
2.500000e-01
1.250000e-01
0.000000e+00
1.000000e+00
8.750000e-01
7.500000e-01
6.250000e-01
5.118637e-01
3.750000e-01
2.500000e-01
1.250000e-01
0.000000e+00
1.000000e+00
8.750000e-01
7.500000e-01
6.250000e-01
5.132802e-01
3.750000e-01
2.500000e-01
1.250000e-01
0.000000e+00
1.000000e+00
8.750000e-01
7.500000e-01
6.250000e-01
5.123167e-01
3.750000e-01
2.500000e-01
1.250000e-01
0.000000e+00
1.000000e+00
8.750000e-01
7.500000e-01
6.250000e-01
4.808345e-01
3.750000e-01
2.500000e-01
1.250000e-01
0.000000e+00
1.000000e+00
8.750000e-01
7.500000e-01
6.250000e-01
4.810690e-01
3.750000e-01
2.500000e-01
1.250000e-01
0.000000e+00
1.000000e+00
8.750000e-01
7.500000e-01
6.250000e-01
4.836883e-01
3.750000e-01
2.500000e-01
1.250000e-01
0.000000e+00
1.000000e+00
8.750000e-01
7.500000e-01
6.250000e-01
4.886509e-01
3.750000e-01
2.500000e-01
1.250000e-01
0.000000e+00
1.000000e+00
8.750000e-01
7.500000e-01
6.250000e-01
4.950042e-01
3.750000e-01
2.500000e-01
1.250000e-01
0.000000e+00
1.000000e+00
8.750000e-01
7.500000e-01
6.250000e-01
5.011116e-01
3.750000e-01
2.500000e-01
1.250000e-01
0.000000e+00
1.000000e+00
8.750000e-01
7.500000e-01
6.250000e-01
5.054435e-01
3.750000e-01
2.500000e-01
1.250000e-01
0.000000e+00
1.000000e+00
8.750000e-01
7.500000e-01
6.250000e-01
5.072914e-01
3.750000e-01
2.500000e-01
1.250000e-01
0.000000e+00
1.000000e+00
8.750000e-01
7.500000e-01
6.250000e-01
5.068483e-01
3.750000e-01
2.500000e-01
1.250000e-01
0.000000e+00
1.000000e+00
8.750000e-01
7.500000e-01
6.250000e-01
4.761229e-01
3.750000e-01
2.500000e-01
1.250000e-01
0.000000e+00
1.000000e+00
8.750000e-01
7.500000e-01
6.250000e-01
4.763880e-01
3.750000e-01
2.500000e-01
1.250000e-01
0.000000e+00
1.000000e+00
8.750000e-01
7.500000e-01
6.250000e-01
4.789700e-01
3.750000e-01
2.500000e-01
1.250000e-01
0.000000e+00
1.000000e+00
8.750000e-01
7.500000e-01
6.250000e-01
4.837961e-01
3.750000e-01
2.500000e-01
1.250000e-01
0.000000e+00
1.000000e+00
8.750000e-01
7.500000e-01
6.250000e-01
4.899723e-01
3.750000e-01
2.500000e-01
1.250000e-01
0.000000e+00
1.000000e+00
8.750000e-01
7.500000e-01
6.250000e-01
4.960004e-01
3.750000e-01
2.500000e-01
1.250000e-01
0.000000e+00
1.000000e+00
8.750000e-01
7.500000e-01
6.250000e-01
5.004661e-01
3.750000e-01
2.500000e-01
1.250000e-01
0.000000e+00
1.000000e+00
8.750000e-01
7.500000e-01
6.250000e-01
5.026658e-01
3.750000e-01
2.500000e-01
1.250000e-01
0.000000e+00
1.000000e+00
8.750000e-01
7.500000e-01
6.250000e-01
5.027058e-01
3.750000e-01
2.500000e-01
1.250000e-01
0.000000e+00
1.000000e+00
8.750000e-01
7.500000e-01
6.250000e-01
4.731971e-01
3.750000e-01
2.500000e-01
1.250000e-01
0.000000e+00
1.000000e+00
8.750000e-01
7.500000e-01
6.250000e-01
4.738692e-01
3.750000e-01
2.500000e-01
1.250000e-01
0.000000e+00
1.000000e+00
8.750000e-01
7.500000e-01
6.250000e-01
4.767017e-01
3.750000e-01
2.500000e-01
1.250000e-01
0.000000e+00
1.000000e+00
8.750000e-01
7.500000e-01
6.250000e-01
4.815353e-01
3.750000e-01
2.500000e-01
1.250000e-01
0.000000e+00
1.000000e+00
8.750000e-01
7.500000e-01
6.250000e-01
4.875203e-01
3.750000e-01
2.500000e-01
1.250000e-01
0.000000e+00
1.000000e+00
8.750000e-01
7.500000e-01
6.250000e-01
4.933319e-01
3.750000e-01
2.500000e-01
1.250000e-01
0.000000e+00
1.000000e+00
8.750000e-01
7.500000e-01
6.250000e-01
4.977344e-01
3.750000e-01
2.500000e-01
1.250000e-01
0.000000e+00
1.000000e+00
8.750000e-01
7.500000e-01
6.250000e-01
5.000855e-01
3.750000e-01
2.500000e-01
1.250000e-01
0.000000e+00
1.000000e+00
8.750000e-01
7.500000e-01
6.250000e-01
5.004314e-01
3.750000e-01
2.500000e-01
1.250000e-01
0.000000e+00
1.000000e+00
8.750000e-01
7.500000e-01
6.250000e-01
4.722520e-01
3.750000e-01
2.500000e-01
1.250000e-01
0.000000e+00
1.000000e+00
8.750000e-01
7.500000e-01
6.250000e-01
4.735857e-01
3.750000e-01
2.500000e-01
1.250000e-01
0.000000e+00
1.000000e+00
8.750000e-01
7.500000e-01
6.250000e-01
4.768444e-01
3.750000e-01
2.500000e-01
1.250000e-01
0.000000e+00
1.000000e+00
8.750000e-01
7.500000e-01
6.250000e-01
4.817667e-01
3.750000e-01
2.500000e-01
1.250000e-01
0.000000e+00
1.000000e+00
8.750000e-01
7.500000e-01
6.250000e-01
4.875461e-01
3.750000e-01
2.500000e-01
1.250000e-01
0.000000e+00
1.000000e+00
8.750000e-01
7.500000e-01
6.250000e-01
4.930420e-01
3.750000e-01
2.500000e-01
1.250000e-01
0.000000e+00
1.000000e+00
8.750000e-01
7.500000e-01
6.250000e-01
4.972207e-01
3.750000e-01
2.500000e-01
1.250000e-01
0.000000e+00
1.000000e+00
8.750000e-01
7.500000e-01
6.250000e-01
4.995353e-01
3.750000e-01
2.500000e-01
1.250000e-01
0.000000e+00
1.000000e+00
8.750000e-01
7.500000e-01
6.250000e-01
5.000030e-01
3.750000e-01
2.500000e-01
1.250000e-01
0.000000e+00
        </DataArray>
        <DataArray type="Float32" Name="velocity" NumberOfComponents="3" format="ascii">
3.367844e-01 5.469004e-08 -1.654516e-02
3.379218e-01 7.423712e-08 -7.842035e-03
2.870454e-01 5.933541e-08 8.668502e-04
1.825297e-01 4.089765e-08 9.050835e-03
3.293564e-02 3.952789e-08 1.622089e-02
-1.068628e-01 3.947278e-08 2.016277e-02
-1.993167e-01 3.393187e-08 2.010502e-02
-2.521800e-01 3.335550e-08 1.752399e-02
-2.768448e-01 3.776109e-08 1.360051e-02
1.031202e+00 7.334609e-08 -1.626384e-01
1.043986e+00 8.883249e-08 -7.722217e-02
8.973395e-01 6.818546e-08 8.274625e-03
5.817216e-01 5.005816e-08 8.711813e-02
1.236186e-01 4.576112e-08 1.570162e-01
-3.078118e-01 4.183103e-08 1.972776e-01
-5.965514e-01 5.570078e-08 1.986483e-01
-7.650415e-01 6.900977e-08 1.732307e-01
-8.452295e-01 8.981833e-08 1.333073e-01
1.614523e+00 7.962922e-08 -4.528967e-01
1.677290e+00 9.023532e-08 -2.066930e-01
1.481445e+00 3.645907e-08 3.474677e-02
1.004944e+00 4.620469e-08 2.576035e-01
2.847911e-01 5.014864e-08 4.525577e-01
-4.047441e-01 4.877113e-08 5.607656e-01
-8.787891e-01 6.499342e-08 5.576996e-01
-1.166887e+00 7.604970e-08 4.833361e-01
-1.314760e+00 9.057625e-08 3.688089e-01
1.934590e+00 6.028583e-08 -8.134969e-01
2.115071e+00 5.345556e-08 -3.438157e-01
1.960789e+00 3.107496e-08 1.059633e-01
1.428757e+00 2.466726e-08 5.151229e-01
5.632405e-01 2.484066e-08 8.647119e-01
-2.975492e-01 3.770110e-08 1.047668e+00
-9.200297e-01 3.614494e-08 1.027143e+00
-1.326818e+00 3.947772e-08 8.773015e-01
-1.561219e+00 6.139733e-08 6.564940e-01
1.893681e+00 -2.305121e-08 -1.101286e+00
2.269372e+00 -3.558605e-09 -3.986610e-01
2.266017e+00 2.136353e-08 2.521211e-01
1.819022e+00 5.188790e-08 8.255902e-01
9.670087e-01 1.015827e-08 1.295800e+00
6.158738e-02 -2.457632e-08 1.518806e+00
-6.525366e-01 -4.581261e-08 1.454708e+00
-1.167165e+00 -5.407797e-08 1.214550e+00
-1.505542e+00 -6.862309e-08 8.755606e-01
1.510663e+00 -2.357710e-08 -1.161444e+00
2.136174e+00 -8.601842e-08 -2.836964e-01
2.369967e+00 -8.708594e-08 4.892140e-01
2.129252e+00 4.347469e-09 1.136689e+00
1.444969e+00 2.305121e-09 1.625769e+00
6.164957e-01 -6.701895e-08 1.811084e+00
-1.223810e-01 -1.225966e-07 1.672705e+00
-7.245137e-01 -2.004143e-07 1.340922e+00
-1.174071e+00 -2.278547e-07 9.026625e-01
9.274579e-01 -6.462317e-08 -9.175217e-01
1.795070e+00 -8.345636e-08 3.396576e-02
2.292167e+00 -1.195887e-07 8.121251e-01
2.321182e+00 -9.990773e-08 1.399085e+00
1.890518e+00 -1.012452e-07 1.773053e+00
1.225973e+00 -1.415787e-07 1.827187e+00
5.170683e-01 -2.020437e-07 1.583780e+00
-1.356809e-01 -2.316619e-07 1.174314e+00
-6.794331e-01 -2.440528e-07 6.721540e-01
3.116356e-01 -1.321817e-07 -3.903554e-01
1.373434e+00 -1.074381e-07 5.216418e-01
2.090598e+00 -1.112746e-07 1.180342e+00
2.369296e+00 -1.898860e-07 1.590553e+00
2.211929e+00 -1.630792e-07 1.726282e+00
1.732538e+00 -1.644446e-07 1.566751e+00
1.086305e+00 -1.934859e-07 1.203639e+00
4.138773e-01 -1.990181e-07 7.494090e-01
-1.864844e-01 -1.874524e-07 2.335907e-01
-2.073375e-01 -1.458328e-07 3.260634e-01
1.002422e+00 -1.703885e-07 1.096786e+00
1.834085e+00 -1.681190e-07 1.554615e+00
2.284873e+00 -1.774284e-07 1.695304e+00
2.324346e+00 -1.538322e-07 1.510121e+00
2.007667e+00 -1.685072e-07 1.111689e+00
1.453545e+00 -1.820207e-07 6.295093e-01
8.009587e-01 -1.813091e-07 1.395570e-01
1.836933e-01 -2.367547e-07 -2.888801e-01
3.383706e-01 -7.312593e-01 6.226915e-02
3.373934e-01 -7.344026e-01 3.003801e-02
2.847756e-01 -6.258876e-01 -2.575752e-03
1.790217e-01 -3.996409e-01 -3.190828e-02
2.870906e-02 -7.493354e-02 -5.833237e-02
-1.112484e-01 2.293161e-01 -7.457359e-02
-2.033498e-01 4.314415e-01 -7.629186e-02
-2.554071e-01 5.477537e-01 -6.671932e-02
-2.789390e-01 6.015294e-01 -5.119288e-02
1.062278e+00 -7.697569e-01 -8.546706e-02
1.069893e+00 -7.658227e-01 -3.983582e-02
9.135133e-01 -6.446667e-01 5.172124e-03
5.855324e-01 -4.025920e-01 4.770000e-02
1.137036e-01 -6.096707e-02 8.497904e-02
-3.298033e-01 2.576186e-01 1.051348e-01
-6.257415e-01 4.677816e-01 1.045055e-01
-7.970274e-01 5.868021e-01 9.081450e-02
-8.772760e-01 6.404839e-01 7.004045e-02
1.664330e+00 -8.175449e-01 -3.890950e-01
1.724651e+00 -7.967602e-01 -1.738198e-01
1.515717e+00 -6.534510e-01 3.417503e-02
1.021387e+00 -3.874056e-01 2.308378e-01
2.780286e-01 -2.377895e-02 4.017852e-01
-4.354472e-01 3.110006e-01 4.905772e-01
-9.247448e-01 5.273856e-01 4.829644e-01
-1.221126e+00 6.452948e-01 4.163351e-01
-1.372878e+00 6.954816e-01 3.184372e-01
1.967352e+00 -8.665954e-01 -7.613965e-01
2.160859e+00 -8.210981e-01 -3.108757e-01
2.001391e+00 -6.470972e-01 1.158526e-01
1.460112e+00 -3.516618e-01 5.107198e-01
5.776535e-01 3.458442e-02 8.459312e-01
-3.098486e-01 3.838800e-01 1.008813e+00
-9.540643e-01 6.022436e-01 9.779783e-01
-1.375752e+00 7.141745e-01 8.302602e-01
-1.624628e+00 7.584390e-01 6.233374e-01
1.860606e+00 -9.003202e-01 -1.029668e+00
2.281002e+00 -8.264539e-01 -3.457767e-01
2.290953e+00 -6.211775e-01 2.834544e-01
1.861510e+00 -2.997413e-01 8.447753e-01
1.020684e+00 1.021606e-01 1.297250e+00
9.772357e-02 4.580355e-01 1.492453e+00
-6.370228e-01 6.717767e-01 1.410355e+00
-1.174903e+00 7.725816e-01 1.166750e+00
-1.546356e+00 8.080887e-01 8.476861e-01
1.389205e+00 -8.976561e-01 -1.019380e+00
2.086810e+00 -8.006101e-01 -1.820982e-01
2.357011e+00 -5.741335e-01 5.548872e-01
2.167279e+00 -2.405903e-01 1.168184e+00
1.533347e+00 1.605985e-01 1.614232e+00
7.097575e-01 5.089097e-01 1.752461e+00
-4.329851e-02 7.099098e-01 1.586507e+00
-6.684487e-01 7.961802e-01 1.250970e+00
-1.168533e+00 8.225388e-01 8.476789e-01
7.333146e-01 -8.502769e-01 -6.578595e-01
1.687681e+00 -7.376482e-01 2.058152e-01
2.227878e+00 -5.076347e-01 9.152617e-01
2.330342e+00 -1.841614e-01 1.428464e+00
1.982950e+00 1.958617e-01 1.710619e+00
1.344794e+00 5.197005e-01 1.691565e+00
6.383670e-01 6.991437e-01 1.410349e+00
-3.596485e-02 7.695210e-01 1.002683e+00
-6.383470e-01 7.828399e-01 5.659705e-01
1.100170e-01 -7.523025e-01 -2.367409e-02
1.229867e+00 -6.478288e-01 7.590720e-01
1.974960e+00 -4.296451e-01 1.317925e+00
2.322146e+00 -1.342595e-01 1.607828e+00
2.255678e+00 2.019204e-01 1.602416e+00
1.821896e+00 4.858360e-01 1.340403e+00
1.199198e+00 6.392116e-01 9.303163e-01
5.316061e-01 6.920446e-01 4.735360e-01
-1.188280e-01 7.112511e-01 4.294555e-02
-3.430146e-01 -6.943273e-01 7.414892e-01
8.229849e-01 -5.294705e-01 1.370950e+00
1.678978e+00 -3.449014e-01 1.713843e+00
2.176687e+00 -9.246914e-02 1.703296e+00
2.295903e+00 2.027910e-01 1.356475e+00
2.044981e+00 4.271232e-01 8.369222e-01
1.534348e+00 5.415211e-01 2.967144e-01
9.182671e-01 5.696943e-01 -1.933087e-01
2.778808e-01 4.973956e-01 -5.883230e-01
3.430489e-01 -1.403333e+00 3.038330e-01
3.354988e-01 -1.436213e+00 1.411234e-01
2.775918e-01 -1.249576e+00 -1.933190e-02
1.679535e-01 -8.268224e-01 -1.671899e-01
1.530214e-02 -2.006640e-01 -2.975566e-01
-1.249805e-01 3.924322e-01 -3.720244e-01
-2.154484e-01 7.938626e-01 -3.722621e-01
-2.647694e-01 1.032078e+00 -3.242552e-01
-2.849236e-01 1.148891e+00 -2.485440e-01
1.108099e+00 -1.475052e+00 1.701756e-01
1.095408e+00 -1.496985e+00 7.711513e-02
9.154822e-01 -1.288305e+00 -1.272531e-02
5.632418e-01 -8.376871e-01 -9.876113e-02
6.984473e-02 -1.783854e-01 -1.742420e-01
-3.882751e-01 4.447201e-01 -2.135591e-01
-6.885785e-01 8.628816e-01 -2.105816e-01
-8.568335e-01 1.108075e+00 -1.821050e-01
-9.309012e-01 1.225656e+00 -1.396970e-01
1.751690e+00 -1.574552e+00 -1.320787e-01
1.775936e+00 -1.558823e+00 -5.548570e-02
1.527498e+00 -1.307288e+00 1.700204e-02
9.904612e-01 -8.095689e-01 8.433997e-02
2.030531e-01 -1.012344e-01 1.417747e-01
-5.416697e-01 5.574875e-01 1.707443e-01
-1.041066e+00 9.879374e-01 1.666470e-01
-1.334250e+00 1.230796e+00 1.423519e-01
-1.473300e+00 1.336504e+00 1.079579e-01
2.074288e+00 -1.684953e+00 -5.097624e-01
2.221449e+00 -1.607451e+00 -1.879738e-01
2.014195e+00 -1.293111e+00 1.076501e-01
1.419381e+00 -7.354040e-01 3.764458e-01
4.803370e-01 2.697441e-02 5.980962e-01
-4.457813e-01 7.181356e-01 7.016105e-01
-1.103180e+00 1.151630e+00 6.729485e-01
-1.520629e+00 1.379701e+00 5.644707e-01
-1.749690e+00 1.463171e+00 4.184876e-01
1.948147e+00 -1.763030e+00 -7.698949e-01
2.321976e+00 -1.615302e+00 -2.048797e-01
2.285909e+00 -1.235614e+00 2.953738e-01
1.806966e+00 -6.241589e-01 7.286897e-01
9.146321e-01 1.765438e-01 1.061746e+00
-3.996957e-02 8.835067e-01 1.192454e+00
-7.830439e-01 1.304245e+00 1.108105e+00
-1.313798e+00 1.507166e+00 9.001045e-01
-1.660218e+00 1.562428e+00 6.383597e-01
1.431771e+00 -1.760950e+00 -7.202972e-01
2.084660e+00 -1.553679e+00 -3.878712e-03
2.315344e+00 -1.130238e+00 5.947520e-01
2.088433e+00 -4.963374e-01 1.067359e+00
1.421753e+00 3.046086e-01 1.375828e+00
5.857481e-01 9.928727e-01 1.435330e+00
-1.639574e-01 1.383425e+00 1.259957e+00
-7.764555e-01 1.552194e+00 9.583768e-01
-1.245255e+00 1.577507e+00 6.116733e-01
7.425589e-01 -1.647636e+00 -3.015877e-01
1.641106e+00 -1.413364e+00 4.287609e-01
2.137401e+00 -9.838707e-01 9.841579e-01
2.210574e+00 -3.732630e-01 1.336751e+00
1.848403e+00 3.750149e-01 1.456822e+00
1.220474e+00 1.006417e+00 1.338624e+00
5.357652e-01 1.347653e+00 1.037173e+00
-1.135735e-01 1.482482e+00 6.599635e-01
-6.755468e-01 1.484949e+00 2.793260e-01
1.267410e-01 -1.449759e+00 3.743474e-01
1.151578e+00 -1.216145e+00 1.012574e+00
1.834351e+00 -8.119996e-01 1.406972e+00
2.147877e+00 -2.627653e-01 1.523130e+00
2.075486e+00 3.883184e-01 1.339538e+00
1.668941e+00 9.234536e-01 9.616022e-01
1.087751e+00 1.200300e+00 5.215806e-01
4.640611e-01 1.291094e+00 8.889512e-02
-1.339409e-01 1.278121e+00 -2.952876e-01
-2.931334e-01 -1.243323e+00 1.160760e+00
7.376255e-01 -9.783043e-01 1.635448e+00
1.504138e+00 -6.352646e-01 1.810990e+00
1.944049e+00 -1.815419e-01 1.622826e+00
2.044835e+00 3.600119e-01 1.091536e+00
1.824914e+00 7.815065e-01 4.529667e-01
1.369880e+00 9.889432e-01 -1.179264e-01
8.161824e-01 1.032418e+00 -5.799803e-01
2.426254e-01 9.465092e-01 -9.236812e-01
3.483085e-01 -1.854084e+00 6.583248e-01
3.303110e-01 -1.975984e+00 2.871484e-01
2.642940e-01 -1.790237e+00 -7.118720e-02
1.491637e-01 -1.260799e+00 -3.989824e-01
-6.130716e-03 -4.307578e-01 -6.820977e-01
-1.457080e-01 3.792599e-01 -8.345239e-01
-2.327410e-01 9.503342e-01 -8.239185e-01
-2.771123e-01 1.311074e+00 -7.083586e-01
-2.917072e-01 1.507739e+00 -5.349333e-01
1.160117e+00 -1.925921e+00 5.453171e-01
1.113730e+00 -2.044853e+00 2.282956e-01
8.967620e-01 -1.838637e+00 -7.309225e-02
5.109769e-01 -1.282403e+00 -3.545437e-01
-6.929393e-03 -4.178328e-01 -5.961161e-01
-4.782141e-01 4.292444e-01 -7.149216e-01
-7.771010e-01 1.024545e+00 -6.957481e-01
-9.349497e-01 1.397450e+00 -5.932110e-01
-9.979272e-01 1.601977e+00 -4.478536e-01
1.863259e+00 -2.055871e+00 2.555081e-01
1.818862e+00 -2.121227e+00 9.534212e-02
1.502862e+00 -1.859076e+00 -5.165740e-02
9.028025e-01 -1.240037e+00 -1.865146e-01
6.040739e-02 -3.093801e-01 -2.980456e-01
-7.153766e-01 5.833392e-01 -3.506897e-01
-1.215053e+00 1.194314e+00 -3.371530e-01
-1.489747e+00 1.562472e+00 -2.830897e-01
-1.602518e+00 1.746026e+00 -2.105329e-01
2.238187e+00 -2.218860e+00 -1.198676e-01
2.281415e+00 -2.185061e+00 -3.638094e-02
1.976351e+00 -1.828845e+00 3.836026e-02
1.289534e+00 -1.120376e+00 1.037591e-01
2.715118e-01 -1.117537e-01 1.555740e-01
-6.975526e-01 8.245049e-01 1.771715e-01
-1.353261e+00 1.435653e+00 1.664585e-01
-1.740778e+00 1.776573e+00 1.370138e-01
-1.927039e+00 1.920170e+00 9.880646e-02
2.138990e+00 -2.347905e+00 -3.796305e-01
2.379704e+00 -2.192535e+00 -4.744157e-02
2.222583e+00 -1.732324e+00 2.353778e-01
1.633512e+00 -9.393570e-01 4.651451e-01
6.510817e-01 1.288537e-01 6.287692e-01
-3.474677e-01 1.083488e+00 6.747681e-01
-1.080685e+00 1.671128e+00 6.059604e-01
-1.567095e+00 1.965603e+00 4.753261e-01
-1.854302e+00 2.055046e+00 3.194566e-01
1.622702e+00 -2.354050e+00 -3.255378e-01
2.121671e+00 -2.097602e+00 1.657057e-01
2.215372e+00 -1.564736e+00 5.512311e-01
1.870489e+00 -7.327798e-01 8.211944e-01
1.116119e+00 3.367307e-01 9.574243e-01
2.450550e-01 1.260349e+00 9.275507e-01
-4.807640e-01 1.797390e+00 7.622884e-01
-1.034094e+00 2.035165e+00 5.328500e-01
-1.430530e+00 2.071950e+00 2.887860e-01
9.296900e-01 -2.192725e+00 9.275537e-02
1.650691e+00 -1.885127e+00 6.080662e-01
1.996460e+00 -1.336521e+00 9.582433e-01
1.947160e+00 -5.366250e-01 1.111798e+00
1.503909e+00 4.549233e-01 1.060187e+00
8.544131e-01 1.288292e+00 8.484785e-01
2.092542e-01 1.746842e+00 5.515091e-01
-3.639699e-01 1.924524e+00 2.392038e-01
-8.397834e-01 1.918984e+00 -4.618558e-02
3.140567e-01 -1.889197e+00 7.524913e-01
1.141329e+00 -1.585506e+00 1.189562e+00
1.657565e+00 -1.076234e+00 1.392217e+00
1.842131e+00 -3.695820e-01 1.321947e+00
1.690421e+00 4.762828e-01 9.745181e-01
1.271484e+00 1.168013e+00 5.087024e-01
7.428665e-01 1.530467e+00 7.036838e-02
2.063462e-01 1.647830e+00 -3.028496e-01
-2.960807e-01 1.619537e+00 -5.966409e-01
-8.972027e-02 -1.532272e+00 1.480932e+00
7.182835e-01 -1.234014e+00 1.790920e+00
1.300411e+00 -8.139888e-01 1.797697e+00
1.603787e+00 -2.495025e-01 1.449639e+00
1.621639e+00 4.227472e-01 7.804093e-01
1.392325e+00 9.577195e-01 6.245295e-02
9.986714e-01 1.224537e+00 -5.071934e-01
5.406581e-01 1.290932e+00 -9.222305e-01
8.139734e-02 1.211452e+00 -1.196574e+00
3.481863e-01 -1.956985e+00 9.971349e-01
3.182583e-01 -2.246141e+00 3.855889e-01
2.439556e-01 -2.170128e+00 -1.879342e-01
1.245475e-01 -1.671084e+00 -6.994359e-01
-3.095217e-02 -7.902892e-01 -1.126563e+00
-1.670797e-01 1.155809e-01 -1.338938e+00
-2.482901e-01 8.034691e-01 -1.295283e+00
-2.860656e-01 1.278390e+00 -1.093034e+00
-2.938149e-01 1.573482e+00 -8.010493e-01
1.196874e+00 -1.974321e+00 8.826172e-01
1.109898e+00 -2.287718e+00 3.159382e-01
8.524283e-01 -2.205705e+00 -2.092678e-01
4.347916e-01 -1.701995e+00 -6.843724e-01
-1.006571e-01 -8.096333e-01 -1.074400e+00
-5.762660e-01 1.270573e-01 -1.249148e+00
-8.654314e-01 8.388187e-01 -1.189343e+00
-1.005869e+00 1.333530e+00 -9.922983e-01
-1.053662e+00 1.652968e+00 -7.295954e-01
1.953138e+00 -2.090361e+00 5.962619e-01
1.824405e+00 -2.346905e+00 1.703657e-01
1.431191e+00 -2.208402e+00 -2.083972e-01
7.681958e-01 -1.643605e+00 -5.403315e-01
-1.184176e-01 -6.879699e-01 -7.989790e-01
-9.111025e-01 2.886451e-01 -9.046973e-01
-1.394496e+00 1.011264e+00 -8.458322e-01
-1.638228e+00 1.497567e+00 -6.915278e-01
-1.716148e+00 1.789577e+00 -4.954489e-01
2.393027e+00 -2.276239e+00 2.202974e-01
2.297588e+00 -2.403911e+00 3.015075e-02
1.872589e+00 -2.148626e+00 -1.318515e-01
1.086827e+00 -1.477645e+00 -2.638339e-01
-2.990026e-03 -4.347419e-01 -3.591509e-01
-9.964401e-01 5.843682e-01 -3.866055e-01
-1.627589e+00 1.297599e+00 -3.479682e-01
-1.963508e+00 1.741437e+00 -2.741304e-01
-2.088366e+00 1.976412e+00 -1.856160e-01
2.350265e+00 -2.446322e+00 -4.708782e-02
2.402055e+00 -2.405200e+00 1.287610e-02
2.083774e+00 -2.008993e+00 6.111309e-02
1.362993e+00 -1.226464e+00 9.640065e-02
2.866252e-01 -1.086400e-01 1.163937e-01
-7.403708e-01 9.275036e-01 1.161210e-01
-1.435951e+00 1.601502e+00 9.802603e-02
-1.850289e+00 1.977728e+00 7.110543e-02
-2.050570e+00 2.133628e+00 4.163353e-02
1.874588e+00 -2.482153e+00 -1.499335e-02
2.142195e+00 -2.289306e+00 2.176770e-01
2.041689e+00 -1.784628e+00 3.801191e-01
1.541590e+00 -9.400568e-01 4.667597e-01
6.781077e-01 1.875935e-01 4.678579e-01
-2.192283e-01 1.183930e+00 3.964905e-01
-8.943822e-01 1.787083e+00 2.808331e-01
-1.355235e+00 2.080061e+00 1.508427e-01
-1.641069e+00 2.155479e+00 2.757574e-02
1.198584e+00 -2.307737e+00 3.612892e-01
1.662832e+00 -2.031489e+00 6.442774e-01
1.793785e+00 -1.490925e+00 7.935103e-01
1.574384e+00 -6.714342e-01 7.848635e-01
1.016302e+00 3.695932e-01 6.166128e-01
3.433323e-01 1.257669e+00 3.720719e-01
-2.406531e-01 1.760216e+00 1.242407e-01
-7.078245e-01 1.971483e+00 -9.492148e-02
-1.058069e+00 1.986142e+00 -2.702576e-01
5.840374e-01 -1.949330e+00 9.546494e-01
1.142732e+00 -1.663015e+00 1.198202e+00
1.434557e+00 -1.162894e+00 1.233656e+00
1.444004e+00 -4.491255e-01 1.031550e+00
1.174497e+00 4.224430e-01 5.969265e-01
7.363697e-01 1.142995e+00 1.144726e-01
2.760368e-01 1.530057e+00 -2.755199e-01
-1.462678e-01 1.667997e+00 -5.669681e-01
-5.129142e-01 1.647422e+00 -7.652810e-01
1.681822e-01 -1.502432e+00 1.597325e+00
7.064118e-01 -1.237672e+00 1.758648e+00
1.063582e+00 -8.371703e-01 1.640174e+00
1.195711e+00 -2.897412e-01 1.204080e+00
1.105262e+00 3.729680e-01 4.857929e-01
8.596620e-01 9.092045e-01 -2.308820e-01
5.346048e-01 1.184901e+00 -7.546056e-01
1.937339e-01 1.264726e+00 -1.099360e+00
-1.297485e-01 1.206942e+00 -1.299716e+00
3.361812e-01 -1.692686e+00 1.158795e+00
2.961567e-01 -2.216175e+00 3.427223e-01
2.169048e-01 -2.349192e+00 -3.898531e-01
9.762032e-02 -2.014376e+00 -1.017731e+00
-5.273521e-02 -1.248106e+00 -1.509282e+00
-1.809276e-01 -3.748475e-01 -1.717598e+00
-2.540360e-01 3.623851e-01 -1.612650e+00
-2.844157e-01 9.345804e-01 -1.317410e+00
-2.856128e-01 1.340456e+00 -9.167098e-01
1.189828e+00 -1.619886e+00 9.954524e-01
1.068072e+00 -2.196646e+00 2.347592e-01
7.809827e-01 -2.348046e+00 -4.441636e-01
3.474206e-01 -2.043090e+00 -1.023560e+00
-1.858310e-01 -1.305328e+00 -1.462382e+00
-6.487550e-01 -4.235749e-01 -1.617948e+00
-9.183717e-01 3.317557e-01 -1.487034e+00
-1.037124e+00 9.241430e-01 -1.193828e+00
-1.069786e+00 1.372513e+00 -8.317343e-01
1.964981e+00 -1.685342e+00 6.806632e-01
1.759739e+00 -2.208893e+00 5.536932e-02
1.308210e+00 -2.312550e+00 -4.738364e-01
6.115629e-01 -1.961142e+00 -9.027289e-01
-2.822278e-01 -1.181108e+00 -1.195972e+00
-1.057493e+00 -2.803801e-01 -1.270125e+00
-1.506540e+00 4.735587e-01 -1.132027e+00
-1.709246e+00 1.052231e+00 -8.773061e-01
-1.749779e+00 1.467275e+00 -5.784071e-01
2.439061e+00 -1.862507e+00 2.933527e-01
2.218106e+00 -2.238121e+00 -1.047232e-01
1.697411e+00 -2.211558e+00 -4.206036e-01
8.510420e-01 -1.749354e+00 -6.480337e-01
-2.584413e-01 -8.883439e-01 -7.717919e-01
-1.230488e+00 4.291533e-02 -7.595371e-01
-1.810365e+00 7.718995e-01 -6.339184e-01
-2.082629e+00 1.292796e+00 -4.530819e-01
-2.145166e+00 1.637815e+00 -2.577566e-01
2.451086e+00 -2.061785e+00 1.890274e-02
2.320600e+00 -2.227408e+00 -1.346396e-01
1.863377e+00 -2.029363e+00 -2.422476e-01
1.049487e+00 -1.435966e+00 -3.020827e-01
-6.600304e-02 -4.898819e-01 -3.061176e-01
-1.071042e+00 4.520015e-01 -2.621940e-01
-1.698786e+00 1.126293e+00 -1.883647e-01
-2.023356e+00 1.558153e+00 -1.041808e-01
-2.131701e+00 1.800387e+00 -2.399801e-02
2.030056e+00 -2.139055e+00 2.873447e-02
2.068034e+00 -2.106476e+00 5.510877e-02
1.789547e+00 -1.763321e+00 6.963426e-02
1.165058e+00 -1.080830e+00 7.036195e-02
2.409098e-01 -1.091438e-01 5.718587e-02
-6.389090e-01 7.923487e-01 3.681127e-02
-1.234256e+00 1.380773e+00 1.545344e-02
-1.586255e+00 1.708881e+00 -4.009245e-03
-1.756034e+00 1.846376e+00 -2.010116e-02
1.392136e+00 -1.998153e+00 3.561055e-01
1.596376e+00 -1.839676e+00 4.584003e-01
1.524739e+00 -1.429203e+00 4.819373e-01
1.158527e+00 -7.496900e-01 4.097495e-01
5.239084e-01 1.497878e-01 2.483647e-01
-1.371580e-01 9.414930e-01 6.604085e-02
-6.364882e-01 1.417908e+00 -8.564594e-02
-9.813662e-01 1.645851e+00 -1.999994e-01
-1.198833e+00 1.700970e+00 -2.782099e-01
7.836623e-01 -1.649101e+00 8.824687e-01
1.078232e+00 -1.452411e+00 9.816316e-01
1.161248e+00 -1.064195e+00 9.252340e-01
1.017720e+00 -4.793140e-01 6.917573e-01
6.636021e-01 2.563736e-01 2.937034e-01
2.341560e-01 8.795020e-01 -1.081296e-01
-1.401503e-01 1.231554e+00 -4.020733e-01
-4.382097e-01 1.375519e+00 -5.972547e-01
-6.668526e-01 1.381269e+00 -7.110820e-01
3.471357e-01 -1.182735e+00 1.446087e+00
6.351244e-01 -1.005047e+00 1.507825e+00
7.883270e-01 -7.069325e-01 1.337129e+00
7.788342e-01 -2.835766e-01 9.110165e-01
6.156115e-01 2.389734e-01 2.639066e-01
3.777268e-01 6.729584e-01 -3.576869e-01
1.349056e-01 9.061609e-01 -7.865225e-01
-8.825902e-02 9.863193e-01 -1.048828e+00
-2.801520e-01 9.615338e-01 -1.184331e+00
3.092859e-01 -1.175266e+00 1.039803e+00
2.636919e-01 -1.945274e+00 1.077757e-01
1.849144e-01 -2.336030e+00 -6.789363e-01
7.228603e-02 -2.252433e+00 -1.300264e+00
-6.622259e-02 -1.710445e+00 -1.732060e+00
-1.816636e-01 -9.726355e-01 -1.847985e+00
-2.448120e-01 -2.448039e-01 -1.650821e+00
-2.681435e-01 3.910962e-01 -1.273068e+00
-2.641846e-01 8.980506e-01 -7.931714e-01
1.125559e+00 -1.012933e+00 7.743655e-01
9.806992e-01 -1.859157e+00 -6.404601e-02
6.858374e-01 -2.281345e+00 -7.718878e-01
2.636378e-01 -2.257738e+00 -1.313062e+00
-2.410871e-01 -1.784384e+00 -1.650665e+00