<?xml version="1.0"?>
<VTKFile type="StructuredGrid" version="0.1">
  <StructuredGrid WholeExtent="0 8 0 8 0 8">
    <Piece Extent="0 8 0 8 0 8">
      <PointData Scalars="temperature" Vectors="velocity">
        <DataArray type="Float32" Name="temperature" format="ascii">
1.000000e+00
8.750000e-01
7.500000e-01
6.250000e-01
5.276118e-01
3.750000e-01
2.500000e-01
1.250000e-01
0.000000e+00
1.000000e+00
8.750000e-01
7.500000e-01
6.250000e-01
5.262658e-01
3.750000e-01
2.500000e-01
1.250000e-01
0.000000e+00
1.000000e+00
8.750000e-01
7.500000e-01
6.250000e-01
5.230003e-01
3.750000e-01
2.500000e-01
1.250000e-01
0.000000e+00
1.000000e+00
8.750000e-01
7.500000e-01
6.250000e-01
5.180810e-01
3.750000e-01
2.500000e-01
1.250000e-01
0.000000e+00
1.000000e+00
8.750000e-01
7.500000e-01
6.250000e-01
5.123167e-01
3.750000e-01
2.500000e-01
1.250000e-01
0.000000e+00
1.000000e+00
8.750000e-01
7.500000e-01
6.250000e-01
5.068483e-01
3.750000e-01
2.500000e-01
1.250000e-01
0.000000e+00
1.000000e+00
8.750000e-01
7.500000e-01
6.250000e-01
5.027058e-01
3.750000e-01
2.500000e-01
1.250000e-01
0.000000e+00
1.000000e+00
8.750000e-01
7.500000e-01
6.250000e-01
5.004314e-01
3.750000e-01
2.500000e-01
1.250000e-01
0.000000e+00
1.000000e+00
8.750000e-01
7.500000e-01
6.250000e-01
5.000030e-01
3.750000e-01
2.500000e-01
1.250000e-01
0.000000e+00
1.000000e+00
8.750000e-01
7.500000e-01
6.250000e-01
5.262658e-01
3.750000e-01
2.500000e-01
1.250000e-01
0.000000e+00
1.000000e+00
8.750000e-01
7.500000e-01
6.250000e-01
5.255123e-01
3.750000e-01
2.500000e-01
1.250000e-01
0.000000e+00
1.000000e+00
8.750000e-01
7.500000e-01
6.250000e-01
5.225955e-01
3.750000e-01
2.500000e-01
1.250000e-01
0.000000e+00
1.000000e+00
8.750000e-01
7.500000e-01
6.250000e-01
5.176858e-01
3.750000e-01
2.500000e-01
1.250000e-01
0.000000e+00
1.000000e+00
8.750000e-01
7.500000e-01
6.250000e-01
5.116465e-01
3.750000e-01
2.500000e-01
1.250000e-01
0.000000e+00
1.000000e+00
8.750000e-01
7.500000e-01
6.250000e-01
5.058126e-01
3.750000e-01
2.500000e-01
1.250000e-01
0.000000e+00
1.000000e+00
8.750000e-01
7.500000e-01
6.250000e-01
5.014227e-01
3.750000e-01
2.500000e-01
1.250000e-01
0.000000e+00
1.000000e+00
8.750000e-01
7.500000e-01
6.250000e-01
4.991137e-01
3.750000e-01
2.500000e-01
1.250000e-01
0.000000e+00
1.000000e+00
8.750000e-01
7.500000e-01
6.250000e-01
4.988291e-01
3.750000e-01
2.500000e-01
1.250000e-01
0.000000e+00
1.000000e+00
8.750000e-01
7.500000e-01
6.250000e-01
5.230003e-01
3.750000e-01
2.500000e-01
1.250000e-01
0.000000e+00
1.000000e+00
8.750000e-01
7.500000e-01
6.250000e-01
5.225955e-01
3.750000e-01
2.500000e-01
1.250000e-01
0.000000e+00
1.000000e+00
8.750000e-01
7.500000e-01
6.250000e-01
5.198577e-01
3.750000e-01
2.500000e-01
1.250000e-01
0.000000e+00
1.000000e+00
8.750000e-01
7.500000e-01
6.250000e-01
5.148763e-01
3.750000e-01
2.500000e-01
1.250000e-01
0.000000e+00
1.000000e+00
8.750000e-01
7.500000e-01
6.250000e-01
5.085695e-01
3.750000e-01
2.500000e-01
1.250000e-01
0.000000e+00
1.000000e+00
8.750000e-01
7.500000e-01
6.250000e-01
5.024589e-01
3.750000e-01
2.500000e-01
1.250000e-01
0.000000e+00
1.000000e+00
8.750000e-01
7.500000e-01
6.250000e-01
4.979710e-01
3.750000e-01
2.500000e-01
1.250000e-01
0.000000e+00
1.000000e+00
8.750000e-01
7.500000e-01
6.250000e-01
4.958054e-01
3.750000e-01
2.500000e-01
1.250000e-01
0.000000e+00
1.000000e+00
8.750000e-01
7.500000e-01
6.250000e-01
4.958411e-01
3.750000e-01
2.500000e-01
1.250000e-01
0.000000e+00
1.000000e+00
8.750000e-01
7.500000e-01
6.250000e-01
5.180810e-01
3.750000e-01
2.500000e-01
1.250000e-01
0.000000e+00
1.000000e+00
8.750000e-01
7.500000e-01
6.250000e-01
5.176858e-01
3.750000e-01
2.500000e-01
1.250000e-01
0.000000e+00
1.000000e+00
8.750000e-01
7.500000e-01
6.250000e-01
5.148763e-01
3.750000e-01
2.500000e-01
1.250000e-01
0.000000e+00
1.000000e+00
8.750000e-01
7.500000e-01
6.250000e-01
5.097084e-01
3.750000e-01
2.500000e-01
1.250000e-01
0.000000e+00
1.000000e+00
8.750000e-01
7.500000e-01
6.250000e-01
5.031631e-01
3.750000e-01
2.500000e-01
1.250000e-01
0.000000e+00
1.000000e+00
8.750000e-01
7.500000e-01
6.250000e-01
4.969105e-01
3.750000e-01
2.500000e-01
1.250000e-01
0.000000e+00
1.000000e+00
8.750000e-01
7.500000e-01
6.250000e-01
4.925040e-01
3.750000e-01
2.500000e-01
1.250000e-01
0.000000e+00
1.000000e+00
8.750000e-01
7.500000e-01
6.250000e-01
4.906559e-01
3.750000e-01
2.500000e-01
1.250000e-01
0.000000e+00
1.000000e+00
8.750000e-01
7.500000e-01
6.250000e-01
4.911596e-01
3.750000e-01
2.500000e-01
1.250000e-01
0.000000e+00
1.000000e+00
8.750000e-01
7.500000e-01
6.250000e-01
5.123167e-01
3.750000e-01
2.500000e-01
1.250000e-01
0.000000e+00
1.000000e+00
8.750000e-01
7.500000e-01
6.250000e-01
5.116465e-01
3.750000e-01
2.500000e-01
1.250000e-01
0.000000e+00
1.000000e+00
8.750000e-01
7.500000e-01
6.250000e-01
5.085695e-01
3.750000e-01
2.500000e-01
1.250000e-01
0.000000e+00
1.000000e+00
8.750000e-01
7.500000e-01
6.250000e-01
5.031631e-01
3.750000e-01
2.500000e-01
1.250000e-01
0.000000e+00
1.000000e+00
8.750000e-01
7.500000e-01
6.250000e-01
4.964626e-01
3.750000e-01
2.500000e-01
1.250000e-01
0.000000e+00
1.000000e+00
8.750000e-01
7.500000e-01
6.250000e-01
4.902088e-01
3.750000e-01
2.500000e-01
1.250000e-01
0.000000e+00
1.000000e+00
8.750000e-01
7.500000e-01
6.250000e-01
4.859931e-01
3.750000e-01
2.500000e-01
1.250000e-01
0.000000e+00
1.000000e+00
8.750000e-01
7.500000e-01
6.250000e-01
4.845029e-01
3.750000e-01
2.500000e-01
1.250000e-01
0.000000e+00
1.000000e+00
8.750000e-01
7.500000e-01
6.250000e-01
4.854627e-01
3.750000e-01
2.500000e-01
1.250000e-01
0.000000e+00
1.000000e+00
8.750000e-01
7.500000e-01
6.250000e-01
5.068483e-01
3.750000e-01
2.500000e-01
1.250000e-01
0.000000e+00
1.000000e+00
8.750000e-01
7.500000e-01
6.250000e-01
5.058126e-01
3.750000e-01
2.500000e-01
1.250000e-01
0.000000e+00
1.000000e+00
8.750000e-01
7.500000e-01
6.250000e-01
5.024589e-01
3.750000e-01
2.500000e-01
1.250000e-01
0.000000e+00
1.000000e+00
8.750000e-01
7.500000e-01
6.250000e-01
4.969105e-01
3.750000e-01
2.500000e-01
1.250000e-01
0.000000e+00
1.000000e+00
8.750000e-01
7.500000e-01
6.250000e-01
4.902088e-01
3.750000e-01
2.500000e-01
1.250000e-01
0.000000e+00
1.000000e+00
8.750000e-01
7.500000e-01
6.250000e-01
4.840554e-01
3.750000e-01
2.500000e-01
1.250000e-01
0.000000e+00
1.000000e+00
8.750000e-01
7.500000e-01
6.250000e-01
4.799926e-01
3.750000e-01
2.500000e-01
1.250000e-01
0.000000e+00
1.000000e+00
8.750000e-01
7.500000e-01
6.250000e-01
4.786828e-01
3.750000e-01
2.500000e-01
1.250000e-01
0.000000e+00
1.000000e+00
8.750000e-01
7.500000e-01
6.250000e-01
4.798501e-01
3.750000e-01
2.500000e-01
1.250000e-01
0.000000e+00
1.000000e+00
8.750000e-01
7.500000e-01
6.250000e-01
5.027058e-01
3.750000e-01
2.500000e-01
1.250000e-01
0.000000e+00
1.000000e+00
8.750000e-01
7.500000e-01
6.250000e-01
5.014227e-01
3.750000e-01
2.500000e-01
1.250000e-01
0.000000e+00
1.000000e+00
8.750000e-01
7.500000e-01
6.250000e-01
4.979710e-01
3.750000e-01
2.500000e-01
1.250000e-01
0.000000e+00
1.000000e+00
8.750000e-01
7.500000e-01
6.250000e-01
4.925040e-01
3.750000e-01
2.500000e-01
1.250000e-01
0.000000e+00
1.000000e+00
8.750000e-01
7.500000e-01
6.250000e-01
4.859931e-01
3.750000e-01
2.500000e-01
1.250000e-01
0.000000e+00
1.000000e+00
8.750000e-01
7.500000e-01
6.250000e-01
4.799926e-01
3.750000e-01
2.500000e-01
1.250000e-01
0.000000e+00
1.000000e+00
8.750000e-01
7.500000e-01
6.250000e-01
4.759309e-01
3.750000e-01
2.500000e-01
1.250000e-01
0.000000e+00
1.000000e+00
8.750000e-01
7.500000e-01
6.250000e-01
4.744727e-01
3.750000e-01
2.500000e-01
1.250000e-01
0.000000e+00
1.000000e+00
8.750000e-01
7.500000e-01
6.250000e-01
4.754310e-01
3.750000e-01
2.500000e-01
1.250000e-01
0.000000e+00
1.000000e+00
8.750000e-01
7.500000e-01
6.250000e-01
5.004314e-01
3.750000e-01
2.500000e-01
1.250000e-01
0.000000e+00
1.000000e+00
8.750000e-01
7.500000e-01
6.250000e-01
4.991137e-01
3.750000e-01
2.500000e-01
1.250000e-01
0.000000e+00
1.000000e+00
8.750000e-01
7.500000e-01
6.250000e-01
4.958054e-01
3.750000e-01
2.500000e-01
1.250000e-01
0.000000e+00
1.000000e+00
8.750000e-01
7.500000e-01
6.250000e-01
4.906559e-01
3.750000e-01
2.500000e-01
1.250000e-01
0.000000e+00
1.000000e+00
8.750000e-01
7.500000e-01
6.250000e-01
4.845029e-01
3.750000e-01
2.500000e-01
1.250000e-01
0.000000e+00
1.000000e+00
8.750000e-01
7.500000e-01
6.250000e-01
4.786828e-01
3.750000e-01
2.500000e-01
1.250000e-01
0.000000e+00
1.000000e+00
8.750000e-01
7.500000e-01
6.250000e-01
4.744727e-01
3.750000e-01
2.500000e-01
1.250000e-01
0.000000e+00
1.000000e+00
8.750000e-01
7.500000e-01
6.250000e-01
4.725572e-01
3.750000e-01
2.500000e-01
1.250000e-01
0.000000e+00
1.000000e+00
8.750000e-01
7.500000e-01
6.250000e-01
4.729005e-01
3.750000e-01
2.500000e-01
1.250000e-01
0.000000e+00
1.000000e+00
8.750000e-01
7.500000e-01
6.250000e-01
5.000030e-01
3.750000e-01
2.500000e-01
1.250000e-01
0.000000e+00
1.000000e+00
8.750000e-01
7.500000e-01
6.250000e-01
4.988291e-01
3.750000e-01
2.500000e-01
1.250000e-01
0.000000e+00
1.000000e+00
8.750000e-01
7.500000e-01
6.250000e-01
4.958411e-01
3.750000e-01
2.500000e-01
1.250000e-01
0.000000e+00
1.000000e+00
8.750000e-01
7.500000e-01
6.250000e-01
4.911596e-01
3.750000e-01
2.500000e-01
1.250000e-01
0.000000e+00
1.000000e+00
8.750000e-01
7.500000e-01
6.250000e-01
4.854627e-01
3.750000e-01
2.500000e-01
1.250000e-01
0.000000e+00
1.000000e+00
8.750000e-01
7.500000e-01
6.250000e-01
4.798501e-01
3.750000e-01
2.500000e-01
1.250000e-01
0.000000e+00
1.000000e+00
8.750000e-01
7.500000e-01
6.250000e-01
4.754310e-01
3.750000e-01
2.500000e-01
1.250000e-01
0.000000e+00
1.000000e+00
8.750000e-01
7.500000e-01
6.250000e-01
4.729005e-01
3.750000e-01
2.500000e-01
1.250000e-01
0.000000e+00
1.000000e+00
8.750000e-01
7.500000e-01
6.250000e-01
4.723834e-01
3.750000e-01
2.500000e-01
1.250000e-01
0.000000e+00
        </DataArray>
        <DataArray type="Float32" Name="velocity" NumberOfComponents="3" format="ascii">
-2.0734e-01 -1.4583e-07 3.2606e-01
1.0024e+00 -1.7039e-07 1.0968e+00
1.8341e+00 -1.6812e-07 1.5546e+00
2.2849e+00 -1.7743e-07 1.6953e+00
2.3243e+00 -1.5383e-07 1.5101e+00
2.0077e+00 -1.6851e-07 1.1117e+00
1.4535e+00 -1.8202e-07 6.2951e-01
8.0096e-01 -1.8131e-07 1.3956e-01
1.8369e-01 -2.3675e-07 -2.8888e-01
-3.4301e-01 6.9433e-01 7.4149e-01
8.2298e-01 5.2947e-01 1.3710e+00
1.6790e+00 3.4490e-01 1.7138e+00
2.1767e+00 9.2469e-02 1.7033e+00
2.2959e+00 -2.0279e-01 1.3565e+00
2.0450e+00 -4.2712e-01 8.3692e-01
1.5343e+00 -5.4152e-01 2.9671e-01
9.1827e-01 -5.6969e-01 -1.9331e-01
2.7788e-01 -4.9740e-01 -5.8832e-01
-2.9313e-01 1.2433e+00 1.1608e+00
7.3763e-01 9.7830e-01 1.6354e+00
1.5041e+00 6.3526e-01 1.8110e+00
1.9440e+00 1.8154e-01 1.6228e+00
2.0448e+00 -3.6001e-01 1.0915e+00
1.8249e+00 -7.8151e-01 4.5297e-01
1.3699e+00 -9.8894e-01 -1.1793e-01
8.1618e-01 -1.0324e+00 -5.7998e-01
2.4263e-01 -9.4651e-01 -9.2368e-01
-8.9720e-02 1.5323e+00 1.4809e+00
7.1828e-01 1.2340e+00 1.7909e+00
1.3004e+00 8.1399e-01 1.7977e+00
1.6038e+00 2.4950e-01 1.4496e+00
1.6216e+00 -4.2275e-01 7.8041e-01
1.3923e+00 -9.5772e-01 6.2453e-02
9.9867e-01 -1.2245e+00 -5.0719e-01
5.4066e-01 -1.2909e+00 -9.2223e-01
8.1397e-02 -1.2115e+00 -1.1966e+00
1.6818e-01 1.5024e+00 1.5973e+00
7.0641e-01 1.2377e+00 1.7586e+00
1.0636e+00 8.3717e-01 1.6402e+00
1.1957e+00 2.8974e-01 1.2041e+00
1.1053e+00 -3.7297e-01 4.8579e-01
8.5966e-01 -9.0920e-01 -2.3088e-01
5.3460e-01 -1.1849e+00 -7.5461e-01
1.9373e-01 -1.2647e+00 -1.0994e+00
-1.2975e-01 -1.2069e+00 -1.2997e+00
3.4714e-01 1.1827e+00 1.4461e+00
6.3512e-01 1.0050e+00 1.5078e+00
7.8833e-01 7.0693e-01 1.3371e+00
7.7883e-01 2.8358e-01 9.1102e-01
6.1561e-01 -2.3897e-01 2.6391e-01
3.7773e-01 -6.7296e-01 -3.5769e-01
1.3491e-01 -9.0616e-01 -7.8652e-01
-8.8259e-02 -9.8632e-01 -1.0488e+00
-2.8015e-01 -9.6153e-01 -1.1843e+00
3.4921e-01 7.0364e-01 1.0591e+00
4.5708e-01 6.2296e-01 1.0728e+00
4.8145e-01 4.6101e-01 9.2295e-01
4.0915e-01 2.1735e-01 5.9922e-01
2.4988e-01 -9.3552e-02 1.2694e-01
7.0865e-02 -3.6046e-01 -3.1721e-01
-7.9594e-02 -5.1260e-01 -6.1469e-01
-1.9719e-01 -5.7535e-01 -7.8811e-01
-2.8535e-01 -5.7598e-01 -8.7042e-01
1.5836e-01 2.1704e-01 5.3707e-01
1.7437e-01 2.0270e-01 5.3774e-01
1.6214e-01 1.5970e-01 4.5660e-01
1.1775e-01 8.8077e-02 2.8975e-01
4.6879e-02 -7.5195e-03 5.1424e-02
-2.3447e-02 -9.3442e-02 -1.7141e-01
-7.4441e-02 -1.4663e-01 -3.1905e-01
-1.0909e-01 -1.7216e-01 -4.0344e-01
-1.3030e-01 -1.7858e-01 -4.4207e-01
-1.6920e-01 -1.6880e-01 -3.9917e-03
-1.6943e-01 -1.6925e-01 -3.9901e-03
-1.4360e-01 -1.4364e-01 -3.3554e-03
-9.0916e-02 -9.1161e-02 -2.0714e-03
-1.5690e-02 -1.6113e-02 -2.4087e-04
5.4508e-02 5.3990e-02 1.4705e-03
1.0084e-01 1.0033e-01 2.6061e-03
1.2725e-01 1.2680e-01 3.2599e-03
1.3947e-01 1.3913e-01 3.5693e-03
-3.4301e-01 -6.9433e-01 7.4149e-01
8.2298e-01 -5.2947e-01 1.3710e+00
1.6790e+00 -3.4490e-01 1.7138e+00
2.1767e+00 -9.2469e-02 1.7033e+00
2.2959e+00 2.0279e-01 1.3565e+00
2.0450e+00 4.2712e-01 8.3692e-01
1.5343e+00 5.4152e-01 2.9671e-01
9.1827e-01 5.6969e-01 -1.9331e-01
2.7788e-01 4.9740e-01 -5.8832e-01
-5.6055e-01 -1.7639e-07 1.1577e+00
5.8895e-01 -1.9426e-07 1.7571e+00
1.4867e+00 -1.1639e-07 1.9608e+00
2.0784e+00 -8.6967e-08 1.7809e+00
2.3132e+00 -1.3041e-07 1.2493e+00
2.1521e+00 -1.5667e-07 5.4877e-01
1.6981e+00 -1.6409e-07 -9.2464e-02
1.1138e+00 -1.6369e-07 -6.2156e-01
5.1823e-01 -1.9382e-07 -1.0703e+00
-6.0287e-01 5.9187e-01 1.6585e+00
4.4644e-01 4.7504e-01 2.1107e+00
1.2774e+00 3.0323e-01 2.1482e+00
1.8454e+00 8.0382e-02 1.7715e+00
2.1002e+00 -1.8875e-01 1.0145e+00
1.9950e+00 -3.9971e-01 1.5370e-01
1.6053e+00 -4.9683e-01 -5.4954e-01
1.0841e+00 -5.1810e-01 -1.0801e+00
5.3926e-01 -4.9495e-01 -1.4740e+00
-4.3794e-01 9.7120e-01 2.0588e+00
3.9173e-01 7.7419e-01 2.3442e+00
1.0429e+00 4.9853e-01 2.2123e+00
1.4806e+00 1.3250e-01 1.6546e+00
1.6667e+00 -3.0447e-01 7.2383e-01
1.5651e+00 -6.4411e-01 -2.4501e-01
1.2460e+00 -8.0531e-01 -9.7101e-01
8.2775e-01 -8.3865e-01 -1.4646e+00
3.9263e-01 -7.9048e-01 -1.7891e+00
-1.6732e-01 1.0114e+00 2.2211e+00
3.7341e-01 8.1531e-01 2.3576e+00
7.7978e-01 5.3378e-01 2.1046e+00
1.0298e+00 1.5549e-01 1.4513e+00
1.0972e+00 -2.9893e-01 4.5167e-01
9.8192e-01 -6.5497e-01 -5.2991e-01
7.4136e-01 -8.2673e-01 -1.2196e+00
4.4969e-01 -8.6751e-01 -1.6519e+00
1.5745e-01 -8.2117e-01 -1.8965e+00
4.6822e-02 7.2815e-01 2.0689e+00
3.0720e-01 5.9895e-01 2.1097e+00
4.8525e-01 4.0489e-01 1.8202e+00
5.6656e-01 1.3667e-01 1.1856e+00
5.4218e-01 -1.8986e-01 2.5919e-01
4.3316e-01 -4.4968e-01 -6.2172e-01
2.8232e-01 -5.8036e-01 -1.2171e+00
1.2203e-01 -6.1683e-01 -1.5686e+00
-2.8452e-02 -5.9006e-01 -1.7436e+00
7.1893e-02 2.5364e-01 1.6414e+00
1.3264e-01 2.1592e-01 1.6457e+00
1.6434e-01 1.5269e-01 1.3973e+00
1.6486e-01 6.1736e-02 8.8648e-01
1.3148e-01 -5.2085e-02 1.5457e-01
8.0727e-02 -1.4524e-01 -5.3147e-01
2.9154e-02 -1.9427e-01 -9.8720e-01
-1.7517e-02 -2.1140e-01 -1.2491e+00
-5.6901e-02 -2.0648e-01 -1.3700e+00
-1.1920e-01 -2.3627e-01 1.0668e+00
-1.5436e-01 -2.0959e-01 1.0690e+00
-1.6149e-01 -1.5534e-01 9.0759e-01
-1.3703e-01 -7.2967e-02 5.7580e-01
-8.3186e-02 3.1863e-02 1.0262e-01
-2.2026e-02 1.2110e-01 -3.4082e-01
2.8883e-02 1.7170e-01 -6.3567e-01
6.8208e-02 1.9275e-01 -8.0489e-01
9.7021e-02 1.9329e-01 -8.8286e-01
-4.6179e-01 -6.1851e-01 4.8276e-01
-5.0550e-01 -5.8044e-01 4.8885e-01
-4.6657e-01 -4.5933e-01 4.2061e-01
-3.3714e-01 -2.5461e-01 2.7309e-01
-1.3058e-01 1.9074e-02 5.8896e-02
7.4698e-02 2.6381e-01 -1.4297e-01
2.2307e-01 4.1449e-01 -2.7820e-01
3.2133e-01 4.8847e-01 -3.5724e-01
3.8063e-01 5.0926e-01 -3.9475e-01
-2.9313e-01 -1.2433e+00 1.1608e+00
7.3763e-01 -9.7830e-01 1.6354e+00
1.5041e+00 -6.3526e-01 1.8110e+00
1.9440e+00 -1.8154e-01 1.6228e+00
2.0448e+00 3.6001e-01 1.0915e+00
1.8249e+00 7.8151e-01 4.5297e-01
1.3699e+00 9.8894e-01 -1.1793e-01
8.1618e-01 1.0324e+00 -5.7998e-01
2.4263e-01 9.4651e-01 -9.2368e-01
-6.0287e-01 -5.9187e-01 1.6585e+00
4.4644e-01 -4.7504e-01 2.1107e+00
1.2774e+00 -3.0323e-01 2.1482e+00
1.8454e+00 -8.0382e-02 1.7715e+00
2.1002e+00 1.8875e-01 1.0145e+00
1.9950e+00 3.9971e-01 1.5370e-01
1.6053e+00 4.9683e-01 -5.4954e-01
1.0841e+00 5.1810e-01 -1.0801e+00
5.3926e-01 4.9495e-01 -1.4740e+00
-7.0359e-01 -1.5806e-07 2.2173e+00
2.5882e-01 -8.8673e-08 2.5560e+00
1.0352e+00 -8.2997e-08 2.4330e+00
1.5961e+00 -7.9511e-08 1.8417e+00
1.8938e+00 -6.1965e-08 8.1880e-01
1.8684e+00 -7.4622e-08 -2.5198e-01
1.5572e+00 -8.4680e-08 -1.0571e+00
1.1090e+00 -5.8396e-08 -1.6205e+00
6.2978e-01 -6.3078e-08 -1.9847e+00
-5.6688e-01 4.0945e-01 2.6742e+00
1.7148e-01 3.1859e-01 2.8644e+00
7.6788e-01 2.0193e-01 2.5807e+00
1.2029e+00 4.4617e-02 1.7989e+00
1.4438e+00 -1.3729e-01 5.7428e-01
1.4333e+00 -2.7794e-01 -6.3784e-01
1.2036e+00 -3.4548e-01 -1.4959e+00
8.6640e-01 -3.5715e-01 -2.0428e+00
5.0178e-01 -3.3154e-01 -2.3518e+00
-2.8344e-01 4.8845e-01 2.8471e+00
1.4062e-01 3.8270e-01 2.9179e+00
4.7703e-01 2.4337e-01 2.5304e+00
7.1466e-01 5.8258e-02 1.6596e+00
8.3273e-01 -1.5930e-01 3.6338e-01
8.0945e-01 -3.2751e-01 -8.7521e-01
6.6532e-01 -4.0716e-01 -1.7139e+00
4.6438e-01 -4.2136e-01 -2.2165e+00
2.5258e-01 -3.9233e-01 -2.4660e+00
-4.5770e-02 2.2043e-01 2.6579e+00
7.2516e-02 1.7551e-01 2.6673e+00
1.6278e-01 1.1537e-01 2.2716e+00
2.1885e-01 3.2148e-02 1.4434e+00
2.3693e-01 -6.6187e-02 2.4167e-01
2.1594e-01 -1.4347e-01 -8.8756e-01
1.6608e-01 -1.8142e-01 -1.6379e+00
1.0412e-01 -1.8938e-01 -2.0709e+00
4.2633e-02 -1.7801e-01 -2.2691e+00
-1.5580e-02 -2.5768e-01 2.1646e+00
-1.0664e-01 -2.1091e-01 2.1719e+00
-1.6852e-01 -1.4131e-01 1.8476e+00
-1.9623e-01 -4.6190e-02 1.1750e+00
-1.8785e-01 6.7830e-02 2.0245e-01
-1.5117e-01 1.5872e-01 -7.1069e-01
-9.9330e-02 2.0455e-01 -1.3164e+00
-4.3849e-02 2.1694e-01 -1.6661e+00
8.2826e-03 2.0713e-01 -1.8263e+00
-2.2775e-01 -7.5495e-01 1.5290e+00
-4.0414e-01 -6.4297e-01 1.5563e+00
-4.9475e-01 -4.5378e-01 1.3418e+00
-4.8840e-01 -1.8250e-01 8.7484e-01
-3.8347e-01 1.5363e-01 1.9345e-01
-2.2930e-01 4.2983e-01 -4.5269e-01
-7.4434e-02 5.7691e-01 -8.8880e-01
6.4672e-02 6.2820e-01 -1.1456e+00
1.8110e-01 6.1396e-01 -1.2714e+00
-6.0546e-01 -1.1374e+00 9.0633e-01
-7.6872e-01 -1.0139e+00 9.4355e-01
-7.9299e-01 -7.5605e-01 8.3569e-01
-6.6004e-01 -3.6274e-01 5.6947e-01
-3.8548e-01 1.4052e-01 1.6529e-01
-8.1493e-02 5.7316e-01 -2.2213e-01
1.6854e-01 8.2161e-01 -4.8896e-01
3.5909e-01 9.2657e-01 -6.5168e-01
4.9824e-01 9.3242e-01 -7.3544e-01
-8.9720e-02 -1.5323e+00 1.4809e+00
7.1828e-01 -1.2340e+00 1.7909e+00
1.3004e+00 -8.1399e-01 1.7977e+00
1.6038e+00 -2.4950e-01 1.4496e+00
1.6216e+00 4.2275e-01 7.8041e-01
1.3923e+00 9.5772e-01 6.2453e-02
9.9867e-01 1.2245e+00 -5.0719e-01
5.4066e-01 1.2909e+00 -9.2223e-01
8.1397e-02 1.2115e+00 -1.1966e+00
-4.3794e-01 -9.7120e-01 2.0588e+00
3.9173e-01 -7.7419e-01 2.3442e+00
1.0429e+00 -4.9853e-01 2.2123e+00
1.4806e+00 -1.3250e-01 1.6546e+00
1.6667e+00 3.0447e-01 7.2383e-01
1.5651e+00 6.4411e-01 -2.4501e-01
1.2460e+00 8.0531e-01 -9.7101e-01
8.2775e-01 8.3865e-01 -1.4646e+00
3.9263e-01 7.9048e-01 -1.7891e+00
-5.6688e-01 -4.0945e-01 2.6742e+00
1.7148e-01 -3.1859e-01 2.8644e+00
7.6788e-01 -2.0193e-01 2.5807e+00
1.2029e+00 -4.4617e-02 1.7989e+00
1.4438e+00 1.3729e-01 5.7428e-01
1.4333e+00 2.7794e-01 -6.3784e-01
1.2036e+00 3.4548e-01 -1.4959e+00
8.6640e-01 3.5715e-01 -2.0428e+00
5.0178e-01 3.3153e-01 -2.3518e+00
-4.3476e-01 -6.4056e-08 3.1456e+00
6.4894e-02 -3.8907e-08 3.2282e+00
4.7085e-01 -3.5375e-08 2.8081e+00
7.7694e-01 -3.8431e-08 1.8419e+00
9.6268e-01 -1.8930e-08 4.0263e-01
9.7548e-01 -5.0446e-09 -9.7730e-01
8.3674e-01 -4.9744e-09 -1.9173e+00
6.2091e-01 -4.2296e-09 -2.4789e+00
3.8134e-01 6.3061e-10 -2.7591e+00
-1.3910e-01 8.9675e-02 3.2927e+00
2.6147e-02 6.9698e-02 3.3059e+00
1.5871e-01 4.2731e-02 2.8201e+00
2.5821e-01 9.6293e-03 1.7903e+00
3.1661e-01 -3.1458e-02 2.8755e-01
3.1869e-01 -6.2298e-02 -1.1273e+00
2.7147e-01 -7.6031e-02 -2.0696e+00
1.9983e-01 -7.8735e-02 -2.6134e+00
1.2145e-01 -7.3060e-02 -2.8614e+00
1.0758e-01 -1.7838e-01 3.0373e+00
-4.4980e-02 -1.3925e-01 3.0483e+00
-1.6651e-01 -8.7205e-02 2.6010e+00
-2.5294e-01 -1.9750e-02 1.6522e+00
-2.9852e-01 5.8810e-02 2.7193e-01
-2.9270e-01 1.1896e-01 -1.0271e+00
-2.4320e-01 1.4688e-01 -1.8921e+00
-1.7242e-01 1.5154e-01 -2.3908e+00
-9.5781e-02 1.4066e-01 -2.6179e+00
1.2127e-01 -6.7460e-01 2.4733e+00
-2.3203e-01 -5.3848e-01 2.5301e+00
-4.9775e-01 -3.5058e-01 2.1947e+00
-6.6014e-01 -9.7526e-02 1.4408e+00
-7.0814e-01 2.0127e-01 3.2223e-01
-6.4060e-01 4.3522e-01 -7.4454e-01
-4.8905e-01 5.4916e-01 -1.4675e+00
-3.0284e-01 5.7392e-01 -1.8981e+00
-1.1596e-01 5.3999e-01 -2.1096e+00
-1.3311e-01 -1.1965e+00 1.7899e+00
-5.4313e-01 -9.8831e-01 1.8946e+00
-8.1417e-01 -6.7043e-01 1.6927e+00
-9.2191e-01 -2.3092e-01 1.1690e+00
-8.5600e-01 3.0289e-01 3.6824e-01
-6.6091e-01 7.3011e-01 -4.1586e-01
-4.0777e-01 9.4715e-01 -9.6605e-01
-1.4596e-01 1.0101e+00 -1.3092e+00
9.5463e-02 9.6898e-01 -1.5003e+00
-5.6469e-01 -1.6027e+00 1.1557e+00
-9.2716e-01 -1.3736e+00 1.2717e+00
-1.0988e+00 -9.7623e-01 1.1867e+00
-1.0467e+00 -4.0479e-01 8.7270e-01
-7.8467e-01 3.0354e-01 3.5565e-01
-4.3098e-01 8.9430e-01 -1.6082e-01
-8.8483e-02 1.2157e+00 -5.3624e-01
2.1317e-01 1.3310e+00 -7.8363e-01
4.6465e-01 1.3054e+00 -9.2756e-01
1.6818e-01 -1.5024e+00 1.5973e+00
7.0641e-01 -1.2377e+00 1.7586e+00
1.0636e+00 -8.3717e-01 1.6402e+00
1.1957e+00 -2.8974e-01 1.2041e+00
1.1053e+00 3.7297e-01 4.8579e-01
8.5966e-01 9.0920e-01 -2.3088e-01
5.3460e-01 1.1849e+00 -7.5461e-01
1.9373e-01 1.2647e+00 -1.0994e+00
-1.2975e-01 1.2069e+00 -1.2997e+00
-1.6732e-01 -1.0114e+00 2.2211e+00
3.7341e-01 -8.1531e-01 2.3576e+00
7.7978e-01 -5.3378e-01 2.1046e+00
1.0298e+00 -1.5549e-01 1.4513e+00
1.0972e+00 2.9893e-01 4.5167e-01
9.8192e-01 6.5497e-01 -5.2991e-01
7.4136e-01 8.2673e-01 -1.2196e+00
4.4969e-01 8.6751e-01 -1.6519e+00
1.5745e-01 8.2117e-01 -1.8965e+00
-2.8344e-01 -4.8845e-01 2.8471e+00
1.4062e-01 -3.8270e-01 2.9179e+00
4.7703e-01 -2.4337e-01 2.5304e+00
7.1466e-01 -5.8258e-02 1.6596e+00
8.3273e-01 1.5930e-01 3.6338e-01
8.0945e-01 3.2751e-01 -8.7521e-01
6.6532e-01 4.0716e-01 -1.7139e+00
4.6438e-01 4.2136e-01 -2.2165e+00
2.5258e-01 3.9233e-01 -2.4660e+00
-1.3910e-01 -8.9675e-02 3.2927e+00
2.6147e-02 -6.9698e-02 3.3059e+00
1.5871e-01 -4.2731e-02 2.8201e+00
2.5821e-01 -9.6293e-03 1.7903e+00
3.1661e-01 3.1458e-02 2.8755e-01
3.1869e-01 6.2298e-02 -1.1273e+00
2.7147e-01 7.6031e-02 -2.0696e+00
1.9983e-01 7.8735e-02 -2.6134e+00
1.2145e-01 7.3060e-02 -2.8614e+00
1.6589e-01 7.0963e-09 3.3768e+00
-1.5116e-02 1.8509e-09 3.3913e+00
-1.6395e-01 4.1706e-08 2.8935e+00
-2.7769e-01 -5.5092e-09 1.8384e+00
-3.4877e-01 5.3610e-08 2.9465e-01
-3.5773e-01 4.9313e-08 -1.1591e+00
-3.0971e-01 4.9039e-08 -2.1260e+00
-2.3210e-01 9.1645e-08 -2.6859e+00
-1.4443e-01 1.0149e-07 -2.9400e+00
4.0884e-01 -2.7899e-01 3.0540e+00
-8.7154e-02 -2.1624e-01 3.1337e+00
-4.8763e-01 -1.3345e-01 2.7284e+00
-7.8513e-01 -2.8485e-02 1.7958e+00
-9.5846e-01 9.5798e-02 4.0058e-01
-9.6298e-01 1.8992e-01 -9.3526e-01
-8.1863e-01 2.3263e-01 -1.8449e+00
-5.9950e-01 2.3956e-01 -2.3884e+00
-3.5808e-01 2.2163e-01 -2.6564e+00
3.9830e-01 -8.0999e-01 2.4426e+00
-2.7729e-01 -6.3728e-01 2.6205e+00
-8.0603e-01 -4.0625e-01 2.3670e+00
-1.1674e+00 -1.0033e-01 1.6600e+00
-1.3323e+00 2.5886e-01 5.4615e-01
-1.2732e+00 5.3690e-01 -5.5637e-01
-1.0294e+00 6.6912e-01 -1.3368e+00
-7.0098e-01 6.9389e-01 -1.8361e+00
-3.5785e-01 6.4762e-01 -2.1165e+00
1.0335e-01 -1.3846e+00 1.7533e+00
-5.9449e-01 -1.1228e+00 2.0026e+00
-1.1024e+00 -7.4074e-01 1.8995e+00
-1.3877e+00 -2.2512e-01 1.4337e+00
-1.4226e+00 3.9402e-01 6.4508e-01
-1.2274e+00 8.8220e-01 -1.7586e-01
-8.8639e-01 1.1214e+00 -7.9273e-01
-4.9205e-01 1.1817e+00 -1.2146e+00
-1.0661e-01 1.1227e+00 -1.4891e+00
-3.7720e-01 -1.8600e+00 1.1542e+00
-9.9110e-01 -1.5478e+00 1.4063e+00
-1.3675e+00 -1.0607e+00 1.4230e+00
-1.4589e+00 -3.8625e-01 1.1603e+00
-1.2727e+00 4.3417e-01 6.4087e-01
-9.1324e-01 1.1022e+00 8.2467e-02
-4.8953e-01 1.4511e+00 -3.6393e-01
-7.0437e-02 1.5591e+00 -6.9042e-01
3.1316e-01 1.4984e+00 -9.0852e-01
3.4714e-01 -1.1827e+00 1.4461e+00
6.3512e-01 -1.0050e+00 1.5078e+00
7.8833e-01 -7.0693e-01 1.3371e+00
7.7883e-01 -2.8358e-01 9.1102e-01
6.1561e-01 2.3897e-01 2.6391e-01
3.7773e-01 6.7296e-01 -3.5769e-01
1.3491e-01 9.0616e-01 -7.8652e-01
-8.8259e-02 9.8632e-01 -1.0488e+00
-2.8015e-01 9.6153e-01 -1.1843e+00
4.6822e-02 -7.2815e-01 2.0689e+00
3.0720e-01 -5.9895e-01 2.1097e+00
4.8525e-01 -4.0489e-01 1.8202e+00
5.6656e-01 -1.3667e-01 1.1856e+00
5.4218e-01 1.8986e-01 2.5919e-01
4.3316e-01 4.4968e-01 -6.2172e-01
2.8232e-01 5.8036e-01 -1.2171e+00
1.2203e-01 6.1683e-01 -1.5686e+00
-2.8452e-02 5.9006e-01 -1.7436e+00
-4.5770e-02 -2.2043e-01 2.6579e+00
7.2516e-02 -1.7551e-01 2.6673e+00
1.6278e-01 -1.1537e-01 2.2716e+00
2.1885e-01 -3.2148e-02 1.4434e+00
2.3693e-01 6.6187e-02 2.4167e-01
2.1594e-01 1.4347e-01 -8.8756e-01
1.6608e-01 1.8142e-01 -1.6379e+00
1.0412e-01 1.8938e-01 -2.0709e+00
4.2633e-02 1.7801e-01 -2.2691e+00
1.0758e-01 1.7838e-01 3.0373e+00
-4.4981e-02 1.3925e-01 3.0483e+00
-1.6651e-01 8.7205e-02 2.6010e+00
-2.5294e-01 1.9750e-02 1.6522e+00
-2.9852e-01 -5.8809e-02 2.7193e-01
-2.9270e-01 -1.1896e-01 -1.0271e+00
-2.4320e-01 -1.4688e-01 -1.8921e+00
-1.7242e-01 -1.5154e-01 -2.3908e+00
-9.5781e-02 -1.4066e-01 -2.6179e+00
4.0884e-01 2.7899e-01 3.0540e+00
-8.7154e-02 2.1624e-01 3.1337e+00
-4.8763e-01 1.3345e-01 2.7284e+00
-7.8513e-01 2.8485e-02 1.7958e+00
-9.5846e-01 -9.5798e-02 4.0058e-01
-9.6298e-01 -1.8992e-01 -9.3526e-01
-8.1863e-01 -2.3263e-01 -1.8449e+00
-5.9950e-01 -2.3956e-01 -2.3884e+00
-3.5808e-01 -2.2163e-01 -2.6564e+00
6.4463e-01 1.4588e-08 2.6863e+00
-1.5331e-01 4.1453e-08 2.8956e+00
-7.9679e-01 1.0190e-07 2.6298e+00
-1.2715e+00 1.0987e-07 1.8507e+00
-1.5456e+00 1.4035e-07 6.1866e-01
-1.5466e+00 1.4038e-07 -6.0854e-01
-1.3107e+00 1.3623e-07 -1.4848e+00
-9.5628e-01 1.9307e-07 -2.0450e+00
-5.6702e-01 2.1021e-07 -2.3629e+00
6.3109e-01 -5.6335e-01 2.0775e+00
-3.2935e-01 -4.4125e-01 2.4251e+00
-1.0904e+00 -2.8109e-01 2.3390e+00
-1.6228e+00 -6.6321e-02 1.7990e+00
-1.8879e+00 1.8329e-01 8.4388e-01
-1.8297e+00 3.7668e-01 -1.6692e-01
-1.5014e+00 4.6986e-01 -9.3856e-01
-1.0455e+00 4.8719e-01 -1.4800e+00
-5.6214e-01 4.5386e-01 -1.8338e+00
3.3362e-01 -1.2107e+00 1.4303e+00
-6.2776e-01 -9.7277e-01 1.8682e+00
-1.3565e+00 -6.3288e-01 1.9388e+00
-1.8073e+00 -1.7907e-01 1.6337e+00
-1.9419e+00 3.6326e-01 9.8680e-01
-1.7517e+00 7.8790e-01 2.3381e-01
-1.3338e+00 9.9291e-01 -3.9478e-01
-8.2098e-01 1.0397e+00 -8.7510e-01
-3.0444e-01 9.8443e-01 -1.2399e+00
-1.5109e-01 -1.7930e+00 9.0625e-01
-1.0136e+00 -1.4609e+00 1.3384e+00
-1.5940e+00 -9.7861e-01 1.5220e+00
-1.8385e+00 -3.2181e-01 1.3997e+00
-1.7456e+00 4.6508e-01 9.8903e-01
-1.3948e+00 1.0958e+00 4.7499e-01
-9.0387e-01 1.4166e+00 3.5212e-03
-3.7476e-01 1.5043e+00 -3.9013e-01
1.3526e-01 1.4230e+00 -6.9008e-01
3.4921e-01 -7.0364e-01 1.0591e+00
4.5708e-01 -6.2296e-01 1.0728e+00
4.8145e-01 -4.6101e-01 9.2295e-01
4.0915e-01 -2.1735e-01 5.9922e-01
2.4988e-01 9.3552e-02 1.2694e-01
7.0865e-02 3.6046e-01 -3.1721e-01
-7.9594e-02 5.1260e-01 -6.1469e-01
-1.9719e-01 5.7535e-01 -7.8811e-01
-2.8535e-01 5.7598e-01 -8.7042e-01
7.1893e-02 -2.5364e-01 1.6414e+00
1.3264e-01 -2.1592e-01 1.6457e+00
1.6434e-01 -1.5269e-01 1.3973e+00
1.6485e-01 -6.1736e-02 8.8648e-01
1.3148e-01 5.2085e-02 1.5457e-01
8.0727e-02 1.4524e-01 -5.3147e-01
2.9154e-02 1.9427e-01 -9.8720e-01
-1.7517e-02 2.1140e-01 -1.2491e+00
-5.6901e-02 2.0648e-01 -1.3700e+00
-1.5580e-02 2.5768e-01 2.1646e+00
-1.0664e-01 2.1091e-01 2.1719e+00
-1.6852e-01 1.4131e-01 1.8476e+00
-1.9623e-01 4.6190e-02 1.1750e+00
-1.8785e-01 -6.7830e-02 2.0245e-01
-1.5117e-01 -1.5872e-01 -7.1069e-01
-9.9330e-02 -2.0455e-01 -1.3164e+00
-4.3849e-02 -2.1694e-01 -1.6661e+00
8.2825e-03 -2.0713e-01 -1.8263e+00
1.2127e-01 6.7460e-01 2.4733e+00
-2.3203e-01 5.3848e-01 2.5301e+00
-4.9775e-01 3.5058e-01 2.1947e+00
-6.6014e-01 9.7526e-02 1.4408e+00
-7.0814e-01 -2.0127e-01 3.2223e-01
-6.4060e-01 -4.3522e-01 -7.4454e-01
-4.8905e-01 -5.4916e-01 -1.4675e+00
-3.0284e-01 -5.7392e-01 -1.8981e+00
-1.1596e-01 -5.3999e-01 -2.1096e+00
3.9830e-01 8.0999e-01 2.4426e+00
-2.7729e-01 6.3728e-01 2.6205e+00
-8.0603e-01 4.0625e-01 2.3670e+00
-1.1674e+00 1.0033e-01 1.6600e+00
-1.3323e+00 -2.5886e-01 5.4615e-01
-1.2732e+00 -5.3690e-01 -5.5637e-01
-1.0294e+00 -6.6912e-01 -1.3368e+00
-7.0098e-01 -6.9389e-01 -1.8361e+00
-3.5785e-01 -6.4761e-01 -2.1165e+00
6.3109e-01 5.6336e-01 2.0775e+00
-3.2935e-01 4.4125e-01 2.4251e+00
-1.0904e+00 2.8109e-01 2.3390e+00
-1.6228e+00 6.6321e-02 1.7990e+00
-1.8879e+00 -1.8329e-01 8.4388e-01
-1.8297e+00 -3.7668e-01 -1.6692e-01
-1.5014e+00 -4.6986e-01 -9.3856e-01
-1.0455e+00 -4.8719e-01 -1.4800e+00
-5.6214e-01 -4.5386e-01 -1.8338e+00
6.4864e-01 8.8583e-08 1.5112e+00
-4.7076e-01 6.7391e-08 2.0293e+00
-1.3495e+00 1.2174e-07 2.1374e+00
-1.9478e+00 9.9514e-08 1.8313e+00
-2.2167e+00 1.1513e-07 1.1279e+00
-2.1148e+00 2.1335e-07 2.9854e-01
-1.7055e+00 2.6514e-07 -4.0099e-01
-1.1573e+00 2.6766e-07 -9.5406e-01
-5.8665e-01 2.7711e-07 -1.3668e+00
4.1002e-01 -6.9738e-01 9.3973e-01
-7.1998e-01 -5.6449e-01 1.5615e+00
-1.5794e+00 -3.6546e-01 1.8284e+00
-2.1139e+00 -1.0430e-01 1.7394e+00
-2.2776e+00 2.1053e-01 1.3074e+00
-2.0631e+00 4.5923e-01 6.9591e-01
-1.5765e+00 5.7690e-01 1.0675e-01
-9.7635e-01 6.0537e-01 -4.0575e-01
-3.7243e-01 5.8055e-01 -8.4185e-01
-1.0646e-02 -1.3982e+00 5.0722e-01
-1.0571e+00 -1.1157e+00 1.1196e+00
-1.7841e+00 -7.3758e-01 1.4943e+00
-2.1311e+00 -2.3005e-01 1.5620e+00
-2.0928e+00 3.7947e-01 1.3251e+00
-1.7364e+00 8.5842e-01 9.1910e-01
-1.1864e+00 1.0992e+00 4.6073e-01
-5.7390e-01 1.1572e+00 2.4205e-02
3.3101e-02 1.0717e+00 -3.4819e-01
1.5836e-01 -2.1704e-01 5.3707e-01
1.7437e-01 -2.0270e-01 5.3774e-01
1.6214e-01 -1.5970e-01 4.5660e-01
1.1775e-01 -8.8077e-02 2.8975e-01
4.6879e-02 7.5196e-03 5.1424e-02
-2.3447e-02 9.3442e-02 -1.7141e-01
-7.4441e-02 1.4663e-01 -3.1905e-01
-1.0909e-01 1.7216e-01 -4.0344e-01
-1.3030e-01 1.7858e-01 -4.4207e-01
-1.1920e-01 2.3627e-01 1.0668e+00
-1.5436e-01 2.0959e-01 1.0690e+00
-1.6149e-01 1.5534e-01 9.0759e-01
-1.3703e-01 7.2967e-02 5.7580e-01
-8.3186e-02 -3.1863e-02 1.0262e-01
-2.2026e-02 -1.2110e-01 -3.4082e-01
2.8883e-02 -1.7170e-01 -6.3567e-01
6.8208e-02 -1.9275e-01 -8.0489e-01
9.7021e-02 -1.9329e-01 -8.8286e-01
-2.2775e-01 7.5495e-01 1.5290e+00