<?xml version="1.0"?>
<VTKFile type="StructuredGrid" version="0.1">
  <StructuredGrid WholeExtent="0 8 0 8 0 8">
    <Piece Extent="0 8 0 8 0 8">
      <PointData Scalars="temperature" Vectors="velocity">
        <DataArray type="Float32" Name="temperature" format="ascii">
1.000000e+00
8.750000e-01
7.500000e-01
6.250000e-01
5.276166e-01
3.750000e-01
2.500000e-01
1.250000e-01
0.000000e+00
1.000000e+00
8.750000e-01
7.500000e-01
6.250000e-01
5.270995e-01
3.750000e-01
2.500000e-01
1.250000e-01
0.000000e+00
1.000000e+00
8.750000e-01
7.500000e-01
6.250000e-01
5.245690e-01
3.750000e-01
2.500000e-01
1.250000e-01
0.000000e+00
1.000000e+00
8.750000e-01
7.500000e-01
6.250000e-01
5.201499e-01
3.750000e-01
2.500000e-01
1.250000e-01
0.000000e+00
1.000000e+00
8.750000e-01
7.500000e-01
6.250000e-01
5.145373e-01
3.750000e-01
2.500000e-01
1.250000e-01
0.000000e+00
1.000000e+00
8.750000e-01
7.500000e-01
6.250000e-01
5.088404e-01
3.750000e-01
2.500000e-01
1.250000e-01
0.000000e+00
1.000000e+00
8.750000e-01
7.500000e-01
6.250000e-01
5.041589e-01
3.750000e-01
2.500000e-01
1.250000e-01
0.000000e+00
1.000000e+00
8.750000e-01
7.500000e-01
6.250000e-01
5.011709e-01
3.750000e-01
2.500000e-01
1.250000e-01
0.000000e+00
1.000000e+00
8.750000e-01
7.500000e-01
6.250000e-01
4.999970e-01
3.750000e-01
2.500000e-01
1.250000e-01
0.000000e+00
1.000000e+00
8.750000e-01
7.500000e-01
6.250000e-01
5.270995e-01
3.750000e-01
2.500000e-01
1.250000e-01
0.000000e+00
1.000000e+00
8.750000e-01
7.500000e-01
6.250000e-01
5.274428e-01
3.750000e-01
2.500000e-01
1.250000e-01
0.000000e+00
1.000000e+00
8.750000e-01
7.500000e-01
6.250000e-01
5.255273e-01
3.750000e-01
2.500000e-01
1.250000e-01
0.000000e+00
1.000000e+00
8.750000e-01
7.500000e-01
6.250000e-01
5.213172e-01
3.750000e-01
2.500000e-01
1.250000e-01
0.000000e+00
1.000000e+00
8.750000e-01
7.500000e-01
6.250000e-01
5.154971e-01
3.750000e-01
2.500000e-01
1.250000e-01
0.000000e+00
1.000000e+00
8.750000e-01
7.500000e-01
6.250000e-01
5.093441e-01
3.750000e-01
2.500000e-01
1.250000e-01
0.000000e+00
1.000000e+00
8.750000e-01
7.500000e-01
6.250000e-01
5.041946e-01
3.750000e-01
2.500000e-01
1.250000e-01
0.000000e+00
1.000000e+00
8.750000e-01
7.500000e-01
6.250000e-01
5.008863e-01
3.750000e-01
2.500000e-01
1.250000e-01
0.000000e+00
1.000000e+00
8.750000e-01
7.500000e-01
6.250000e-01
4.995686e-01
3.750000e-01
2.500000e-01
1.250000e-01
0.000000e+00
1.000000e+00
8.750000e-01
7.500000e-01
6.250000e-01
5.245690e-01
3.750000e-01
2.500000e-01
1.250000e-01
0.000000e+00
1.000000e+00
8.750000e-01
7.500000e-01
6.250000e-01
5.255273e-01
3.750000e-01
2.500000e-01
1.250000e-01
0.000000e+00
1.000000e+00
8.750000e-01
7.500000e-01
6.250000e-01
5.240691e-01
3.750000e-01
2.500000e-01
1.250000e-01
0.000000e+00
1.000000e+00
8.750000e-01
7.500000e-01
6.250000e-01
5.200074e-01
3.750000e-01
2.500000e-01
1.250000e-01
0.000000e+00
1.000000e+00
8.750000e-01
7.500000e-01
6.250000e-01
5.140069e-01
3.750000e-01
2.500000e-01
1.250000e-01
0.000000e+00
1.000000e+00
8.750000e-01
7.500000e-01
6.250000e-01
5.074960e-01
3.750000e-01
2.500000e-01
1.250000e-01
0.000000e+00
1.000000e+00
8.750000e-01
7.500000e-01
6.250000e-01
5.020290e-01
3.750000e-01
2.500000e-01
1.250000e-01
0.000000e+00
1.000000e+00
8.750000e-01
7.500000e-01
6.250000e-01
4.985773e-01
3.750000e-01
2.500000e-01
1.250000e-01
0.000000e+00
1.000000e+00
8.750000e-01
7.500000e-01
6.250000e-01
4.972942e-01
3.750000e-01
2.500000e-01
1.250000e-01
0.000000e+00
1.000000e+00
8.750000e-01
7.500000e-01
6.250000e-01
5.201499e-01
3.750000e-01
2.500000e-01
1.250000e-01
0.000000e+00
1.000000e+00
8.750000e-01
7.500000e-01
6.250000e-01
5.213172e-01
3.750000e-01
2.500000e-01
1.250000e-01
0.000000e+00
1.000000e+00
8.750000e-01
7.500000e-01
6.250000e-01
5.200074e-01
3.750000e-01
2.500000e-01
1.250000e-01
0.000000e+00
1.000000e+00
8.750000e-01
7.500000e-01
6.250000e-01
5.159446e-01
3.750000e-01
2.500000e-01
1.250000e-01
0.000000e+00
1.000000e+00
8.750000e-01
7.500000e-01
6.250000e-01
5.097912e-01
3.750000e-01
2.500000e-01
1.250000e-01
0.000000e+00
1.000000e+00
8.750000e-01
7.500000e-01
6.250000e-01
5.030895e-01
3.750000e-01
2.500000e-01
1.250000e-01
0.000000e+00
1.000000e+00
8.750000e-01
7.500000e-01
6.250000e-01
4.975411e-01
3.750000e-01
2.500000e-01
1.250000e-01
0.000000e+00
1.000000e+00
8.750000e-01
7.500000e-01
6.250000e-01
4.941874e-01
3.750000e-01
2.500000e-01
1.250000e-01
0.000000e+00
1.000000e+00
8.750000e-01
7.500000e-01
6.250000e-01
4.931517e-01
3.750000e-01
2.500000e-01
1.250000e-01
0.000000e+00
1.000000e+00
8.750000e-01
7.500000e-01
6.250000e-01
5.145373e-01
3.750000e-01
2.500000e-01
1.250000e-01
0.000000e+00
1.000000e+00
8.750000e-01
7.500000e-01
6.250000e-01
5.154971e-01
3.750000e-01
2.500000e-01
1.250000e-01
0.000000e+00
1.000000e+00
8.750000e-01
7.500000e-01
6.250000e-01
5.140069e-01
3.750000e-01
2.500000e-01
1.250000e-01
0.000000e+00
1.000000e+00
8.750000e-01
7.500000e-01
6.250000e-01
5.097912e-01
3.750000e-01
2.500000e-01
1.250000e-01
0.000000e+00
1.000000e+00
8.750000e-01
7.500000e-01
6.250000e-01
5.035374e-01
3.750000e-01
2.500000e-01
1.250000e-01
0.000000e+00
1.000000e+00
8.750000e-01
7.500000e-01
6.250000e-01
4.968369e-01
3.750000e-01
2.500000e-01
1.250000e-01
0.000000e+00
1.000000e+00
8.750000e-01
7.500000e-01
6.250000e-01
4.914305e-01
3.750000e-01
2.500000e-01
1.250000e-01
0.000000e+00
1.000000e+00
8.750000e-01
7.500000e-01
6.250000e-01
4.883535e-01
3.750000e-01
2.500000e-01
1.250000e-01
0.000000e+00
1.000000e+00
8.750000e-01
7.500000e-01
6.250000e-01
4.876833e-01
3.750000e-01
2.500000e-01
1.250000e-01
0.000000e+00
1.000000e+00
8.750000e-01
7.500000e-01
6.250000e-01
5.088404e-01
3.750000e-01
2.500000e-01
1.250000e-01
0.000000e+00
1.000000e+00
8.750000e-01
7.500000e-01
6.250000e-01
5.093441e-01
3.750000e-01
2.500000e-01
1.250000e-01
0.000000e+00
1.000000e+00
8.750000e-01
7.500000e-01
6.250000e-01
5.074960e-01
3.750000e-01
2.500000e-01
1.250000e-01
0.000000e+00
1.000000e+00
8.750000e-01
7.500000e-01
6.250000e-01
5.030895e-01
3.750000e-01
2.500000e-01
1.250000e-01
0.000000e+00
1.000000e+00
8.750000e-01
7.500000e-01
6.250000e-01
4.968369e-01
3.750000e-01
2.500000e-01
1.250000e-01
0.000000e+00
1.000000e+00
8.750000e-01
7.500000e-01
6.250000e-01
4.902916e-01
3.750000e-01
2.500000e-01
1.250000e-01
0.000000e+00
1.000000e+00
8.750000e-01
7.500000e-01
6.250000e-01
4.851237e-01
3.750000e-01
2.500000e-01
1.250000e-01
0.000000e+00
1.000000e+00
8.750000e-01
7.500000e-01
6.250000e-01
4.823142e-01
3.750000e-01
2.500000e-01
1.250000e-01
0.000000e+00
1.000000e+00
8.750000e-01
7.500000e-01
6.250000e-01
4.819190e-01
3.750000e-01
2.500000e-01
1.250000e-01
0.000000e+00
1.000000e+00
8.750000e-01
7.500000e-01
6.250000e-01
5.041589e-01
3.750000e-01
2.500000e-01
1.250000e-01
0.000000e+00
1.000000e+00
8.750000e-01
7.500000e-01
6.250000e-01
5.041946e-01
3.750000e-01
2.500000e-01
1.250000e-01
0.000000e+00
1.000000e+00
8.750000e-01
7.500000e-01
6.250000e-01
5.020290e-01
3.750000e-01
2.500000e-01
1.250000e-01
0.000000e+00
1.000000e+00
8.750000e-01
7.500000e-01
6.250000e-01
4.975411e-01
3.750000e-01
2.500000e-01
1.250000e-01
0.000000e+00
1.000000e+00
8.750000e-01
7.500000e-01
6.250000e-01
4.914305e-01
3.750000e-01
2.500000e-01
1.250000e-01
0.000000e+00
1.000000e+00
8.750000e-01
7.500000e-01
6.250000e-01
4.851237e-01
3.750000e-01
2.500000e-01
1.250000e-01
0.000000e+00
1.000000e+00
8.750000e-01
7.500000e-01
6.250000e-01
4.801423e-01
3.750000e-01
2.500000e-01
1.250000e-01
0.000000e+00
1.000000e+00
8.750000e-01
7.500000e-01
6.250000e-01
4.774045e-01
3.750000e-01
2.500000e-01
1.250000e-01
0.000000e+00
1.000000e+00
8.750000e-01
7.500000e-01
6.250000e-01
4.769997e-01
3.750000e-01
2.500000e-01
1.250000e-01
0.000000e+00
1.000000e+00
8.750000e-01
7.500000e-01
6.250000e-01
5.011709e-01
3.750000e-01
2.500000e-01
1.250000e-01
0.000000e+00
1.000000e+00
8.750000e-01
7.500000e-01
6.250000e-01
5.008863e-01
3.750000e-01
2.500000e-01
1.250000e-01
0.000000e+00
1.000000e+00
8.750000e-01
7.500000e-01
6.250000e-01
4.985773e-01
3.750000e-01
2.500000e-01
1.250000e-01
0.000000e+00
1.000000e+00
8.750000e-01
7.500000e-01
6.250000e-01
4.941874e-01
3.750000e-01
2.500000e-01
1.250000e-01
0.000000e+00
1.000000e+00
8.750000e-01
7.500000e-01
6.250000e-01
4.883535e-01
3.750000e-01
2.500000e-01
1.250000e-01
0.000000e+00
1.000000e+00
8.750000e-01
7.500000e-01
6.250000e-01
4.823142e-01
3.750000e-01
2.500000e-01
1.250000e-01
0.000000e+00
1.000000e+00
8.750000e-01
7.500000e-01
6.250000e-01
4.774045e-01
3.750000e-01
2.500000e-01
1.250000e-01
0.000000e+00
1.000000e+00
8.750000e-01
7.500000e-01
6.250000e-01
4.744877e-01
3.750000e-01
2.500000e-01
1.250000e-01
0.000000e+00
1.000000e+00
8.750000e-01
7.500000e-01
6.250000e-01
4.737342e-01
3.750000e-01
2.500000e-01
1.250000e-01
0.000000e+00
1.000000e+00
8.750000e-01
7.500000e-01
6.250000e-01
4.999970e-01
3.750000e-01
2.500000e-01
1.250000e-01
0.000000e+00
1.000000e+00
8.750000e-01
7.500000e-01
6.250000e-01
4.995686e-01
3.750000e-01
2.500000e-01
1.250000e-01
0.000000e+00
1.000000e+00
8.750000e-01
7.500000e-01
6.250000e-01
4.972942e-01
3.750000e-01
2.500000e-01
1.250000e-01
0.000000e+00
1.000000e+00
8.750000e-01
7.500000e-01
6.250000e-01
4.931517e-01
3.750000e-01
2.500000e-01
1.250000e-01
0.000000e+00
1.000000e+00
8.750000e-01
7.500000e-01
6.250000e-01
4.876833e-01
3.750000e-01
2.500000e-01
1.250000e-01
0.000000e+00
1.000000e+00
8.750000e-01
7.500000e-01
6.250000e-01
4.819190e-01
3.750000e-01
2.500000e-01
1.250000e-01
0.000000e+00
1.000000e+00
8.750000e-01
7.500000e-01
6.250000e-01
4.769997e-01
3.750000e-01
2.500000e-01
1.250000e-01
0.000000e+00
1.000000e+00
8.750000e-01
7.500000e-01
6.250000e-01
4.737342e-01
3.750000e-01
2.500000e-01
1.250000e-01
0.000000e+00
1.000000e+00
8.750000e-01
7.500000e-01
6.250000e-01
4.723882e-01
3.750000e-01
2.500000e-01
1.250000e-01
0.000000e+00
        </DataArray>
        <DataArray type="Float32" Name="velocity" NumberOfComponents="3" format="ascii">
-2.287820e-01 -9.095548e-09 -2.920231e-01
-1.358772e+00 6.165097e-08 5.919125e-01
-2.069077e+00 1.646287e-08 1.221831e+00
-2.354733e+00 3.420054e-08 1.596568e+00
-2.197100e+00 3.056617e-08 1.690640e+00
-1.719381e+00 2.195304e-08 1.520297e+00
-1.082323e+00 1.885456e-08 1.155517e+00
-4.040791e-01 -1.522632e-08 7.017995e-01
2.050737e-01 7.787176e-09 2.617612e-01
-3.319257e-02 -7.583318e-01 7.580452e-02
-1.167258e+00 -5.883908e-01 8.390798e-01
-1.939619e+00 -3.908355e-01 1.378325e+00
-2.305737e+00 -1.165692e-01 1.626198e+00
-2.253861e+00 2.062732e-01 1.580661e+00
-1.850757e+00 4.543952e-01 1.299975e+00
-1.249388e+00 5.839841e-01 8.780554e-01
-5.908270e-01 6.196444e-01 4.190809e-01
6.176721e-02 5.487904e-01 -9.360032e-04
-1.064642e-02 -1.398203e+00 5.072154e-01
-1.057107e+00 -1.115733e+00 1.119570e+00
-1.784069e+00 -7.375793e-01 1.494256e+00
-2.131061e+00 -2.300517e-01 1.562045e+00
-2.092832e+00 3.794674e-01 1.325069e+00
-1.736430e+00 8.584200e-01 9.190990e-01
-1.186414e+00 1.099233e+00 4.607257e-01
-5.738968e-01 1.157194e+00 2.420479e-02
3.310129e-02 1.071731e+00 -3.481892e-01
-1.510893e-01 -1.793042e+00 9.062513e-01
-1.013569e+00 -1.460882e+00 1.338385e+00
-1.594009e+00 -9.786146e-01 1.522037e+00
-1.838457e+00 -3.218081e-01 1.399717e+00
-1.745647e+00 4.650784e-01 9.890296e-01
-1.394773e+00 1.095840e+00 4.749857e-01
-9.038663e-01 1.416631e+00 3.521312e-03
-3.747649e-01 1.504317e+00 -3.901266e-01
1.352586e-01 1.423027e+00 -6.900828e-01
-3.771986e-01 -1.859954e+00 1.154208e+00
-9.911029e-01 -1.547793e+00 1.406347e+00
-1.367479e+00 -1.060709e+00 1.422992e+00
-1.458936e+00 -3.862529e-01 1.160282e+00
-1.272691e+00 4.341690e-01 6.408690e-01
-9.132357e-01 1.102160e+00 8.246658e-02
-4.895267e-01 1.451092e+00 -3.639288e-01
-7.043670e-02 1.559080e+00 -6.904219e-01
3.131568e-01 1.498358e+00 -9.085184e-01
-5.646921e-01 -1.602704e+00 1.155738e+00
-9.271557e-01 -1.373574e+00 1.271744e+00
-1.098815e+00 -9.762304e-01 1.186731e+00
-1.046697e+00 -4.047858e-01 8.727037e-01
-7.846749e-01 3.035403e-01 3.556465e-01
-4.309816e-01 8.943040e-01 -1.608167e-01
-8.848317e-02 1.215657e+00 -5.362393e-01
2.131697e-01 1.331022e+00 -7.836321e-01
4.646512e-01 1.305359e+00 -9.275579e-01
-6.054555e-01 -1.137361e+00 9.063277e-01
-7.687151e-01 -1.013853e+00 9.435492e-01
-7.929923e-01 -7.560544e-01 8.356938e-01
-6.600398e-01 -3.627415e-01 5.694728e-01
-3.854797e-01 1.405213e-01 1.652905e-01
-8.149288e-02 5.731638e-01 -2.221310e-01
1.685422e-01 8.216068e-01 -4.889580e-01
3.590878e-01 9.265695e-01 -6.516772e-01
4.982403e-01 9.324230e-01 -7.354381e-01
-4.617902e-01 -6.185122e-01 4.827583e-01
-5.054999e-01 -5.804427e-01 4.888514e-01
-4.665700e-01 -4.593251e-01 4.206112e-01
-3.371421e-01 -2.546052e-01 2.730947e-01
-1.305832e-01 1.907385e-02 5.889569e-02
7.469790e-02 2.638127e-01 -1.429670e-01
2.230741e-01 4.144866e-01 -2.781961e-01
3.213320e-01 4.884748e-01 -3.572372e-01
3.806346e-01 5.092638e-01 -3.947490e-01
-1.692046e-01 -1.688050e-01 -3.991725e-03
-1.694327e-01 -1.692539e-01 -3.990091e-03
-1.435997e-01 -1.436413e-01 -3.355417e-03
-9.091612e-02 -9.116150e-02 -2.071419e-03
-1.568975e-02 -1.611272e-02 -2.409054e-04
5.450802e-02 5.398989e-02 1.470511e-03
1.008405e-01 1.003264e-01 2.606065e-03
1.272455e-01 1.267987e-01 3.259847e-03
1.394711e-01 1.391280e-01 3.569235e-03
-3.319256e-02 7.583319e-01 7.580456e-02
-1.167258e+00 5.883908e-01 8.390799e-01
-1.939619e+00 3.908356e-01 1.378325e+00
-2.305737e+00 1.165692e-01 1.626198e+00
-2.253860e+00 -2.062732e-01 1.580661e+00
-1.850757e+00 -4.543951e-01 1.299975e+00
-1.249388e+00 -5.839840e-01 8.780554e-01
-5.908270e-01 -6.196442e-01 4.190810e-01
6.176722e-02 -5.487903e-01 -9.359632e-04
2.653357e-01 5.149194e-08 4.336372e-01
-9.034445e-01 7.995202e-08 1.192986e+00
-1.771725e+00 -9.818214e-09 1.622347e+00
-2.275625e+00 -1.582808e-09 1.730248e+00
-2.372430e+00 5.641494e-08 1.525750e+00
-2.080085e+00 6.360164e-08 1.080192e+00
-1.533077e+00 7.109778e-08 5.601188e-01
-8.886476e-01 5.585376e-08 5.558503e-02
-2.615273e-01 6.901587e-08 -4.274132e-01
4.100178e-01 -6.973761e-01 9.397300e-01
-7.199778e-01 -5.644951e-01 1.561504e+00
-1.579394e+00 -3.654647e-01 1.828379e+00
-2.113939e+00 -1.043009e-01 1.739387e+00
-2.277608e+00 2.105269e-01 1.307444e+00
-2.063068e+00 4.592312e-01 6.959061e-01
-1.576477e+00 5.768966e-01 1.067553e-01
-9.763531e-01 6.053674e-01 -4.057539e-01
-3.724276e-01 5.805492e-01 -8.418533e-01
3.336149e-01 -1.210708e+00 1.430253e+00
-6.277615e-01 -9.727750e-01 1.868226e+00
-1.356526e+00 -6.328771e-01 1.938751e+00
-1.807332e+00 -1.790712e-01 1.633745e+00
-1.941875e+00 3.632551e-01 9.868030e-01
-1.751745e+00 7.878996e-01 2.338069e-01
-1.333818e+00 9.929140e-01 -3.947805e-01
-8.209771e-01 1.039683e+00 -8.751040e-01
-3.044388e-01 9.844273e-01 -1.239925e+00
1.033509e-01 -1.384599e+00 1.753338e+00
-5.944926e-01 -1.122778e+00 2.002577e+00
-1.102371e+00 -7.407449e-01 1.899523e+00
-1.387666e+00 -2.251196e-01 1.433732e+00
-1.422603e+00 3.940226e-01 6.450843e-01
-1.227436e+00 8.821979e-01 -1.758558e-01
-8.863910e-01 1.121397e+00 -7.927339e-01
-4.920480e-01 1.181749e+00 -1.214612e+00
-1.066090e-01 1.122663e+00 -1.489120e+00
-1.331135e-01 -1.196461e+00 1.789862e+00
-5.431289e-01 -9.883083e-01 1.894637e+00
-8.141674e-01 -6.704297e-01 1.692692e+00
-9.219091e-01 -2.309231e-01 1.168967e+00
-8.559997e-01 3.028917e-01 3.682424e-01
-6.609066e-01 7.301083e-01 -4.158559e-01
-4.077695e-01 9.471548e-01 -9.660504e-01
-1.459574e-01 1.010054e+00 -1.309195e+00
9.546328e-02 9.689848e-01 -1.500257e+00
-2.277522e-01 -7.549544e-01 1.528978e+00
-4.041366e-01 -6.429659e-01 1.556256e+00
-4.947539e-01 -4.537767e-01 1.341773e+00
-4.883961e-01 -1.824983e-01 8.748416e-01
-3.834722e-01 1.536268e-01 1.934530e-01
-2.292963e-01 4.298338e-01 -4.526942e-01
-7.443429e-02 5.769117e-01 -8.887955e-01
6.467167e-02 6.282008e-01 -1.145590e+00
1.811017e-01 6.139648e-01 -1.271410e+00
-1.192004e-01 -2.362730e-01 1.066837e+00
-1.543591e-01 -2.095856e-01 1.069010e+00
-1.614870e-01 -1.553394e-01 9.075909e-01
-1.370333e-01 -7.296653e-02 5.757956e-01
-8.318582e-02 3.186299e-02 1.026155e-01
-2.202613e-02 1.210987e-01 -3.408194e-01
2.888345e-02 1.717018e-01 -6.356721e-01
6.820794e-02 1.927507e-01 -8.048868e-01
9.702106e-02 1.932929e-01 -8.828619e-01
1.583637e-01 2.170406e-01 5.370731e-01
1.743661e-01 2.027044e-01 5.377366e-01
1.621447e-01 1.596966e-01 4.566001e-01
1.177523e-01 8.807661e-02 2.897506e-01
4.687895e-02 -7.519491e-03 5.142388e-02
-2.344740e-02 -9.344174e-02 -1.714054e-01
-7.444132e-02 -1.466320e-01 -3.190475e-01
-1.090930e-01 -1.721635e-01 -4.034419e-01
-1.302962e-01 -1.785846e-01 -4.420705e-01
-1.064628e-02 1.398203e+00 5.072156e-01
-1.057107e+00 1.115733e+00 1.119570e+00
-1.784069e+00 7.375794e-01 1.494256e+00
-2.131061e+00 2.300517e-01 1.562046e+00
-2.092831e+00 -3.794673e-01 1.325069e+00
-1.736430e+00 -8.584199e-01 9.190991e-01
-1.186414e+00 -1.099232e+00 4.607258e-01
-5.738968e-01 -1.157194e+00 2.420486e-02
3.310128e-02 -1.071730e+00 -3.481891e-01
4.100178e-01 6.973762e-01 9.397300e-01
-7.199775e-01 5.644952e-01 1.561504e+00
-1.579394e+00 3.654649e-01 1.828379e+00
-2.113939e+00 1.043010e-01 1.739387e+00
-2.277608e+00 -2.105269e-01 1.307444e+00
-2.063068e+00 -4.592311e-01 6.959061e-01
-1.576477e+00 -5.768965e-01 1.067553e-01
-9.763530e-01 -6.053672e-01 -4.057539e-01
-3.724277e-01 -5.805490e-01 -8.418533e-01
6.486397e-01 9.713298e-08 1.511180e+00
-4.707647e-01 8.614932e-08 2.029304e+00
-1.349487e+00 1.194971e-08 2.137414e+00
-1.947805e+00 6.431112e-08 1.831314e+00
-2.216684e+00 4.913579e-08 1.127917e+00
-2.114832e+00 5.495289e-08 2.985408e-01
-1.705526e+00 9.315101e-08 -4.009945e-01
-1.157329e+00 6.101301e-08 -9.540624e-01
-5.866491e-01 6.139052e-08 -1.366756e+00
6.310903e-01 -5.633548e-01 2.077451e+00
-3.293527e-01 -4.412468e-01 2.425059e+00
-1.090374e+00 -2.810851e-01 2.338986e+00
-1.622844e+00 -6.632093e-02 1.799024e+00
-1.887855e+00 1.832901e-01 8.438803e-01
-1.829704e+00 3.766819e-01 -1.669177e-01
-1.501420e+00 4.698610e-01 -9.385631e-01
-1.045481e+00 4.871880e-01 -1.479961e+00
-5.621427e-01 4.538637e-01 -1.833800e+00
3.983008e-01 -8.099885e-01 2.442560e+00
-2.772895e-01 -6.372836e-01 2.620485e+00
-8.060337e-01 -4.062482e-01 2.366995e+00
-1.167361e+00 -1.003306e-01 1.659996e+00
-1.332348e+00 2.588587e-01 5.461486e-01
-1.273173e+00 5.368955e-01 -5.563664e-01
-1.029393e+00 6.691208e-01 -1.336841e+00
-7.009810e-01 6.938936e-01 -1.836119e+00
-3.578453e-01 6.476150e-01 -2.116468e+00
1.212717e-01 -6.746032e-01 2.473274e+00
-2.320344e-01 -5.384799e-01 2.530084e+00
-4.977491e-01 -3.505842e-01 2.194745e+00
-6.601356e-01 -9.752580e-02 1.440798e+00
-7.081370e-01 2.012735e-01 3.222258e-01
-6.406020e-01 4.352195e-01 -7.445367e-01
-4.890479e-01 5.491624e-01 -1.467454e+00
-3.028381e-01 5.739249e-01 -1.898136e+00
-1.159596e-01 5.399853e-01 -2.109631e+00
-1.558004e-02 -2.576785e-01 2.164628e+00
-1.066412e-01 -2.109057e-01 2.171864e+00
-1.685166e-01 -1.413102e-01 1.847595e+00
-1.962288e-01 -4.618953e-02 1.175028e+00
-1.878522e-01 6.783035e-02 2.024489e-01
-1.511741e-01 1.587188e-01 -7.106922e-01
-9.933030e-02 2.045501e-01 -1.316409e+00
-4.384917e-02 2.169421e-01 -1.666103e+00
8.282550e-03 2.071262e-01 -1.826290e+00
7.189262e-02 2.536440e-01 1.641441e+00
1.326437e-01 2.159200e-01 1.645661e+00
1.643437e-01 1.526924e-01 1.397346e+00
1.648551e-01 6.173633e-02 8.864834e-01
1.314797e-01 -5.208452e-02 1.545681e-01
8.072732e-02 -1.452405e-01 -5.314743e-01
2.915439e-02 -1.942704e-01 -9.871963e-01
-1.751726e-02 -2.114018e-01 -1.249107e+00
-5.690060e-02 -2.064779e-01 -1.370028e+00
3.492085e-01 7.036392e-01 1.059140e+00
4.570772e-01 6.229573e-01 1.072796e+00
4.814511e-01 4.610144e-01 9.229543e-01
4.091519e-01 2.173544e-01 5.992170e-01
2.498818e-01 -9.355188e-02 1.269421e-01
7.086503e-02 -3.604606e-01 -3.172148e-01
-7.959382e-02 -5.125967e-01 -6.146904e-01
-1.971870e-01 -5.753543e-01 -7.881117e-01
-2.853505e-01 -5.759795e-01 -8.704206e-01
-1.510892e-01 1.793042e+00 9.062516e-01
-1.013569e+00 1.460882e+00 1.338385e+00
-1.594009e+00 9.786146e-01 1.522037e+00
-1.838457e+00 3.218083e-01 1.399717e+00
-1.745647e+00 -4.650783e-01 9.890298e-01
-1.394773e+00 -1.095839e+00 4.749858e-01
-9.038664e-01 -1.416630e+00 3.521312e-03
-3.747649e-01 -1.504317e+00 -3.901265e-01
1.352585e-01 -1.423027e+00 -6.900828e-01
3.336149e-01 1.210708e+00 1.430253e+00
-6.277616e-01 9.727752e-01 1.868226e+00
-1.356526e+00 6.328773e-01 1.938752e+00
-1.807331e+00 1.790714e-01 1.633745e+00
-1.941875e+00 -3.632548e-01 9.868029e-01
-1.751745e+00 -7.878994e-01 2.338068e-01
-1.333818e+00 -9.929139e-01 -3.947803e-01
-8.209773e-01 -1.039683e+00 -8.751039e-01
-3.044389e-01 -9.844271e-01 -1.239925e+00
6.310903e-01 5.633550e-01 2.077451e+00
-3.293527e-01 4.412471e-01 2.425059e+00
-1.090374e+00 2.810854e-01 2.338986e+00
-1.622844e+00 6.632108e-02 1.799024e+00
-1.887855e+00 -1.832899e-01 8.438804e-01
-1.829704e+00 -3.766818e-01 -1.669176e-01
-1.501420e+00 -4.698608e-01 -9.385631e-01
-1.045481e+00 -4.871878e-01 -1.479961e+00
-5.621428e-01 -4.538635e-01 -1.833800e+00
6.446311e-01 1.736141e-07 2.686294e+00
-1.533087e-01 2.079093e-07 2.895562e+00
-7.967905e-01 1.577954e-07 2.629800e+00
-1.271486e+00 1.115089e-07 1.850663e+00
-1.545620e+00 3.382590e-08 6.186612e-01
-1.546593e+00 2.840024e-08 -6.085399e-01
-1.310728e+00 5.900420e-08 -1.484838e+00
-9.562812e-01 5.136079e-08 -2.044982e+00
-5.670200e-01 4.685900e-08 -2.362874e+00
4.088371e-01 -2.789871e-01 3.053961e+00
-8.715414e-02 -2.162416e-01 3.133735e+00
-4.876341e-01 -1.334544e-01 2.728445e+00
-7.851283e-01 -2.848528e-02 1.795804e+00
-9.584615e-01 9.579797e-02 4.005846e-01
-9.629787e-01 1.899218e-01 -9.352607e-01
-8.186256e-01 2.326307e-01 -1.844869e+00
-5.994997e-01 2.395590e-01 -2.388351e+00
-3.580757e-01 2.216270e-01 -2.656433e+00
1.075842e-01 -1.783847e-01 3.037343e+00
-4.498046e-02 -1.392513e-01 3.048337e+00
-1.665074e-01 -8.720477e-02 2.600953e+00
-2.529391e-01 -1.975020e-02 1.652184e+00
-2.985234e-01 5.880951e-02 2.719293e-01
-2.927002e-01 1.189635e-01 -1.027079e+00
-2.432025e-01 1.468849e-01 -1.892140e+00
-1.724152e-01 1.515431e-01 -2.390806e+00
-9.578116e-02 1.406637e-01 -2.617894e+00
-4.577019e-02 2.204271e-01 2.657926e+00
7.251605e-02 1.755091e-01 2.667250e+00
1.627805e-01 1.153731e-01 2.271649e+00
2.188460e-01 3.214806e-02 1.443390e+00
2.369269e-01 -6.618687e-02 2.416749e-01
2.159357e-01 -1.434655e-01 -8.875557e-01
1.660806e-01 -1.814195e-01 -1.637920e+00
1.041226e-01 -1.893831e-01 -2.070894e+00
4.263270e-02 -1.780122e-01 -2.269080e+00
4.682196e-02 7.281494e-01 2.068885e+00
3.071991e-01 5.989479e-01 2.109663e+00
4.852481e-01 4.048903e-01 1.820181e+00
5.665599e-01 1.366685e-01 1.185614e+00
5.421764e-01 -1.898593e-01 2.591933e-01
4.331580e-01 -4.496798e-01 -6.217233e-01
2.823238e-01 -5.803558e-01 -1.217130e+00
1.220305e-01 -6.168286e-01 -1.568605e+00
-2.845237e-02 -5.900636e-01 -1.743569e+00
3.471358e-01 1.182735e+00 1.446087e+00
6.351245e-01 1.005047e+00 1.507825e+00
7.883270e-01 7.069325e-01 1.337129e+00
7.788343e-01 2.835766e-01 9.110164e-01
6.156116e-01 -2.389734e-01 2.639064e-01
3.777268e-01 -6.729584e-01 -3.576871e-01
1.349056e-01 -9.061609e-01 -7.865226e-01
-8.825897e-02 -9.863194e-01 -1.048829e+00
-2.801520e-01 -9.615338e-01 -1.184331e+00
-3.771986e-01 1.859954e+00 1.154208e+00
-9.911028e-01 1.547793e+00 1.406348e+00
-1.367479e+00 1.060709e+00 1.422992e+00
-1.458936e+00 3.862531e-01 1.160282e+00
-1.272691e+00 -4.341690e-01 6.408692e-01
-9.132357e-01 -1.102160e+00 8.246672e-02
-4.895268e-01 -1.451092e+00 -3.639287e-01
-7.043683e-02 -1.559080e+00 -6.904219e-01
3.131568e-01 -1.498358e+00 -9.085184e-01
1.033509e-01 1.384599e+00 1.753338e+00
-5.944925e-01 1.122778e+00 2.002578e+00
-1.102371e+00 7.407449e-01 1.899523e+00
-1.387666e+00 2.251196e-01 1.433732e+00
-1.422604e+00 -3.940225e-01 6.450845e-01
-1.227436e+00 -8.821977e-01 -1.758556e-01
-8.863911e-01 -1.121397e+00 -7.927339e-01
-4.920480e-01 -1.181749e+00 -1.214611e+00
-1.066090e-01 -1.122662e+00 -1.489120e+00
3.983009e-01 8.099886e-01 2.442560e+00
-2.772895e-01 6.372836e-01 2.620485e+00
-8.060337e-01 4.062483e-01 2.366995e+00
-1.167361e+00 1.003308e-01 1.659996e+00
-1.332348e+00 -2.588586e-01 5.461488e-01
-1.273173e+00 -5.368953e-01 -5.563664e-01
-1.029393e+00 -6.691206e-01 -1.336840e+00
-7.009810e-01 -6.938935e-01 -1.836119e+00
-3.578453e-01 -6.476148e-01 -2.116468e+00
4.088371e-01 2.789873e-01 3.053961e+00
-8.715425e-02 2.162418e-01 3.133735e+00
-4.876341e-01 1.334546e-01 2.728445e+00
-7.851282e-01 2.848540e-02 1.795805e+00
-9.584615e-01 -9.579784e-02 4.005847e-01
-9.629787e-01 -1.899217e-01 -9.352607e-01
-8.186257e-01 -2.326306e-01 -1.844869e+00
-5.994997e-01 -2.395588e-01 -2.388351e+00
-3.580757e-01 -2.216269e-01 -2.656433e+00
1.658899e-01 6.929989e-08 3.376767e+00
-1.511566e-02 4.310826e-08 3.391295e+00
-1.639455e-01 7.388338e-08 2.893522e+00
-2.776945e-01 6.610195e-08 1.838412e+00
-3.487678e-01 3.032259e-08 2.946475e-01
-3.577285e-01 3.555576e-08 -1.159058e+00
-3.097095e-01 -1.746445e-08 -2.125995e+00
-2.321015e-01 -3.457160e-08 -2.685900e+00
-1.444344e-01 -1.179040e-08 -2.940029e+00
-1.391016e-01 8.967474e-02 3.292657e+00
2.614731e-02 6.969786e-02 3.305871e+00
1.587111e-01 4.273133e-02 2.820127e+00
2.582143e-01 9.629289e-03 1.790284e+00
3.166095e-01 -3.145809e-02 2.875524e-01
3.186935e-01 -6.229817e-02 -1.127301e+00
2.714693e-01 -7.603130e-02 -2.069588e+00
1.998274e-01 -7.873467e-02 -2.613411e+00
1.214468e-01 -7.306055e-02 -2.861423e+00
-2.834443e-01 4.884478e-01 2.847121e+00
1.406216e-01 3.827006e-01 2.917874e+00
4.770337e-01 2.433705e-01 2.530426e+00
7.146623e-01 5.825842e-02 1.659569e+00
8.327291e-01 -1.593021e-01 3.633766e-01
8.094467e-01 -3.275070e-01 -8.752101e-01
6.653177e-01 -4.071638e-01 -1.713917e+00
4.643763e-01 -4.213589e-01 -2.216491e+00
2.525778e-01 -3.923273e-01 -2.466006e+00
-1.673226e-01 1.011366e+00 2.221077e+00
3.734133e-01 8.153149e-01 2.357632e+00
7.797800e-01 5.337801e-01 2.104588e+00
1.029841e+00 1.554893e-01 1.451331e+00
1.097192e+00 -2.989342e-01 4.516673e-01
9.819154e-01 -6.549694e-01 -5.299076e-01
7.413589e-01 -8.267267e-01 -1.219603e+00
4.496906e-01 -8.675059e-01 -1.651933e+00
1.574475e-01 -8.211679e-01 -1.896514e+00
1.681824e-01 1.502432e+00 1.597325e+00
7.064118e-01 1.237672e+00 1.758647e+00
1.063582e+00 8.371703e-01 1.640173e+00
1.195711e+00 2.897411e-01 1.204080e+00
1.105262e+00 -3.729682e-01 4.857928e-01
8.596620e-01 -9.092046e-01 -2.308821e-01
5.346048e-01 -1.184902e+00 -7.546059e-01
1.937339e-01 -1.264726e+00 -1.099360e+00
-1.297486e-01 -1.206942e+00 -1.299716e+00
-5.646922e-01 1.602704e+00 1.155738e+00
-9.271556e-01 1.373574e+00 1.271744e+00
-1.098815e+00 9.762305e-01 1.186731e+00
-1.046697e+00 4.047858e-01 8.727038e-01
-7.846750e-01 -3.035403e-01 3.556466e-01
-4.309816e-01 -8.943040e-01 -1.608166e-01
-8.848326e-02 -1.215657e+00 -5.362392e-01
2.131696e-01 -1.331022e+00 -7.836320e-01
4.646512e-01 -1.305358e+00 -9.275578e-01
-1.331136e-01 1.196461e+00 1.789862e+00
-5.431290e-01 9.883084e-01 1.894638e+00
-8.141674e-01 6.704297e-01 1.692692e+00
-9.219092e-01 2.309231e-01 1.168967e+00
-8.559997e-01 -3.028916e-01 3.682425e-01
-6.609066e-01 -7.301081e-01 -4.158558e-01
-4.077695e-01 -9.471546e-01 -9.660502e-01
-1.459575e-01 -1.010054e+00 -1.309195e+00
9.546320e-02 -9.689845e-01 -1.500257e+00
1.212717e-01 6.746031e-01 2.473274e+00
-2.320344e-01 5.384798e-01 2.530084e+00
-4.977491e-01 3.505843e-01 2.194746e+00
-6.601355e-01 9.752594e-02 1.440798e+00
-7.081369e-01 -2.012734e-01 3.222259e-01
-6.406021e-01 -4.352194e-01 -7.445367e-01
-4.890479e-01 -5.491622e-01 -1.467454e+00
-3.028381e-01 -5.739246e-01 -1.898136e+00
-1.159597e-01 -5.399851e-01 -2.109631e+00
1.075842e-01 1.783848e-01 3.037344e+00
-4.498050e-02 1.392515e-01 3.048337e+00
-1.665074e-01 8.720486e-02 2.600954e+00
-2.529392e-01 1.975029e-02 1.652184e+00
-2.985235e-01 -5.880941e-02 2.719294e-01
-2.927002e-01 -1.189634e-01 -1.027079e+00
-2.432026e-01 -1.468847e-01 -1.892139e+00
-1.724152e-01 -1.515430e-01 -2.390806e+00
-9.578121e-02 -1.406635e-01 -2.617894e+00
-1.391016e-01 -8.967473e-02 3.292657e+00
2.614736e-02 -6.969782e-02 3.305871e+00
1.587111e-01 -4.273123e-02 2.820127e+00
2.582143e-01 -9.629212e-03 1.790284e+00
3.166095e-01 3.145820e-02 2.875525e-01
3.186935e-01 6.229825e-02 -1.127301e+00
2.714693e-01 7.603139e-02 -2.069588e+00
1.998274e-01 7.873474e-02 -2.613412e+00
1.214468e-01 7.306059e-02 -2.861424e+00
-4.347649e-01 4.881702e-08 3.145629e+00
6.489372e-02 6.301848e-08 3.228218e+00
4.708492e-01 3.011597e-08 2.808059e+00
7.769436e-01 8.023257e-08 1.841894e+00
9.626826e-01 3.117607e-08 4.026297e-01
9.754799e-01 4.766810e-08 -9.772989e-01
8.367374e-01 8.324933e-08 -1.917307e+00
6.209117e-01 9.517105e-08 -2.478906e+00
3.813388e-01 1.012368e-07 -2.759078e+00
-5.668826e-01 4.094497e-01 2.674185e+00
1.714828e-01 3.185889e-01 2.864382e+00
7.678842e-01 2.019283e-01 2.580738e+00
1.202877e+00 4.461691e-02 1.798941e+00
1.443825e+00 -1.372885e-01 5.742849e-01
1.433322e+00 -2.779417e-01 -6.378375e-01
1.203639e+00 -3.454827e-01 -1.495882e+00
8.663972e-01 -3.571492e-01 -2.042753e+00
5.017843e-01 -3.315350e-01 -2.351797e+00
-4.379445e-01 9.711953e-01 2.058764e+00
3.917322e-01 7.741935e-01 2.344224e+00
1.042877e+00 4.985323e-01 2.212251e+00
1.480591e+00 1.324993e-01 1.654570e+00
1.666652e+00 -3.044744e-01 7.238332e-01
1.565143e+00 -6.441089e-01 -2.450087e-01
1.245980e+00 -8.053056e-01 -9.710055e-01
8.277519e-01 -8.386544e-01 -1.464567e+00
3.926273e-01 -7.904801e-01 -1.789105e+00
-8.972019e-02 1.532272e+00 1.480932e+00
7.182835e-01 1.234014e+00 1.790920e+00
1.300411e+00 8.139885e-01 1.797697e+00
1.603787e+00 2.495023e-01 1.449639e+00
1.621639e+00 -4.227474e-01 7.804093e-01
1.392325e+00 -9.577197e-01 6.245295e-02
9.986712e-01 -1.224537e+00 -5.071935e-01
5.406579e-01 -1.290933e+00 -9.222304e-01
8.139722e-02 -1.211452e+00 -1.196574e+00
-6.054555e-01 1.137361e+00 9.063279e-01
-7.687151e-01 1.013853e+00 9.435493e-01
-7.929923e-01 7.560545e-01 8.356939e-01
-6.600399e-01 3.627416e-01 5.694729e-01
-3.854797e-01 -1.405212e-01 1.652906e-01
-8.149295e-02 -5.731637e-01 -2.221308e-01
1.685421e-01 -8.216067e-01 -4.889578e-01
3.590877e-01 -9.265695e-01 -6.516770e-01
4.982403e-01 -9.324229e-01 -7.354380e-01
-2.277523e-01 7.549545e-01 1.528978e+00
-4.041366e-01 6.429659e-01 1.556256e+00