<?xml version="1.0"?>
<VTKFile type="StructuredGrid" version="0.1">
  <StructuredGrid WholeExtent="0 8 0 8 0 8">
    <Piece Extent="0 8 0 8 0 8">
      <PointData Scalars="temperature" Vectors="velocity">
        <DataArray type="Float32" Name="temperature" format="ascii">
1.000000e+00
8.750000e-01
7.500000e-01
6.250000e-01
4.722520e-01
3.750000e-01
2.500000e-01
1.250000e-01
0.000000e+00
1.000000e+00
8.750000e-01
7.500000e-01
6.250000e-01
4.735857e-01
3.750000e-01
2.500000e-01
1.250000e-01
0.000000e+00
1.000000e+00
8.750000e-01
7.500000e-01
6.250000e-01
4.768444e-01
3.750000e-01
2.500000e-01
1.250000e-01
0.000000e+00
1.000000e+00
8.750000e-01
7.500000e-01
6.250000e-01
4.817667e-01
3.750000e-01
2.500000e-01
1.250000e-01
0.000000e+00
1.000000e+00
8.750000e-01
7.500000e-01
6.250000e-01
4.875461e-01
3.750000e-01
2.500000e-01
1.250000e-01
0.000000e+00
1.000000e+00
8.750000e-01
7.500000e-01
6.250000e-01
4.930420e-01
3.750000e-01
2.500000e-01
1.250000e-01
0.000000e+00
1.000000e+00
8.750000e-01
7.500000e-01
6.250000e-01
4.972207e-01
3.750000e-01
2.500000e-01
1.250000e-01
0.000000e+00
1.000000e+00
8.750000e-01
7.500000e-01
6.250000e-01
4.995353e-01
3.750000e-01
2.500000e-01
1.250000e-01
0.000000e+00
1.000000e+00
8.750000e-01
7.500000e-01
6.250000e-01
5.000030e-01
3.750000e-01
2.500000e-01
1.250000e-01
0.000000e+00
1.000000e+00
8.750000e-01
7.500000e-01
6.250000e-01
4.727553e-01
3.750000e-01
2.500000e-01
1.250000e-01
0.000000e+00
1.000000e+00
8.750000e-01
7.500000e-01
6.250000e-01
4.733683e-01
3.750000e-01
2.500000e-01
1.250000e-01
0.000000e+00
1.000000e+00
8.750000e-01
7.500000e-01
6.250000e-01
4.762010e-01
3.750000e-01
2.500000e-01
1.250000e-01
0.000000e+00
1.000000e+00
8.750000e-01
7.500000e-01
6.250000e-01
4.811197e-01
3.750000e-01
2.500000e-01
1.250000e-01
0.000000e+00
1.000000e+00
8.750000e-01
7.500000e-01
6.250000e-01
4.872824e-01
3.750000e-01
2.500000e-01
1.250000e-01
0.000000e+00
1.000000e+00
8.750000e-01
7.500000e-01
6.250000e-01
4.933447e-01
3.750000e-01
2.500000e-01
1.250000e-01
0.000000e+00
1.000000e+00
8.750000e-01
7.500000e-01
6.250000e-01
4.980291e-01
3.750000e-01
2.500000e-01
1.250000e-01
0.000000e+00
1.000000e+00
8.750000e-01
7.500000e-01
6.250000e-01
5.006480e-01
3.750000e-01
2.500000e-01
1.250000e-01
0.000000e+00
1.000000e+00
8.750000e-01
7.500000e-01
6.250000e-01
5.012159e-01
3.750000e-01
2.500000e-01
1.250000e-01
0.000000e+00
1.000000e+00
8.750000e-01
7.500000e-01
6.250000e-01
4.752768e-01
3.750000e-01
2.500000e-01
1.250000e-01
0.000000e+00
1.000000e+00
8.750000e-01
7.500000e-01
6.250000e-01
4.753675e-01
3.750000e-01
2.500000e-01
1.250000e-01
0.000000e+00
1.000000e+00
8.750000e-01
7.500000e-01
6.250000e-01
4.778916e-01
3.750000e-01
2.500000e-01
1.250000e-01
0.000000e+00
1.000000e+00
8.750000e-01
7.500000e-01
6.250000e-01
4.828434e-01
3.750000e-01
2.500000e-01
1.250000e-01
0.000000e+00
1.000000e+00
8.750000e-01
7.500000e-01
6.250000e-01
4.893586e-01
3.750000e-01
2.500000e-01
1.250000e-01
0.000000e+00
1.000000e+00
8.750000e-01
7.500000e-01
6.250000e-01
4.959014e-01
3.750000e-01
2.500000e-01
1.250000e-01
0.000000e+00
1.000000e+00
8.750000e-01
7.500000e-01
6.250000e-01
5.009625e-01
3.750000e-01
2.500000e-01
1.250000e-01
0.000000e+00
1.000000e+00
8.750000e-01
7.500000e-01
6.250000e-01
5.037323e-01
3.750000e-01
2.500000e-01
1.250000e-01
0.000000e+00
1.000000e+00
8.750000e-01
7.500000e-01
6.250000e-01
5.042427e-01
3.750000e-01
2.500000e-01
1.250000e-01
0.000000e+00
1.000000e+00
8.750000e-01
7.500000e-01
6.250000e-01
4.796960e-01
3.750000e-01
2.500000e-01
1.250000e-01
0.000000e+00
1.000000e+00
8.750000e-01
7.500000e-01
6.250000e-01
4.795901e-01
3.750000e-01
2.500000e-01
1.250000e-01
0.000000e+00
1.000000e+00
8.750000e-01
7.500000e-01
6.250000e-01
4.820259e-01
3.750000e-01
2.500000e-01
1.250000e-01
0.000000e+00
1.000000e+00
8.750000e-01
7.500000e-01
6.250000e-01
4.870824e-01
3.750000e-01
2.500000e-01
1.250000e-01
0.000000e+00
1.000000e+00
8.750000e-01
7.500000e-01
6.250000e-01
4.938744e-01
3.750000e-01
2.500000e-01
1.250000e-01
0.000000e+00
1.000000e+00
8.750000e-01
7.500000e-01
6.250000e-01
5.007221e-01
3.750000e-01
2.500000e-01
1.250000e-01
0.000000e+00
1.000000e+00
8.750000e-01
7.500000e-01
6.250000e-01
5.059487e-01
3.750000e-01
2.500000e-01
1.250000e-01
0.000000e+00
1.000000e+00
8.750000e-01
7.500000e-01
6.250000e-01
5.086711e-01
3.750000e-01
2.500000e-01
1.250000e-01
0.000000e+00
1.000000e+00
8.750000e-01
7.500000e-01
6.250000e-01
5.089582e-01
3.750000e-01
2.500000e-01
1.250000e-01
0.000000e+00
1.000000e+00
8.750000e-01
7.500000e-01
6.250000e-01
4.853205e-01
3.750000e-01
2.500000e-01
1.250000e-01
0.000000e+00
1.000000e+00
8.750000e-01
7.500000e-01
6.250000e-01
4.853340e-01
3.750000e-01
2.500000e-01
1.250000e-01
0.000000e+00
1.000000e+00
8.750000e-01
7.500000e-01
6.250000e-01
4.878862e-01
3.750000e-01
2.500000e-01
1.250000e-01
0.000000e+00
1.000000e+00
8.750000e-01
7.500000e-01
6.250000e-01
4.930750e-01
3.750000e-01
2.500000e-01
1.250000e-01
0.000000e+00
1.000000e+00
8.750000e-01
7.500000e-01
6.250000e-01
5.000000e-01
3.750000e-01
2.500000e-01
1.250000e-01
0.000000e+00
1.000000e+00
8.750000e-01
7.500000e-01
6.250000e-01
5.069250e-01
3.750000e-01
2.500000e-01
1.250000e-01
0.000000e+00
1.000000e+00
8.750000e-01
7.500000e-01
6.250000e-01
5.121138e-01
3.750000e-01
2.500000e-01
1.250000e-01
0.000000e+00
1.000000e+00
8.750000e-01
7.500000e-01
6.250000e-01
5.146660e-01
3.750000e-01
2.500000e-01
1.250000e-01
0.000000e+00
1.000000e+00
8.750000e-01
7.500000e-01
6.250000e-01
5.146795e-01
3.750000e-01
2.500000e-01
1.250000e-01
0.000000e+00
1.000000e+00
8.750000e-01
7.500000e-01
6.250000e-01
4.910418e-01
3.750000e-01
2.500000e-01
1.250000e-01
0.000000e+00
1.000000e+00
8.750000e-01
7.500000e-01
6.250000e-01
4.913289e-01
3.750000e-01
2.500000e-01
1.250000e-01
0.000000e+00
1.000000e+00
8.750000e-01
7.500000e-01
6.250000e-01
4.940513e-01
3.750000e-01
2.500000e-01
1.250000e-01
0.000000e+00
1.000000e+00
8.750000e-01
7.500000e-01
6.250000e-01
4.992779e-01
3.750000e-01
2.500000e-01
1.250000e-01
0.000000e+00
1.000000e+00
8.750000e-01
7.500000e-01
6.250000e-01
5.061256e-01
3.750000e-01
2.500000e-01
1.250000e-01
0.000000e+00
1.000000e+00
8.750000e-01
7.500000e-01
6.250000e-01
5.129176e-01
3.750000e-01
2.500000e-01
1.250000e-01
0.000000e+00
1.000000e+00
8.750000e-01
7.500000e-01
6.250000e-01
5.179741e-01
3.750000e-01
2.500000e-01
1.250000e-01
0.000000e+00
1.000000e+00
8.750000e-01
7.500000e-01
6.250000e-01
5.204099e-01
3.750000e-01
2.500000e-01
1.250000e-01
0.000000e+00
1.000000e+00
8.750000e-01
7.500000e-01
6.250000e-01
5.203040e-01
3.750000e-01
2.500000e-01
1.250000e-01
0.000000e+00
1.000000e+00
8.750000e-01
7.500000e-01
6.250000e-01
4.957573e-01
3.750000e-01
2.500000e-01
1.250000e-01
0.000000e+00
1.000000e+00
8.750000e-01
7.500000e-01
6.250000e-01
4.962677e-01
3.750000e-01
2.500000e-01
1.250000e-01
0.000000e+00
1.000000e+00
8.750000e-01
7.500000e-01
6.250000e-01
4.990375e-01
3.750000e-01
2.500000e-01
1.250000e-01
0.000000e+00
1.000000e+00
8.750000e-01
7.500000e-01
6.250000e-01
5.040986e-01
3.750000e-01
2.500000e-01
1.250000e-01
0.000000e+00
1.000000e+00
8.750000e-01
7.500000e-01
6.250000e-01
5.106414e-01
3.750000e-01
2.500000e-01
1.250000e-01
0.000000e+00
1.000000e+00
8.750000e-01
7.500000e-01
6.250000e-01
5.171566e-01
3.750000e-01
2.500000e-01
1.250000e-01
0.000000e+00
1.000000e+00
8.750000e-01
7.500000e-01
6.250000e-01
5.221084e-01
3.750000e-01
2.500000e-01
1.250000e-01
0.000000e+00
1.000000e+00
8.750000e-01
7.500000e-01
6.250000e-01
5.246325e-01
3.750000e-01
2.500000e-01
1.250000e-01
0.000000e+00
1.000000e+00
8.750000e-01
7.500000e-01
6.250000e-01
5.247232e-01
3.750000e-01
2.500000e-01
1.250000e-01
0.000000e+00
1.000000e+00
8.750000e-01
7.500000e-01
6.250000e-01
4.987841e-01
3.750000e-01
2.500000e-01
1.250000e-01
0.000000e+00
1.000000e+00
8.750000e-01
7.500000e-01
6.250000e-01
4.993520e-01
3.750000e-01
2.500000e-01
1.250000e-01
0.000000e+00
1.000000e+00
8.750000e-01
7.500000e-01
6.250000e-01
5.019709e-01
3.750000e-01
2.500000e-01
1.250000e-01
0.000000e+00
1.000000e+00
8.750000e-01
7.500000e-01
6.250000e-01
5.066553e-01
3.750000e-01
2.500000e-01
1.250000e-01
0.000000e+00
1.000000e+00
8.750000e-01
7.500000e-01
6.250000e-01
5.127176e-01
3.750000e-01
2.500000e-01
1.250000e-01
0.000000e+00
1.000000e+00
8.750000e-01
7.500000e-01
6.250000e-01
5.188803e-01
3.750000e-01
2.500000e-01
1.250000e-01
0.000000e+00
1.000000e+00
8.750000e-01
7.500000e-01
6.250000e-01
5.237990e-01
3.750000e-01
2.500000e-01
1.250000e-01
0.000000e+00
1.000000e+00
8.750000e-01
7.500000e-01
6.250000e-01
5.266317e-01
3.750000e-01
2.500000e-01
1.250000e-01
0.000000e+00
1.000000e+00
8.750000e-01
7.500000e-01
6.250000e-01
5.272447e-01
3.750000e-01
2.500000e-01
1.250000e-01
0.000000e+00
1.000000e+00
8.750000e-01
7.500000e-01
6.250000e-01
4.999970e-01
3.750000e-01
2.500000e-01
1.250000e-01
0.000000e+00
1.000000e+00
8.750000e-01
7.500000e-01
6.250000e-01
5.004647e-01
3.750000e-01
2.500000e-01
1.250000e-01
0.000000e+00
1.000000e+00
8.750000e-01
7.500000e-01
6.250000e-01
5.027793e-01
3.750000e-01
2.500000e-01
1.250000e-01
0.000000e+00
1.000000e+00
8.750000e-01
7.500000e-01
6.250000e-01
5.069580e-01
3.750000e-01
2.500000e-01
1.250000e-01
0.000000e+00
1.000000e+00
8.750000e-01
7.500000e-01
6.250000e-01
5.124539e-01
3.750000e-01
2.500000e-01
1.250000e-01
0.000000e+00
1.000000e+00
8.750000e-01
7.500000e-01
6.250000e-01
5.182333e-01
3.750000e-01
2.500000e-01
1.250000e-01
0.000000e+00
1.000000e+00
8.750000e-01
7.500000e-01
6.250000e-01
5.231556e-01
3.750000e-01
2.500000e-01
1.250000e-01
0.000000e+00
1.000000e+00
8.750000e-01
7.500000e-01
6.250000e-01
5.264143e-01
3.750000e-01
2.500000e-01
1.250000e-01
0.000000e+00
1.000000e+00
8.750000e-01
7.500000e-01
6.250000e-01
5.277480e-01
3.750000e-01
2.500000e-01
1.250000e-01
0.000000e+00
        </DataArray>
        <DataArray type="Float32" Name="velocity" NumberOfComponents="3" format="ascii">
2.1893e-01 -3.2778e-03 -6.1141e-03
1.7874e-01 -1.1803e+00 -8.3736e-01
1.1771e-01 -1.9571e+00 -1.3855e+00
3.4742e-02 -2.3300e+00 -1.6479e+00
-6.4210e-02 -2.2741e+00 -1.6071e+00
-1.4502e-01 -1.8778e+00 -1.3260e+00
-1.8661e-01 -1.2808e+00 -9.0355e-01
-1.9943e-01 -6.1257e-01 -4.3121e-01
-1.9531e-01 3.7774e-03 4.2462e-03
9.0529e-01 1.4353e-01 -4.3498e-01
7.0622e-01 -9.9695e-01 -1.1153e+00
4.6388e-01 -1.8028e+00 -1.5432e+00
1.3179e-01 -2.2274e+00 -1.6488e+00
-2.5921e-01 -2.2558e+00 -1.4411e+00
-5.6245e-01 -1.9279e+00 -1.0358e+00
-7.1874e-01 -1.3742e+00 -5.5567e-01
-7.6128e-01 -7.4067e-01 -8.5671e-02
-6.8655e-01 -9.8555e-02 3.1336e-01
1.4342e+00 1.1655e-01 -8.8640e-01
1.1420e+00 -8.9672e-01 -1.4006e+00
7.4888e-01 -1.6219e+00 -1.6488e+00
2.2423e-01 -1.9986e+00 -1.5629e+00
-4.0365e-01 -2.0192e+00 -1.1558e+00
-8.9767e-01 -1.7295e+00 -6.2139e-01
-1.1449e+00 -1.2337e+00 -1.0742e-01
-1.2036e+00 -6.6149e-01 3.3314e-01
-1.1174e+00 -8.3675e-02 6.7734e-01
1.6934e+00 -5.5345e-02 -1.2537e+00
1.3757e+00 -8.5391e-01 -1.5907e+00
9.1591e-01 -1.4056e+00 -1.6536e+00
2.9293e-01 -1.6588e+00 -1.3881e+00
-4.5198e-01 -1.6109e+00 -8.2148e-01
-1.0490e+00 -1.3230e+00 -1.9124e-01
-1.3512e+00 -8.9321e-01 3.2827e-01
-1.4323e+00 -4.1721e-01 7.2229e-01
-1.3546e+00 4.8372e-02 9.9375e-01
1.6285e+00 -2.7832e-01 -1.4249e+00
1.3518e+00 -8.1390e-01 -1.6012e+00
9.2241e-01 -1.1511e+00 -1.5216e+00
3.3036e-01 -1.2467e+00 -1.1463e+00
-3.8898e-01 -1.1066e+00 -5.0551e-01
-9.7455e-01 -8.1520e-01 1.4314e-01
-1.2794e+00 -4.6052e-01 6.2622e-01
-1.3726e+00 -1.0342e-01 9.5193e-01
-1.3179e+00 2.2738e-01 1.1471e+00
1.2735e+00 -4.2414e-01 -1.3278e+00
1.0893e+00 -7.1326e-01 -1.3960e+00
7.7194e-01 -8.5467e-01 -1.2492e+00
3.1735e-01 -8.2087e-01 -8.6322e-01
-2.4582e-01 -6.2299e-01 -2.6911e-01
-7.1573e-01 -3.5239e-01 3.0495e-01
-9.7089e-01 -8.7417e-02 7.0407e-01
-1.0617e+00 1.4875e-01 9.5123e-01
-1.0402e+00 3.4739e-01 1.0811e+00
7.6137e-01 -3.9733e-01 -9.8919e-01
6.7757e-01 -5.0722e-01 -1.0047e+00
5.0421e-01 -5.2529e-01 -8.6741e-01
2.4110e-01 -4.3836e-01 -5.6663e-01
-9.5589e-02 -2.5748e-01 -1.2556e-01
-3.8560e-01 -5.7690e-02 2.9002e-01
-5.5209e-01 1.0718e-01 5.6910e-01
-6.2213e-01 2.3358e-01 7.3256e-01
-6.2533e-01 3.2664e-01 8.1050e-01
2.4463e-01 -1.8150e-01 -5.0868e-01
2.2904e-01 -1.9858e-01 -5.0962e-01
1.8085e-01 -1.8351e-01 -4.3314e-01
1.0011e-01 -1.3219e-01 -2.7532e-01
-7.8178e-03 -5.0906e-02 -4.9619e-02
-1.0486e-01 2.9424e-02 1.6155e-01
-1.6499e-01 8.7342e-02 3.0160e-01
-1.9409e-01 1.2623e-01 3.8181e-01
-2.0182e-01 1.4980e-01 4.1850e-01
-1.6920e-01 1.6881e-01 -3.9916e-03
-1.6943e-01 1.6925e-01 -3.9900e-03
-1.4360e-01 1.4364e-01 -3.3553e-03
-9.0916e-02 9.1162e-02 -2.0712e-03
-1.5690e-02 1.6113e-02 -2.4070e-04
5.4508e-02 -5.3990e-02 1.4707e-03
1.0084e-01 -1.0033e-01 2.6063e-03
1.2725e-01 -1.2680e-01 3.2601e-03
1.3947e-01 -1.3913e-01 3.5695e-03
-5.4535e-01 1.8964e-01 -3.6721e-01
-4.0930e-01 -9.8650e-01 -1.0857e+00
-2.6986e-01 -1.8240e+00 -1.5467e+00
-7.6007e-02 -2.2764e+00 -1.6852e+00
1.4991e-01 -2.3256e+00 -1.5071e+00
3.1796e-01 -2.0039e+00 -1.1165e+00
4.0498e-01 -1.4437e+00 -6.3545e-01
4.2585e-01 -7.9688e-01 -1.5528e-01
3.5684e-01 -1.3839e-01 2.6285e-01
1.6515e-01 4.2857e-01 -7.9350e-01
1.3112e-01 -7.3992e-01 -1.4746e+00
8.4203e-02 -1.6320e+00 -1.7926e+00
2.1268e-02 -2.1880e+00 -1.7578e+00
-5.4494e-02 -2.3607e+00 -1.3907e+00
-1.1396e-01 -2.1376e+00 -8.1779e-01
-1.4323e-01 -1.6366e+00 -2.3676e-01
-1.5104e-01 -1.0194e+00 2.8070e-01
-1.4271e-01 -4.0405e-01 7.4746e-01
7.6250e-01 5.0263e-01 -1.3313e+00
6.1251e-01 -5.7795e-01 -1.8529e+00
3.9295e-01 -1.4161e+00 -1.9899e+00
1.0536e-01 -1.9629e+00 -1.7419e+00
-2.4061e-01 -2.1706e+00 -1.1329e+00
-5.1261e-01 -2.0121e+00 -3.8832e-01
-6.4064e-01 -1.5779e+00 2.5873e-01
-6.7041e-01 -1.0221e+00 7.7629e-01
-6.4007e-01 -4.5244e-01 1.1846e+00
1.1387e+00 3.6961e-01 -1.7970e+00
9.1061e-01 -4.9974e-01 -2.1327e+00
5.8884e-01 -1.1689e+00 -2.0771e+00
1.6028e-01 -1.5986e+00 -1.6209e+00
-3.5184e-01 -1.7519e+00 -8.0839e-01
-7.5142e-01 -1.6082e+00 6.5894e-02
-9.4312e-01 -1.2491e+00 7.4416e-01
-9.8545e-01 -7.9649e-01 1.2242e+00
-9.3072e-01 -3.3408e-01 1.5571e+00
1.1668e+00 1.2228e-01 -2.0399e+00
9.4322e-01 -4.5954e-01 -2.2059e+00
6.1988e-01 -8.8838e-01 -2.0024e+00
1.8409e-01 -1.1384e+00 -1.4177e+00
-3.3965e-01 -1.1840e+00 -4.9972e-01
-7.5147e-01 -1.0360e+00 4.1482e-01
-9.5201e-01 -7.6148e-01 1.0688e+00
-1.0015e+00 -4.3848e-01 1.4886e+00
-9.4983e-01 -1.1964e-01 1.7359e+00
8.6161e-01 -8.1097e-02 -1.9668e+00
7.1021e-01 -3.7595e-01 -2.0200e+00
4.8089e-01 -5.7336e-01 -1.7559e+00
1.6379e-01 -6.5594e-01 -1.1586e+00
-2.2221e-01 -6.1511e-01 -2.7802e-01
-5.3030e-01 -4.8032e-01 5.6393e-01
-6.8612e-01 -3.0208e-01 1.1371e+00
-7.3065e-01 -1.1615e-01 1.4791e+00
-6.9994e-01 5.6515e-02 1.6532e+00
3.5618e-01 -1.0472e-01 -1.6043e+00
3.0298e-01 -1.8779e-01 -1.6110e+00
2.1366e-01 -2.3054e-01 -1.3706e+00
8.5611e-02 -2.2862e-01 -8.7269e-01
-7.3940e-02 -1.7991e-01 -1.5730e-01
-2.0473e-01 -1.0803e-01 5.1410e-01
-2.7384e-01 -3.5884e-02 9.6079e-01
-2.9791e-01 2.9029e-02 1.2181e+00
-2.9087e-01 8.3661e-02 1.3376e+00
-1.7163e-01 8.6020e-02 -1.0771e+00
-1.5244e-01 1.1216e-01 -1.0786e+00
-1.1330e-01 1.1783e-01 -9.1492e-01
-5.3538e-02 1.0064e-01 -5.7953e-01
2.2416e-02 6.2101e-02 -1.0166e-01
8.7069e-02 1.7754e-02 3.4594e-01
1.2384e-01 -1.9486e-02 6.4334e-01
1.3919e-01 -4.8372e-02 8.1379e-01
1.3978e-01 -6.9521e-02 8.9215e-01
-5.9527e-01 4.3260e-01 -5.2657e-01
-5.5606e-01 4.7834e-01 -5.3245e-01
-4.3783e-01 4.4547e-01 -4.5718e-01
-2.4011e-01 3.2599e-01 -2.9571e-01
2.3126e-02 1.3247e-01 -6.1804e-02
2.5778e-01 -6.1271e-02 1.5837e-01
4.0145e-01 -2.0265e-01 3.0562e-01
4.7113e-01 -2.9753e-01 3.9143e-01
4.8946e-01 -3.5583e-01 4.3212e-01
-1.2052e+00 1.9527e-01 -7.7362e-01
-9.4884e-01 -8.8656e-01 -1.3510e+00
-6.2067e-01 -1.6718e+00 -1.6576e+00
-1.8472e-01 -2.0976e+00 -1.6271e+00
3.3719e-01 -2.1525e+00 -1.2693e+00
7.4206e-01 -1.8725e+00 -7.6096e-01
9.4183e-01 -1.3623e+00 -2.4546e-01
9.8361e-01 -7.6264e-01 2.1395e-01
8.9738e-01 -1.5192e-01 5.8769e-01
-5.2598e-01 5.4655e-01 -1.2740e+00
-4.2589e-01 -5.7194e-01 -1.8269e+00
-2.7439e-01 -1.4436e+00 -1.9931e+00
-7.8092e-02 -2.0178e+00 -1.7732e+00
1.5946e-01 -2.2448e+00 -1.1898e+00
3.4660e-01 -2.0924e+00 -4.5869e-01
4.3282e-01 -1.6502e+00 1.8897e-01
4.5239e-01 -1.0790e+00 7.1587e-01
4.3453e-01 -4.9159e-01 1.1385e+00
9.5063e-02 6.9568e-01 -1.8758e+00
7.3175e-02 -3.5527e-01 -2.3020e+00
4.4826e-02 -1.1928e+00 -2.2912e+00
7.7622e-03 -1.7820e+00 -1.8380e+00
-3.5219e-02 -2.0741e+00 -9.6955e-01
-6.8247e-02 -2.0154e+00 -1.5170e-02
-8.3883e-02 -1.6555e+00 7.3932e-01
-8.6344e-02 -1.1546e+00 1.2982e+00
-8.0401e-02 -6.2552e-01 1.6864e+00
5.3362e-01 5.9699e-01 -2.4145e+00
4.1521e-01 -2.4116e-01 -2.6678e+00
2.6202e-01 -9.1181e-01 -2.4669e+00
5.7245e-02 -1.3910e+00 -1.7887e+00
-1.8003e-01 -1.6434e+00 -6.8168e-01
-3.6314e-01 -1.6120e+00 4.4078e-01
-4.5073e-01 -1.3384e+00 1.2584e+00
-4.6595e-01 -9.4806e-01 1.7995e+00
-4.3283e-01 -5.3007e-01 2.1247e+00
6.3463e-01 3.2570e-01 -2.6915e+00
4.9707e-01 -1.9411e-01 -2.7963e+00
3.1521e-01 -6.0375e-01 -2.4561e+00
7.4516e-02 -8.8808e-01 -1.6461e+00
-2.0785e-01 -1.0234e+00 -4.2044e-01
-4.2583e-01 -9.8584e-01 7.6311e-01
-5.2901e-01 -8.0338e-01 1.5755e+00
-5.4734e-01 -5.5362e-01 2.0724e+00
-5.0961e-01 -2.9144e-01 2.3294e+00
3.7226e-01 7.1217e-02 -2.6016e+00
2.9588e-01 -1.2308e-01 -2.6207e+00
1.9226e-01 -2.7048e-01 -2.2407e+00
5.1710e-02 -3.6134e-01 -1.4336e+00
-1.1399e-01 -3.8955e-01 -2.5745e-01
-2.4350e-01 -3.5397e-01 8.5107e-01
-3.0644e-01 -2.7151e-01 1.5906e+00
-3.1943e-01 -1.6941e-01 2.0201e+00
-2.9978e-01 -6.7088e-02 2.2195e+00
-1.2199e-01 6.9713e-03 -2.1824e+00
-1.0047e-01 5.1117e-02 -2.1863e+00
-6.8038e-02 8.1005e-02 -1.8568e+00
-2.3440e-02 9.4650e-02 -1.1774e+00
3.0166e-02 9.0942e-02 -1.9671e-01
7.3207e-02 7.3456e-02 7.2298e-01
9.5136e-02 4.8465e-02 1.3320e+00
1.0141e-01 2.1726e-02 1.6826e+00
9.7244e-02 -3.1805e-03 1.8423e+00
-6.5521e-01 1.8579e-01 -1.5909e+00
-5.5697e-01 3.4433e-01 -1.6126e+00
-3.9229e-01 4.2851e-01 -1.3840e+00
-1.5666e-01 4.2917e-01 -8.9510e-01
1.3497e-01 3.4368e-01 -1.8593e-01
3.7406e-01 2.1297e-01 4.8450e-01
5.0083e-01 7.8866e-02 9.3509e-01
5.4454e-01 -4.3158e-02 1.1988e+00
5.3155e-01 -1.4621e-01 1.3263e+00
-1.0861e+00 5.4349e-01 -9.8985e-01
-9.6182e-01 7.1178e-01 -1.0256e+00
-7.1183e-01 7.4964e-01 -9.0333e-01
-3.3470e-01 6.3828e-01 -6.0993e-01
1.4556e-01 3.9141e-01 -1.6828e-01
5.5645e-01 1.1174e-01 2.5369e-01
7.9019e-01 -1.2369e-01 5.4300e-01
8.8651e-01 -3.0736e-01 7.1814e-01
8.8782e-01 -4.4462e-01 8.0752e-01
-1.6319e+00 2.5245e-02 -1.1325e+00
-1.3168e+00 -8.6414e-01 -1.5407e+00
-8.7310e-01 -1.4922e+00 -1.6707e+00
-2.7434e-01 -1.8028e+00 -1.4672e+00
4.3946e-01 -1.7896e+00 -9.5407e-01
1.0071e+00 -1.5049e+00 -3.5157e-01
1.2911e+00 -1.0499e+00 1.7144e-01
1.3626e+00 -5.3365e-01 5.8783e-01
1.2780e+00 -2.2364e-02 8.9227e-01
-1.0434e+00 4.3802e-01 -1.7092e+00
-8.3530e-01 -5.0228e-01 -2.0947e+00
-5.4058e-01 -1.2316e+00 -2.0844e+00
-1.4886e-01 -1.7084e+00 -1.6715e+00
3.1826e-01 -1.8918e+00 -8.9851e-01
6.8245e-01 -1.7529e+00 -4.4191e-02
8.5620e-01 -1.3754e+00 6.3591e-01
8.9317e-01 -8.9194e-01 1.1313e+00
8.4375e-01 -3.9490e-01 1.4879e+00
-4.3953e-01 6.3676e-01 -2.3736e+00
-3.4433e-01 -2.4164e-01 -2.6498e+00
-2.2025e-01 -9.4602e-01 -2.4693e+00
-5.2664e-02 -1.4516e+00 -1.8112e+00
1.4166e-01 -1.7212e+00 -7.2188e-01
2.9245e-01 -1.6932e+00 3.9150e-01
3.6532e-01 -1.4096e+00 1.2096e+00
3.7875e-01 -1.0024e+00 1.7578e+00
3.5257e-01 -5.6520e-01 2.0936e+00
2.8740e-02 5.5400e-01 -2.9421e+00
2.0551e-02 -1.0174e-01 -3.0812e+00
1.1095e-02 -6.3333e-01 -2.7296e+00
-4.2786e-04 -1.0306e+00 -1.8464e+00
-1.3425e-02 -1.2669e+00 -4.9892e-01
-2.2697e-02 -1.2775e+00 8.1358e-01
-2.6481e-02 -1.0906e+00 1.7256e+00
-2.6359e-02 -8.0381e-01 2.2869e+00
-2.3399e-02 -4.8661e-01 2.5841e+00
1.8065e-01 2.6372e-01 -3.2105e+00
1.3850e-01 -4.9927e-02 -3.2449e+00
8.3715e-02 -3.0342e-01 -2.7856e+00
1.5477e-02 -4.9299e-01 -1.7888e+00
-6.5750e-02 -6.0466e-01 -3.2307e-01
-1.2647e-01 -6.0942e-01 1.0640e+00
-1.5333e-01 -5.1960e-01 1.9940e+00
-1.5714e-01 -3.8224e-01 2.5367e+00
-1.4444e-01 -2.3075e-01 2.7906e+00
-4.1590e-02 -2.5375e-02 -3.0652e+00
-3.3714e-02 1.1189e-02 -3.0691e+00
-2.2439e-02 3.9933e-02 -2.6125e+00
-7.2541e-03 6.0309e-02 -1.6525e+00
1.0858e-02 7.0992e-02 -2.5971e-01
2.5267e-02 6.9332e-02 1.0488e+00
3.2432e-02 5.7426e-02 1.9181e+00
3.4330e-02 4.0613e-02 2.4172e+00
3.2782e-02 2.2591e-02 2.6425e+00
-5.2408e-01 -1.0857e-01 -2.5726e+00
-4.1841e-01 1.7489e-01 -2.6100e+00
-2.7317e-01 3.8966e-01 -2.2457e+00
-7.6717e-02 5.2342e-01 -1.4535e+00
1.5523e-01 5.6697e-01 -2.8991e-01
3.3709e-01 5.1739e-01 8.1284e-01
4.2585e-01 3.9880e-01 1.5538e+00
4.4517e-01 2.5121e-01 1.9894e+00
4.1899e-01 1.0267e-01 2.1976e+00
-1.0664e+00 7.8748e-02 -1.9184e+00
-8.7798e-01 4.6417e-01 -2.0066e+00
-5.9321e-01 7.2592e-01 -1.7723e+00
-2.0073e-01 8.4236e-01 -1.2014e+00
2.7503e-01 8.0190e-01 -3.4284e-01
6.5443e-01 6.3777e-01 4.9025e-01
8.4584e-01 4.1246e-01 1.0681e+00
8.9967e-01 1.7374e-01 1.4227e+00
8.6129e-01 -4.9615e-02 1.6145e+00
-1.5179e+00 4.6563e-01 -1.2842e+00
-1.2910e+00 8.3833e-01 -1.3948e+00
-9.0917e-01 1.0334e+00 -1.2850e+00
-3.6583e-01 1.0166e+00 -9.2783e-01
3.0428e-01 7.9903e-01 -3.5302e-01
8.5997e-01 4.8370e-01 2.1573e-01
1.1586e+00 1.6363e-01 6.2431e-01
1.2616e+00 -1.2813e-01 8.8911e-01
1.2303e+00 -3.7770e-01 1.0400e+00
-1.7371e+00 -2.3850e-01 -1.3319e+00
-1.4333e+00 -8.7019e-01 -1.5709e+00
-9.7239e-01 -1.2818e+00 -1.5493e+00
-3.4062e-01 -1.4241e+00 -1.2247e+00
4.2426e-01 -1.3002e+00 -6.2523e-01
1.0428e+00 -9.9373e-01 4.1551e-03
1.3614e+00 -5.9980e-01 4.9375e-01
1.4543e+00 -1.9272e-01 8.4128e-01
1.3884e+00 1.9003e-01 1.0660e+00
-1.2312e+00 1.7850e-01 -1.9585e+00
-9.9482e-01 -4.9331e-01 -2.1745e+00
-6.5282e-01 -9.9388e-01 -2.0152e+00
-1.9337e-01 -1.2942e+00 -1.4719e+00
3.5725e-01 -1.3642e+00 -5.9067e-01
7.8962e-01 -1.2095e+00 3.0639e-01
9.9931e-01 -9.0303e-01 9.6389e-01
1.0499e+00 -5.3611e-01 1.4000e+00
9.9502e-01 -1.7099e-01 1.6716e+00
-6.6494e-01 3.8209e-01 -2.6419e+00
-5.2293e-01 -2.1044e-01 -2.7754e+00
-3.3353e-01 -6.7860e-01 -2.4608e+00
-8.2517e-02 -1.0058e+00 -1.6754e+00
2.1228e-01 -1.1652e+00 -4.7121e-01
4.4055e-01 -1.1271e+00 7.0168e-01
5.4892e-01 -9.2233e-01 1.5155e+00
5.6904e-01 -6.3962e-01 2.0216e+00
5.3085e-01 -3.4174e-01 2.2921e+00
-1.8833e-01 2.9960e-01 -3.1955e+00
-1.4746e-01 -5.5385e-02 -3.2383e+00
-9.2237e-02 -3.4226e-01 -2.7867e+00
-2.2226e-02 -5.5700e-01 -1.7969e+00
6.2039e-02 -6.8390e-01 -3.3784e-01
1.2629e-01 -6.8977e-01 1.0460e+00
1.5577e-01 -5.8851e-01 1.9765e+00
1.6146e-01 -4.3335e-01 2.5217e+00
1.5040e-01 -2.6209e-01 2.7795e+00
2.0309e-04 2.0876e-16 -3.4095e+00
-1.4931e-03 2.8827e-08 -3.4151e+00
-2.4944e-03 4.8505e-08 -2.9062e+00
-3.0841e-03 5.7413e-08 -1.8377e+00
-3.2295e-03 5.0283e-08 -2.7921e-01
-2.6076e-03 8.4638e-08 1.1855e+00
-1.7939e-03 4.7102e-09 2.1570e+00
-7.7372e-04 4.8143e-08 2.7171e+00
4.3520e-04 -1.8181e-16 2.9687e+00
-1.8833e-01 -2.9960e-01 -3.1955e+00
-1.4746e-01 5.5385e-02 -3.2383e+00
-9.2236e-02 3.4226e-01 -2.7867e+00
-2.2226e-02 5.5700e-01 -1.7969e+00
6.2039e-02 6.8390e-01 -3.3784e-01
1.2629e-01 6.8977e-01 1.0460e+00
1.5577e-01 5.8851e-01 1.9765e+00
1.6146e-01 4.3335e-01 2.5217e+00
1.5040e-01 2.6209e-01 2.7795e+00
-6.6494e-01 -3.8209e-01 -2.6419e+00
-5.2293e-01 2.1044e-01 -2.7754e+00
-3.3353e-01 6.7860e-01 -2.4608e+00
-8.2517e-02 1.0058e+00 -1.6754e+00
2.1228e-01 1.1652e+00 -4.7121e-01
4.4055e-01 1.1271e+00 7.0168e-01
5.4892e-01 9.2233e-01 1.5155e+00
5.6904e-01 6.3962e-01 2.0216e+00
5.3085e-01 3.4174e-01 2.2921e+00
-1.2312e+00 -1.7850e-01 -1.9585e+00
-9.9482e-01 4.9331e-01 -2.1745e+00
-6.5282e-01 9.9388e-01 -2.0152e+00
-1.9337e-01 1.2942e+00 -1.4719e+00
3.5725e-01 1.3642e+00 -5.9067e-01
7.8962e-01 1.2095e+00 3.0639e-01
9.9931e-01 9.0303e-01 9.6389e-01
1.0499e+00 5.3611e-01 1.4000e+00
9.9502e-01 1.7099e-01 1.6716e+00
-1.7371e+00 2.3850e-01 -1.3319e+00
-1.4333e+00 8.7019e-01 -1.5709e+00
-9.7239e-01 1.2818e+00 -1.5493e+00
-3.4062e-01 1.4241e+00 -1.2247e+00
4.2426e-01 1.3002e+00 -6.2523e-01
1.0428e+00 9.9373e-01 4.1552e-03
1.3614e+00 5.9980e-01 4.9375e-01
1.4543e+00 1.9272e-01 8.4128e-01
1.3884e+00 -1.9003e-01 1.0660e+00
-1.5179e+00 -4.6563e-01 -1.2842e+00
-1.2910e+00 -8.3833e-01 -1.3948e+00
-9.0917e-01 -1.0334e+00 -1.2850e+00
-3.6583e-01 -1.0166e+00 -9.2783e-01
3.0428e-01 -7.9903e-01 -3.5302e-01
8.5997e-01 -4.8370e-01 2.1573e-01
1.1586e+00 -1.6363e-01 6.2431e-01
1.2616e+00 1.2813e-01 8.8911e-01
1.2303e+00 3.7770e-01 1.0400e+00
-1.0664e+00 -7.8748e-02 -1.9184e+00
-8.7798e-01 -4.6417e-01 -2.0066e+00
-5.9321e-01 -7.2592e-01 -1.7723e+00
-2.0073e-01 -8.4236e-01 -1.2014e+00
2.7503e-01 -8.0190e-01 -3.4284e-01
6.5443e-01 -6.3777e-01 4.9025e-01
8.4584e-01 -4.1246e-01 1.0681e+00
8.9967e-01 -1.7374e-01 1.4227e+00
8.6129e-01 4.9615e-02 1.6145e+00
-5.2408e-01 1.0857e-01 -2.5726e+00
-4.1841e-01 -1.7489e-01 -2.6100e+00
-2.7317e-01 -3.8966e-01 -2.2457e+00
-7.6717e-02 -5.2342e-01 -1.4535e+00
1.5523e-01 -5.6697e-01 -2.8991e-01
3.3709e-01 -5.1739e-01 8.1284e-01
4.2585e-01 -3.9880e-01 1.5538e+00
4.4517e-01 -2.5121e-01 1.9894e+00
4.1899e-01 -1.0267e-01 2.1976e+00
-4.1590e-02 2.5375e-02 -3.0652e+00
-3.3714e-02 -1.1189e-02 -3.0691e+00
-2.2439e-02 -3.9933e-02 -2.6126e+00
-7.2542e-03 -6.0309e-02 -1.6525e+00
1.0858e-02 -7.0992e-02 -2.5971e-01
2.5267e-02 -6.9332e-02 1.0488e+00
3.2432e-02 -5.7426e-02 1.9181e+00
3.4330e-02 -4.0613e-02 2.4172e+00
3.2782e-02 -2.2591e-02 2.6425e+00
1.8065e-01 -2.6372e-01 -3.2105e+00
1.3850e-01 4.9928e-02 -3.2449e+00
8.3715e-02 3.0342e-01 -2.7856e+00
1.5478e-02 4.9299e-01 -1.7888e+00
-6.5750e-02 6.0466e-01 -3.2307e-01
-1.2647e-01 6.0942e-01 1.0640e+00
-1.5333e-01 5.1960e-01 1.9940e+00
-1.5714e-01 3.8224e-01 2.5367e+00
-1.4444e-01 2.3075e-01 2.7906e+00
2.8740e-02 -5.5400e-01 -2.9421e+00
2.0551e-02 1.0174e-01 -3.0812e+00
1.1095e-02 6.3333e-01 -2.7296e+00
-4.2782e-04 1.0306e+00 -1.8464e+00
-1.3425e-02 1.2669e+00 -4.9892e-01
-2.2697e-02 1.2775e+00 8.1358e-01
-2.6481e-02 1.0906e+00 1.7256e+00
-2.6359e-02 8.0381e-01 2.2869e+00
-2.3399e-02 4.8661e-01 2.5841e+00
-4.3953e-01 -6.3676e-01 -2.3736e+00
-3.4433e-01 2.4164e-01 -2.6498e+00
-2.2025e-01 9.4602e-01 -2.4693e+00
-5.2664e-02 1.4516e+00 -1.8112e+00
1.4166e-01 1.7212e+00 -7.2188e-01
2.9245e-01 1.6932e+00 3.9150e-01
3.6532e-01 1.4096e+00 1.2096e+00
3.7875e-01 1.0024e+00 1.7578e+00
3.5257e-01 5.6520e-01 2.0936e+00
-1.0434e+00 -4.3802e-01 -1.7092e+00
-8.3530e-01 5.0228e-01 -2.0947e+00
-5.4058e-01 1.2316e+00 -2.0844e+00
-1.4886e-01 1.7084e+00 -1.6715e+00
3.1826e-01 1.8918e+00 -8.9851e-01
6.8245e-01 1.7529e+00 -4.4191e-02
8.5620e-01 1.3754e+00 6.3591e-01
8.9317e-01 8.9194e-01 1.1313e+00
8.4375e-01 3.9490e-01 1.4879e+00
-1.6319e+00 -2.5245e-02 -1.1325e+00
-1.3168e+00 8.6414e-01 -1.5407e+00
-8.7310e-01 1.4922e+00 -1.6707e+00
-2.7434e-01 1.8028e+00 -1.4672e+00
4.3946e-01 1.7896e+00 -9.5407e-01
1.0071e+00 1.5049e+00 -3.5157e-01
1.2911e+00 1.0499e+00 1.7144e-01
1.3626e+00 5.3365e-01 5.8783e-01
1.2780e+00 2.2364e-02 8.9227e-01
-1.0861e+00 -5.4349e-01 -9.8985e-01
-9.6182e-01 -7.1178e-01 -1.0256e+00
-7.1183e-01 -7.4964e-01 -9.0333e-01
-3.3470e-01 -6.3828e-01 -6.0993e-01
1.4556e-01 -3.9141e-01 -1.6828e-01
5.5645e-01 -1.1174e-01 2.5369e-01
7.9019e-01 1.2369e-01 5.4300e-01
8.8651e-01 3.0736e-01 7.1814e-01
8.8782e-01 4.4462e-01 8.0752e-01
-6.5521e-01 -1.8579e-01 -1.5909e+00
-5.5697e-01 -3.4433e-01 -1.6126e+00
-3.9229e-01 -4.2851e-01 -1.3840e+00
-1.5666e-01 -4.2917e-01 -8.9510e-01
1.3497e-01 -3.4368e-01 -1.8593e-01
3.7406e-01 -2.1297e-01 4.8450e-01
5.0083e-01 -7.8866e-02 9.3509e-01
5.4454e-01 4.3158e-02 1.1988e+00
5.3155e-01 1.4621e-01 1.3263e+00
-1.2199e-01 -6.9713e-03 -2.1824e+00
-1.0047e-01 -5.1117e-02 -2.1863e+00
-6.8038e-02 -8.1004e-02 -1.8568e+00
-2.3440e-02 -9.4650e-02 -1.1774e+00
3.0166e-02 -9.0942e-02 -1.9671e-01
7.3207e-02 -7.3456e-02 7.2298e-01
9.5136e-02 -4.8465e-02 1.3320e+00
1.0141e-01 -2.1726e-02 1.6826e+00
9.7244e-02 3.1805e-03 1.8423e+00
3.7226e-01 -7.1217e-02 -2.6016e+00
2.9588e-01 1.2308e-01 -2.6207e+00
1.9226e-01 2.7048e-01 -2.2407e+00
5.1710e-02 3.6134e-01 -1.4336e+00
-1.1399e-01 3.8955e-01 -2.5745e-01
-2.4350e-01 3.5397e-01 8.5107e-01
-3.0644e-01 2.7151e-01 1.5906e+00
-3.1943e-01 1.6941e-01 2.0201e+00
-2.9978e-01 6.7088e-02 2.2195e+00
6.3463e-01 -3.2570e-01 -2.6915e+00
4.9707e-01 1.9411e-01 -2.7963e+00
3.1521e-01 6.0375e-01 -2.4561e+00
7.4515e-02 8.8808e-01 -1.6461e+00
-2.0785e-01 1.0234e+00 -4.2044e-01
-4.2583e-01 9.8584e-01 7.6311e-01
-5.2901e-01 8.0338e-01 1.5755e+00
-5.4734e-01 5.5362e-01 2.0724e+00
-5.0961e-01 2.9144e-01 2.3294e+00
5.3362e-01 -5.9699e-01 -2.4145e+00
4.1521e-01 2.4116e-01 -2.6678e+00
2.6202e-01 9.1181e-01 -2.4669e+00
5.7245e-02 1.3910e+00 -1.7887e+00
-1.8003e-01 1.6434e+00 -6.8168e-01
-3.6314e-01 1.6120e+00 4.4078e-01
-4.5073e-01 1.3384e+00 1.2584e+00
-4.6595e-01 9.4806e-01 1.7995e+00
-4.3283e-01 5.3007e-01 2.1247e+00
9.5063e-02 -6.9568e-01 -1.8758e+00
7.3175e-02 3.5527e-01 -2.3020e+00
4.4826e-02 1.1928e+00 -2.2912e+00
7.7621e-03 1.7820e+00 -1.8380e+00
-3.5219e-02 2.0741e+00 -9.6955e-01
-6.8247e-02 2.0154e+00 -1.5170e-02
-8.3883e-02 1.6555e+00 7.3932e-01
-8.6344e-02 1.1546e+00 1.2982e+00
-8.0401e-02 6.2552e-01 1.6864e+00
-5.2598e-01 -5.4655e-01 -1.2740e+00
-4.2589e-01 5.7195e-01 -1.8269e+00
-2.7439e-01 1.4436e+00 -1.9931e+00
-7.8092e-02 2.0178e+00 -1.7732e+00
1.5946e-01 2.2448e+00 -1.1898e+00
3.4660e-01 2.0924e+00 -4.5869e-01
4.3282e-01 1.6502e+00 1.8897e-01
4.5239e-01 1.0790e+00 7.1587e-01
4.3453e-01 4.9159e-01 1.1385e+00
-1.2052e+00 -1.9527e-01 -7.7362e-01
-9.4884e-01 8.8656e-01 -1.3510e+00
-6.2067e-01 1.6718e+00 -1.6576e+00
-1.8472e-01 2.0976e+00 -1.6271e+00
3.3719e-01 2.1525e+00 -1.2693e+00
7.4206e-01 1.8725e+00 -7.6096e-01
9.4183e-01 1.3623e+00 -2.4546e-01
9.8361e-01 7.6264e-01 2.1395e-01
8.9738e-01 1.5192e-01 5.8769e-01
-5.9527e-01 -4.3260e-01 -5.2657e-01
-5.5606e-01 -4.7834e-01 -5.3245e-01
-4.3783e-01 -4.4547e-01 -4.5718e-01
-2.4011e-01 -3.2599e-01 -2.9571e-01
2.3126e-02 -1.3247e-01 -6.1804e-02
2.5778e-01 6.1271e-02 1.5836e-01
4.0145e-01 2.0265e-01 3.0562e-01
4.7113e-01 2.9753e-01 3.9143e-01
4.8946e-01 3.5583e-01 4.3212e-01
-1.7163e-01 -8.6020e-02 -1.0771e+00
-1.5244e-01 -1.1216e-01 -1.0786e+00
-1.1330e-01 -1.1783e-01 -9.1492e-01
-5.3538e-02 -1.0064e-01 -5.7953e-01