<?xml version="1.0"?>
<VTKFile type="StructuredGrid" version="0.1">
  <StructuredGrid WholeExtent="0 8 0 8 0 8">
    <Piece Extent="0 8 0 8 0 8">
      <PointData Scalars="temperature" Vectors="velocity">
        <DataArray type="Float32" Name="temperature" format="ascii">
1.000000e+00
8.750000e-01
7.500000e-01
6.250000e-01
5.276118e-01
3.750000e-01
2.500000e-01
1.250000e-01
0.000000e+00
1.000000e+00
8.750000e-01
7.500000e-01
6.250000e-01
5.262658e-01
3.750000e-01
2.500000e-01
1.250000e-01
0.000000e+00
1.000000e+00
8.750000e-01
7.500000e-01
6.250000e-01
5.230003e-01
3.750000e-01
2.500000e-01
1.250000e-01
0.000000e+00
1.000000e+00
8.750000e-01
7.500000e-01
6.250000e-01
5.180810e-01
3.750000e-01
2.500000e-01
1.250000e-01
0.000000e+00
1.000000e+00
8.750000e-01
7.500000e-01
6.250000e-01
5.123167e-01
3.750000e-01
2.500000e-01
1.250000e-01
0.000000e+00
1.000000e+00
8.750000e-01
7.500000e-01
6.250000e-01
5.068483e-01
3.750000e-01
2.500000e-01
1.250000e-01
0.000000e+00
1.000000e+00
8.750000e-01
7.500000e-01
6.250000e-01
5.027058e-01
3.750000e-01
2.500000e-01
1.250000e-01
0.000000e+00
1.000000e+00
8.750000e-01
7.500000e-01
6.250000e-01
5.004314e-01
3.750000e-01
2.500000e-01
1.250000e-01
0.000000e+00
1.000000e+00
8.750000e-01
7.500000e-01
6.250000e-01
5.000030e-01
3.750000e-01
2.500000e-01
1.250000e-01
0.000000e+00
1.000000e+00
8.750000e-01
7.500000e-01
6.250000e-01
5.262658e-01
3.750000e-01
2.500000e-01
1.250000e-01
0.000000e+00
1.000000e+00
8.750000e-01
7.500000e-01
6.250000e-01
5.255123e-01
3.750000e-01
2.500000e-01
1.250000e-01
0.000000e+00
1.000000e+00
8.750000e-01
7.500000e-01
6.250000e-01
5.225955e-01
3.750000e-01
2.500000e-01
1.250000e-01
0.000000e+00
1.000000e+00
8.750000e-01
7.500000e-01
6.250000e-01
5.176858e-01
3.750000e-01
2.500000e-01
1.250000e-01
0.000000e+00
1.000000e+00
8.750000e-01
7.500000e-01
6.250000e-01
5.116465e-01
3.750000e-01
2.500000e-01
1.250000e-01
0.000000e+00
1.000000e+00
8.750000e-01
7.500000e-01
6.250000e-01
5.058126e-01
3.750000e-01
2.500000e-01
1.250000e-01
0.000000e+00
1.000000e+00
8.750000e-01
7.500000e-01
6.250000e-01
5.014227e-01
3.750000e-01
2.500000e-01
1.250000e-01
0.000000e+00
1.000000e+00
8.750000e-01
7.500000e-01
6.250000e-01
4.991137e-01
3.750000e-01
2.500000e-01
1.250000e-01
0.000000e+00
1.000000e+00
8.750000e-01
7.500000e-01
6.250000e-01
4.988291e-01
3.750000e-01
2.500000e-01
1.250000e-01
0.000000e+00
1.000000e+00
8.750000e-01
7.500000e-01
6.250000e-01
5.230003e-01
3.750000e-01
2.500000e-01
1.250000e-01
0.000000e+00
1.000000e+00
8.750000e-01
7.500000e-01
6.250000e-01
5.225955e-01
3.750000e-01
2.500000e-01
1.250000e-01
0.000000e+00
1.000000e+00
8.750000e-01
7.500000e-01
6.250000e-01
5.198577e-01
3.750000e-01
2.500000e-01
1.250000e-01
0.000000e+00
1.000000e+00
8.750000e-01
7.500000e-01
6.250000e-01
5.148763e-01
3.750000e-01
2.500000e-01
1.250000e-01
0.000000e+00
1.000000e+00
8.750000e-01
7.500000e-01
6.250000e-01
5.085695e-01
3.750000e-01
2.500000e-01
1.250000e-01
0.000000e+00
1.000000e+00
8.750000e-01
7.500000e-01
6.250000e-01
5.024589e-01
3.750000e-01
2.500000e-01
1.250000e-01
0.000000e+00
1.000000e+00
8.750000e-01
7.500000e-01
6.250000e-01
4.979710e-01
3.750000e-01
2.500000e-01
1.250000e-01
0.000000e+00
1.000000e+00
8.750000e-01
7.500000e-01
6.250000e-01
4.958054e-01
3.750000e-01
2.500000e-01
1.250000e-01
0.000000e+00
1.000000e+00
8.750000e-01
7.500000e-01
6.250000e-01
4.958411e-01
3.750000e-01
2.500000e-01
1.250000e-01
0.000000e+00
1.000000e+00
8.750000e-01
7.500000e-01
6.250000e-01
5.180810e-01
3.750000e-01
2.500000e-01
1.250000e-01
0.000000e+00
1.000000e+00
8.750000e-01
7.500000e-01
6.250000e-01
5.176858e-01
3.750000e-01
2.500000e-01
1.250000e-01
0.000000e+00
1.000000e+00
8.750000e-01
7.500000e-01
6.250000e-01
5.148763e-01
3.750000e-01
2.500000e-01
1.250000e-01
0.000000e+00
1.000000e+00
8.750000e-01
7.500000e-01
6.250000e-01
5.097084e-01
3.750000e-01
2.500000e-01
1.250000e-01
0.000000e+00
1.000000e+00
8.750000e-01
7.500000e-01
6.250000e-01
5.031631e-01
3.750000e-01
2.500000e-01
1.250000e-01
0.000000e+00
1.000000e+00
8.750000e-01
7.500000e-01
6.250000e-01
4.969105e-01
3.750000e-01
2.500000e-01
1.250000e-01
0.000000e+00
1.000000e+00
8.750000e-01
7.500000e-01
6.250000e-01
4.925040e-01
3.750000e-01
2.500000e-01
1.250000e-01
0.000000e+00
1.000000e+00
8.750000e-01
7.500000e-01
6.250000e-01
4.906559e-01
3.750000e-01
2.500000e-01
1.250000e-01
0.000000e+00
1.000000e+00
8.750000e-01
7.500000e-01
6.250000e-01
4.911596e-01
3.750000e-01
2.500000e-01
1.250000e-01
0.000000e+00
1.000000e+00
8.750000e-01
7.500000e-01
6.250000e-01
5.123167e-01
3.750000e-01
2.500000e-01
1.250000e-01
0.000000e+00
1.000000e+00
8.750000e-01
7.500000e-01
6.250000e-01
5.116465e-01
3.750000e-01
2.500000e-01
1.250000e-01
0.000000e+00
1.000000e+00
8.750000e-01
7.500000e-01
6.250000e-01
5.085695e-01
3.750000e-01
2.500000e-01
1.250000e-01
0.000000e+00
1.000000e+00
8.750000e-01
7.500000e-01
6.250000e-01
5.031631e-01
3.750000e-01
2.500000e-01
1.250000e-01
0.000000e+00
1.000000e+00
8.750000e-01
7.500000e-01
6.250000e-01
4.964626e-01
3.750000e-01
2.500000e-01
1.250000e-01
0.000000e+00
1.000000e+00
8.750000e-01
7.500000e-01
6.250000e-01
4.902088e-01
3.750000e-01
2.500000e-01
1.250000e-01
0.000000e+00
1.000000e+00
8.750000e-01
7.500000e-01
6.250000e-01
4.859931e-01
3.750000e-01
2.500000e-01
1.250000e-01
0.000000e+00
1.000000e+00
8.750000e-01
7.500000e-01
6.250000e-01
4.845029e-01
3.750000e-01
2.500000e-01
1.250000e-01
0.000000e+00
1.000000e+00
8.750000e-01
7.500000e-01
6.250000e-01
4.854627e-01
3.750000e-01
2.500000e-01
1.250000e-01
0.000000e+00
1.000000e+00
8.750000e-01
7.500000e-01
6.250000e-01
5.068483e-01
3.750000e-01
2.500000e-01
1.250000e-01
0.000000e+00
1.000000e+00
8.750000e-01
7.500000e-01
6.250000e-01
5.058126e-01
3.750000e-01
2.500000e-01
1.250000e-01
0.000000e+00
1.000000e+00
8.750000e-01
7.500000e-01
6.250000e-01
5.024589e-01
3.750000e-01
2.500000e-01
1.250000e-01
0.000000e+00
1.000000e+00
8.750000e-01
7.500000e-01
6.250000e-01
4.969105e-01
3.750000e-01
2.500000e-01
1.250000e-01
0.000000e+00
1.000000e+00
8.750000e-01
7.500000e-01
6.250000e-01
4.902088e-01
3.750000e-01
2.500000e-01
1.250000e-01
0.000000e+00
1.000000e+00
8.750000e-01
7.500000e-01
6.250000e-01
4.840554e-01
3.750000e-01
2.500000e-01
1.250000e-01
0.000000e+00
1.000000e+00
8.750000e-01
7.500000e-01
6.250000e-01
4.799926e-01
3.750000e-01
2.500000e-01
1.250000e-01
0.000000e+00
1.000000e+00
8.750000e-01
7.500000e-01
6.250000e-01
4.786828e-01
3.750000e-01
2.500000e-01
1.250000e-01
0.000000e+00
1.000000e+00
8.750000e-01
7.500000e-01
6.250000e-01
4.798501e-01
3.750000e-01
2.500000e-01
1.250000e-01
0.000000e+00
1.000000e+00
8.750000e-01
7.500000e-01
6.250000e-01
5.027058e-01
3.750000e-01
2.500000e-01
1.250000e-01
0.000000e+00
1.000000e+00
8.750000e-01
7.500000e-01
6.250000e-01
5.014227e-01
3.750000e-01
2.500000e-01
1.250000e-01
0.000000e+00
1.000000e+00
8.750000e-01
7.500000e-01
6.250000e-01
4.979710e-01
3.750000e-01
2.500000e-01
1.250000e-01
0.000000e+00
1.000000e+00
8.750000e-01
7.500000e-01
6.250000e-01
4.925040e-01
3.750000e-01
2.500000e-01
1.250000e-01
0.000000e+00
1.000000e+00
8.750000e-01
7.500000e-01
6.250000e-01
4.859931e-01
3.750000e-01
2.500000e-01
1.250000e-01
0.000000e+00
1.000000e+00
8.750000e-01
7.500000e-01
6.250000e-01
4.799926e-01
3.750000e-01
2.500000e-01
1.250000e-01
0.000000e+00
1.000000e+00
8.750000e-01
7.500000e-01
6.250000e-01
4.759309e-01
3.750000e-01
2.500000e-01
1.250000e-01
0.000000e+00
1.000000e+00
8.750000e-01
7.500000e-01
6.250000e-01
4.744727e-01
3.750000e-01
2.500000e-01
1.250000e-01
0.000000e+00
1.000000e+00
8.750000e-01
7.500000e-01
6.250000e-01
4.754310e-01
3.750000e-01
2.500000e-01
1.250000e-01
0.000000e+00
1.000000e+00
8.750000e-01
7.500000e-01
6.250000e-01
5.004314e-01
3.750000e-01
2.500000e-01
1.250000e-01
0.000000e+00
1.000000e+00
8.750000e-01
7.500000e-01
6.250000e-01
4.991137e-01
3.750000e-01
2.500000e-01
1.250000e-01
0.000000e+00
1.000000e+00
8.750000e-01
7.500000e-01
6.250000e-01
4.958054e-01
3.750000e-01
2.500000e-01
1.250000e-01
0.000000e+00
1.000000e+00
8.750000e-01
7.500000e-01
6.250000e-01
4.906559e-01
3.750000e-01
2.500000e-01
1.250000e-01
0.000000e+00
1.000000e+00
8.750000e-01
7.500000e-01
6.250000e-01
4.845029e-01
3.750000e-01
2.500000e-01
1.250000e-01
0.000000e+00
1.000000e+00
8.750000e-01
7.500000e-01
6.250000e-01
4.786828e-01
3.750000e-01
2.500000e-01
1.250000e-01
0.000000e+00
1.000000e+00
8.750000e-01
7.500000e-01
6.250000e-01
4.744727e-01
3.750000e-01
2.500000e-01
1.250000e-01
0.000000e+00
1.000000e+00
8.750000e-01
7.500000e-01
6.250000e-01
4.725572e-01
3.750000e-01
2.500000e-01
1.250000e-01
0.000000e+00
1.000000e+00
8.750000e-01
7.500000e-01
6.250000e-01
4.729005e-01
3.750000e-01
2.500000e-01
1.250000e-01
0.000000e+00
1.000000e+00
8.750000e-01
7.500000e-01
6.250000e-01
5.000030e-01
3.750000e-01
2.500000e-01
1.250000e-01
0.000000e+00
1.000000e+00
8.750000e-01
7.500000e-01
6.250000e-01
4.988291e-01
3.750000e-01
2.500000e-01
1.250000e-01
0.000000e+00
1.000000e+00
8.750000e-01
7.500000e-01
6.250000e-01
4.958411e-01
3.750000e-01
2.500000e-01
1.250000e-01
0.000000e+00
1.000000e+00
8.750000e-01
7.500000e-01
6.250000e-01
4.911596e-01
3.750000e-01
2.500000e-01
1.250000e-01
0.000000e+00
1.000000e+00
8.750000e-01
7.500000e-01
6.250000e-01
4.854627e-01
3.750000e-01
2.500000e-01
1.250000e-01
0.000000e+00
1.000000e+00
8.750000e-01
7.500000e-01
6.250000e-01
4.798501e-01
3.750000e-01
2.500000e-01
1.250000e-01
0.000000e+00
1.000000e+00
8.750000e-01
7.500000e-01
6.250000e-01
4.754310e-01
3.750000e-01
2.500000e-01
1.250000e-01
0.000000e+00
1.000000e+00
8.750000e-01
7.500000e-01
6.250000e-01
4.729005e-01
3.750000e-01
2.500000e-01
1.250000e-01
0.000000e+00
1.000000e+00
8.750000e-01
7.500000e-01
6.250000e-01
4.723834e-01
3.750000e-01
2.500000e-01
1.250000e-01
0.000000e+00
        </DataArray>
        <DataArray type="Float32" Name="velocity" NumberOfComponents="3" format="ascii">
-2.073375e-01 -1.458328e-07 3.260634e-01
1.002422e+00 -1.703885e-07 1.096786e+00
1.834085e+00 -1.681190e-07 1.554615e+00
2.284873e+00 -1.774284e-07 1.695304e+00
2.324346e+00 -1.538322e-07 1.510121e+00
2.007667e+00 -1.685072e-07 1.111689e+00
1.453545e+00 -1.820207e-07 6.295093e-01
8.009587e-01 -1.813091e-07 1.395570e-01
1.836933e-01 -2.367547e-07 -2.888801e-01
-3.430146e-01 6.943270e-01 7.414891e-01
8.229849e-01 5.294702e-01 1.370950e+00
1.678978e+00 3.449011e-01 1.713843e+00
2.176687e+00 9.246882e-02 1.703296e+00
2.295903e+00 -2.027913e-01 1.356475e+00
2.044981e+00 -4.271235e-01 8.369221e-01
1.534348e+00 -5.415215e-01 2.967144e-01
9.182671e-01 -5.696946e-01 -1.933087e-01
2.778808e-01 -4.973960e-01 -5.883230e-01
-2.931334e-01 1.243323e+00 1.160760e+00
7.376255e-01 9.783040e-01 1.635448e+00
1.504137e+00 6.352642e-01 1.810990e+00
1.944049e+00 1.815417e-01 1.622826e+00
2.044835e+00 -3.600122e-01 1.091536e+00
1.824914e+00 -7.815068e-01 4.529666e-01
1.369880e+00 -9.889435e-01 -1.179265e-01
8.161823e-01 -1.032418e+00 -5.799805e-01
2.426253e-01 -9.465095e-01 -9.236813e-01
-8.972023e-02 1.532272e+00 1.480932e+00
7.182835e-01 1.234014e+00 1.790920e+00
1.300411e+00 8.139887e-01 1.797697e+00
1.603787e+00 2.495022e-01 1.449639e+00
1.621639e+00 -4.227474e-01 7.804092e-01
1.392325e+00 -9.577197e-01 6.245289e-02
9.986713e-01 -1.224537e+00 -5.071935e-01
5.406581e-01 -1.290933e+00 -9.222306e-01
8.139734e-02 -1.211452e+00 -1.196575e+00
1.681823e-01 1.502432e+00 1.597325e+00
7.064118e-01 1.237672e+00 1.758648e+00
1.063582e+00 8.371703e-01 1.640174e+00
1.195711e+00 2.897411e-01 1.204080e+00
1.105262e+00 -3.729681e-01 4.857928e-01
8.596621e-01 -9.092046e-01 -2.308822e-01
5.346048e-01 -1.184902e+00 -7.546059e-01
1.937340e-01 -1.264726e+00 -1.099360e+00
-1.297486e-01 -1.206942e+00 -1.299716e+00
3.471358e-01 1.182735e+00 1.446087e+00
6.351245e-01 1.005047e+00 1.507825e+00
7.883270e-01 7.069325e-01 1.337129e+00
7.788343e-01 2.835766e-01 9.110164e-01
6.156116e-01 -2.389733e-01 2.639063e-01
3.777269e-01 -6.729584e-01 -3.576871e-01
1.349057e-01 -9.061608e-01 -7.865227e-01
-8.825898e-02 -9.863193e-01 -1.048829e+00
-2.801519e-01 -9.615337e-01 -1.184331e+00
3.492084e-01 7.036391e-01 1.059141e+00
4.570772e-01 6.229573e-01 1.072796e+00
4.814511e-01 4.610144e-01 9.229543e-01
4.091519e-01 2.173543e-01 5.992170e-01
2.498819e-01 -9.355188e-02 1.269421e-01
7.086504e-02 -3.604606e-01 -3.172148e-01
-7.959380e-02 -5.125967e-01 -6.146904e-01
-1.971871e-01 -5.753543e-01 -7.881117e-01
-2.853505e-01 -5.759795e-01 -8.704206e-01
1.583637e-01 2.170405e-01 5.370730e-01
1.743660e-01 2.027044e-01 5.377366e-01
1.621447e-01 1.596966e-01 4.566002e-01
1.177523e-01 8.807661e-02 2.897506e-01
4.687898e-02 -7.519476e-03 5.142387e-02
-2.344740e-02 -9.344171e-02 -1.714054e-01
-7.444124e-02 -1.466320e-01 -3.190475e-01
-1.090929e-01 -1.721635e-01 -4.034419e-01
-1.302962e-01 -1.785845e-01 -4.420705e-01
-1.692046e-01 -1.688050e-01 -3.991694e-03
-1.694328e-01 -1.692540e-01 -3.990069e-03
-1.435997e-01 -1.436413e-01 -3.355405e-03
-9.091613e-02 -9.116149e-02 -2.071376e-03
-1.568972e-02 -1.611270e-02 -2.408734e-04
5.450805e-02 5.398994e-02 1.470531e-03
1.008406e-01 1.003265e-01 2.606083e-03
1.272456e-01 1.267988e-01 3.259869e-03
1.394712e-01 1.391280e-01 3.569275e-03
-3.430146e-01 -6.943273e-01 7.414892e-01
8.229849e-01 -5.294705e-01 1.370950e+00
1.678978e+00 -3.449014e-01 1.713843e+00
2.176687e+00 -9.246914e-02 1.703296e+00
2.295903e+00 2.027910e-01 1.356475e+00
2.044981e+00 4.271232e-01 8.369222e-01
1.534348e+00 5.415211e-01 2.967144e-01
9.182671e-01 5.696943e-01 -1.933087e-01
2.778808e-01 4.973956e-01 -5.883230e-01
-5.605545e-01 -1.763892e-07 1.157665e+00
5.889461e-01 -1.942552e-07 1.757118e+00
1.486749e+00 -1.163853e-07 1.960844e+00
2.078410e+00 -8.696681e-08 1.780890e+00
2.313184e+00 -1.304093e-07 1.249336e+00
2.152121e+00 -1.566653e-07 5.487739e-01
1.698150e+00 -1.640939e-07 -9.246450e-02
1.113767e+00 -1.636917e-07 -6.215604e-01
5.182349e-01 -1.938218e-07 -1.070266e+00
-6.028733e-01 5.918726e-01 1.658464e+00
4.464381e-01 4.750413e-01 2.110732e+00
1.277366e+00 3.032342e-01 2.148221e+00
1.845375e+00 8.038212e-02 1.771500e+00
2.100176e+00 -1.887497e-01 1.014506e+00
1.995042e+00 -3.997087e-01 1.536990e-01
1.605333e+00 -4.968321e-01 -5.495446e-01
1.084068e+00 -5.181039e-01 -1.080111e+00
5.392609e-01 -4.949503e-01 -1.474009e+00
-4.379445e-01 9.711955e-01 2.058764e+00
3.917322e-01 7.741935e-01 2.344224e+00
1.042877e+00 4.985323e-01 2.212251e+00
1.480592e+00 1.324993e-01 1.654570e+00
1.666652e+00 -3.044745e-01 7.238332e-01
1.565144e+00 -6.441090e-01 -2.450088e-01
1.245979e+00 -8.053055e-01 -9.710057e-01
8.277518e-01 -8.386543e-01 -1.464567e+00
3.926273e-01 -7.904801e-01 -1.789106e+00
-1.673227e-01 1.011366e+00 2.221077e+00
3.734133e-01 8.153148e-01 2.357632e+00
7.797800e-01 5.337801e-01 2.104588e+00
1.029841e+00 1.554894e-01 1.451331e+00
1.097192e+00 -2.989342e-01 4.516672e-01
9.819154e-01 -6.549694e-01 -5.299077e-01
7.413592e-01 -8.267269e-01 -1.219604e+00
4.496907e-01 -8.675060e-01 -1.651933e+00
1.574476e-01 -8.211679e-01 -1.896514e+00
4.682194e-02 7.281495e-01 2.068885e+00
3.071990e-01 5.989479e-01 2.109663e+00
4.852480e-01 4.048903e-01 1.820181e+00
5.665598e-01 1.366685e-01 1.185614e+00
5.421763e-01 -1.898593e-01 2.591933e-01
4.331579e-01 -4.496797e-01 -6.217234e-01
2.823236e-01 -5.803558e-01 -1.217130e+00
1.220306e-01 -6.168287e-01 -1.568605e+00
-2.845237e-02 -5.900636e-01 -1.743569e+00
7.189257e-02 2.536439e-01 1.641441e+00
1.326436e-01 2.159199e-01 1.645662e+00
1.643437e-01 1.526924e-01 1.397346e+00
1.648551e-01 6.173635e-02 8.864834e-01
1.314797e-01 -5.208450e-02 1.545680e-01
8.072730e-02 -1.452404e-01 -5.314744e-01
2.915441e-02 -1.942704e-01 -9.871964e-01
-1.751728e-02 -2.114018e-01 -1.249107e+00
-5.690057e-02 -2.064778e-01 -1.370029e+00
-1.192004e-01 -2.362729e-01 1.066838e+00
-1.543591e-01 -2.095856e-01 1.069010e+00
-1.614870e-01 -1.553394e-01 9.075908e-01
-1.370332e-01 -7.296651e-02 5.757957e-01
-8.318582e-02 3.186299e-02 1.026154e-01
-2.202609e-02 1.210988e-01 -3.408195e-01
2.888344e-02 1.717019e-01 -6.356721e-01
6.820800e-02 1.927507e-01 -8.048869e-01
9.702115e-02 1.932930e-01 -8.828619e-01
-4.617902e-01 -6.185123e-01 4.827583e-01
-5.054999e-01 -5.804427e-01 4.888514e-01
-4.665700e-01 -4.593251e-01 4.206112e-01
-3.371421e-01 -2.546052e-01 2.730947e-01
-1.305832e-01 1.907390e-02 5.889568e-02
7.469790e-02 2.638128e-01 -1.429670e-01
2.230742e-01 4.144867e-01 -2.781962e-01
3.213320e-01 4.884749e-01 -3.572372e-01
3.806346e-01 5.092638e-01 -3.947490e-01
-2.931334e-01 -1.243323e+00 1.160760e+00
7.376255e-01 -9.783043e-01 1.635448e+00
1.504138e+00 -6.352646e-01 1.810990e+00
1.944049e+00 -1.815419e-01 1.622826e+00
2.044835e+00 3.600119e-01 1.091536e+00
1.824914e+00 7.815065e-01 4.529667e-01
1.369880e+00 9.889432e-01 -1.179264e-01
8.161824e-01 1.032418e+00 -5.799803e-01
2.426254e-01 9.465092e-01 -9.236812e-01
-6.028733e-01 -5.918729e-01 1.658464e+00
4.464379e-01 -4.750416e-01 2.110732e+00
1.277366e+00 -3.032344e-01 2.148221e+00
1.845375e+00 -8.038233e-02 1.771500e+00
2.100177e+00 1.887495e-01 1.014506e+00
1.995042e+00 3.997085e-01 1.536990e-01
1.605333e+00 4.968319e-01 -5.495446e-01
1.084068e+00 5.181037e-01 -1.080111e+00
5.392609e-01 4.949500e-01 -1.474009e+00
-7.035857e-01 -1.580589e-07 2.217267e+00
2.588201e-01 -8.867271e-08 2.555968e+00
1.035237e+00 -8.299674e-08 2.433002e+00
1.596111e+00 -7.951066e-08 1.841731e+00
1.893804e+00 -6.196451e-08 8.188002e-01
1.868373e+00 -7.462197e-08 -2.519764e-01
1.557230e+00 -8.467975e-08 -1.057066e+00
1.108974e+00 -5.839588e-08 -1.620453e+00
6.297825e-01 -6.307788e-08 -1.984685e+00
-5.668826e-01 4.094497e-01 2.674184e+00
1.714829e-01 3.185888e-01 2.864382e+00
7.678844e-01 2.019284e-01 2.580738e+00
1.202877e+00 4.461687e-02 1.798942e+00
1.443825e+00 -1.372886e-01 5.742849e-01
1.433322e+00 -2.779417e-01 -6.378377e-01
1.203639e+00 -3.454828e-01 -1.495883e+00
8.663974e-01 -3.571493e-01 -2.042753e+00
5.017843e-01 -3.315351e-01 -2.351797e+00
-2.834444e-01 4.884477e-01 2.847122e+00
1.406217e-01 3.827006e-01 2.917874e+00
4.770337e-01 2.433706e-01 2.530426e+00
7.146624e-01 5.825839e-02 1.659569e+00
8.327290e-01 -1.593021e-01 3.633764e-01
8.094468e-01 -3.275071e-01 -8.752102e-01
6.653179e-01 -4.071638e-01 -1.713918e+00
4.643764e-01 -4.213589e-01 -2.216492e+00
2.525778e-01 -3.923274e-01 -2.466006e+00
-4.577020e-02 2.204271e-01 2.657926e+00
7.251602e-02 1.755091e-01 2.667251e+00
1.627805e-01 1.153730e-01 2.271649e+00
2.188460e-01 3.214803e-02 1.443390e+00
2.369269e-01 -6.618681e-02 2.416748e-01
2.159357e-01 -1.434655e-01 -8.875557e-01
1.660806e-01 -1.814194e-01 -1.637920e+00
1.041226e-01 -1.893831e-01 -2.070894e+00
4.263270e-02 -1.780123e-01 -2.269080e+00
-1.558003e-02 -2.576785e-01 2.164628e+00
-1.066411e-01 -2.109057e-01 2.171865e+00
-1.685167e-01 -1.413102e-01 1.847595e+00
-1.962288e-01 -4.618951e-02 1.175028e+00
-1.878522e-01 6.783039e-02 2.024488e-01
-1.511742e-01 1.587188e-01 -7.106923e-01
-9.933029e-02 2.045502e-01 -1.316409e+00
-4.384917e-02 2.169422e-01 -1.666103e+00
8.282589e-03 2.071263e-01 -1.826290e+00
-2.277522e-01 -7.549544e-01 1.528978e+00
-4.041366e-01 -6.429659e-01 1.556256e+00
-4.947539e-01 -4.537766e-01 1.341773e+00
-4.883962e-01 -1.824982e-01 8.748415e-01
-3.834723e-01 1.536268e-01 1.934529e-01
-2.292964e-01 4.298339e-01 -4.526943e-01
-7.443424e-02 5.769118e-01 -8.887956e-01
6.467172e-02 6.282009e-01 -1.145590e+00
1.811017e-01 6.139648e-01 -1.271410e+00
-6.054555e-01 -1.137361e+00 9.063277e-01
-7.687151e-01 -1.013853e+00 9.435493e-01
-7.929923e-01 -7.560545e-01 8.356938e-01
-6.600398e-01 -3.627415e-01 5.694728e-01
-3.854797e-01 1.405213e-01 1.652904e-01
-8.149290e-02 5.731638e-01 -2.221311e-01
1.685422e-01 8.216069e-01 -4.889580e-01
3.590878e-01 9.265696e-01 -6.516772e-01
4.982404e-01 9.324231e-01 -7.354381e-01
-8.972027e-02 -1.532272e+00 1.480932e+00
7.182835e-01 -1.234014e+00 1.790920e+00
1.300411e+00 -8.139888e-01 1.797697e+00
1.603787e+00 -2.495025e-01 1.449639e+00
1.621639e+00 4.227472e-01 7.804093e-01
1.392325e+00 9.577195e-01 6.245295e-02
9.986714e-01 1.224537e+00 -5.071934e-01
5.406581e-01 1.290932e+00 -9.222305e-01
8.139734e-02 1.211452e+00 -1.196574e+00
-4.379446e-01 -9.711956e-01 2.058764e+00
3.917322e-01 -7.741937e-01 2.344224e+00
1.042877e+00 -4.985325e-01 2.212252e+00
1.480591e+00 -1.324995e-01 1.654570e+00
1.666652e+00 3.044743e-01 7.238332e-01
1.565143e+00 6.441088e-01 -2.450089e-01
1.245979e+00 8.053055e-01 -9.710057e-01
8.277519e-01 8.386542e-01 -1.464567e+00
3.926273e-01 7.904800e-01 -1.789106e+00
-5.668826e-01 -4.094498e-01 2.674185e+00
1.714829e-01 -3.185890e-01 2.864382e+00
7.678844e-01 -2.019285e-01 2.580738e+00
1.202877e+00 -4.461701e-02 1.798942e+00
1.443824e+00 1.372885e-01 5.742849e-01
1.433322e+00 2.779417e-01 -6.378376e-01
1.203639e+00 3.454828e-01 -1.495883e+00
8.663973e-01 3.571492e-01 -2.042753e+00
5.017843e-01 3.315350e-01 -2.351797e+00
-4.347649e-01 -6.405554e-08 3.145629e+00
6.489372e-02 -3.890701e-08 3.228218e+00
4.708493e-01 -3.537471e-08 2.808059e+00
7.769436e-01 -3.843070e-08 1.841894e+00
9.626826e-01 -1.892958e-08 4.026296e-01
9.754799e-01 -5.044601e-09 -9.772989e-01
8.367372e-01 -4.974448e-09 -1.917307e+00
6.209116e-01 -4.229646e-09 -2.478906e+00
3.813388e-01 6.306089e-10 -2.759078e+00
-1.391016e-01 8.967470e-02 3.292657e+00
2.614726e-02 6.969782e-02 3.305871e+00
1.587111e-01 4.273126e-02 2.820127e+00
2.582143e-01 9.629300e-03 1.790284e+00
3.166095e-01 -3.145811e-02 2.875523e-01
3.186935e-01 -6.229820e-02 -1.127301e+00
2.714692e-01 -7.603124e-02 -2.069588e+00
1.998274e-01 -7.873461e-02 -2.613412e+00
1.214468e-01 -7.306045e-02 -2.861424e+00
1.075842e-01 -1.783847e-01 3.037344e+00
-4.498048e-02 -1.392514e-01 3.048337e+00
-1.665074e-01 -8.720478e-02 2.600954e+00
-2.529390e-01 -1.975017e-02 1.652184e+00
-2.985233e-01 5.880950e-02 2.719291e-01
-2.927001e-01 1.189636e-01 -1.027079e+00
-2.432024e-01 1.468849e-01 -1.892140e+00
-1.724150e-01 1.515433e-01 -2.390806e+00
-9.578112e-02 1.406639e-01 -2.617894e+00
1.212717e-01 -6.746031e-01 2.473274e+00
-2.320343e-01 -5.384798e-01 2.530084e+00
-4.977490e-01 -3.505842e-01 2.194746e+00
-6.601355e-01 -9.752576e-02 1.440798e+00
-7.081370e-01 2.012736e-01 3.222256e-01
-6.406021e-01 4.352197e-01 -7.445369e-01
-4.890481e-01 5.491625e-01 -1.467454e+00
-3.028381e-01 5.739250e-01 -1.898136e+00
-1.159595e-01 5.399854e-01 -2.109631e+00
-1.331135e-01 -1.196461e+00 1.789863e+00
-5.431291e-01 -9.883083e-01 1.894638e+00
-8.141676e-01 -6.704297e-01 1.692692e+00
-9.219092e-01 -2.309229e-01 1.168967e+00
-8.559999e-01 3.028918e-01 3.682423e-01
-6.609067e-01 7.301084e-01 -4.158560e-01
-4.077696e-01 9.471549e-01 -9.660505e-01
-1.459574e-01 1.010054e+00 -1.309195e+00
9.546328e-02 9.689848e-01 -1.500257e+00
-5.646921e-01 -1.602704e+00 1.155738e+00
-9.271556e-01 -1.373574e+00 1.271744e+00
-1.098815e+00 -9.762304e-01 1.186731e+00
-1.046697e+00 -4.047857e-01 8.727037e-01
-7.846750e-01 3.035404e-01 3.556464e-01
-4.309815e-01 8.943042e-01 -1.608167e-01
-8.848308e-02 1.215657e+00 -5.362393e-01
2.131697e-01 1.331022e+00 -7.836321e-01
4.646513e-01 1.305359e+00 -9.275579e-01
1.681822e-01 -1.502432e+00 1.597325e+00
7.064118e-01 -1.237672e+00 1.758648e+00
1.063582e+00 -8.371703e-01 1.640174e+00
1.195711e+00 -2.897412e-01 1.204080e+00
1.105262e+00 3.729680e-01 4.857929e-01
8.596620e-01 9.092045e-01 -2.308820e-01
5.346048e-01 1.184901e+00 -7.546056e-01
1.937339e-01 1.264726e+00 -1.099360e+00
-1.297485e-01 1.206942e+00 -1.299716e+00
-1.673227e-01 -1.011366e+00 2.221078e+00
3.734132e-01 -8.153148e-01 2.357632e+00
7.797800e-01 -5.337801e-01 2.104588e+00
1.029841e+00 -1.554893e-01 1.451331e+00
1.097192e+00 2.989342e-01 4.516674e-01
9.819155e-01 6.549693e-01 -5.299075e-01
7.413591e-01 8.267267e-01 -1.219603e+00
4.496907e-01 8.675059e-01 -1.651933e+00
1.574475e-01 8.211678e-01 -1.896514e+00
-2.834443e-01 -4.884478e-01 2.847122e+00
1.406216e-01 -3.827007e-01 2.917874e+00
4.770337e-01 -2.433706e-01 2.530426e+00
7.146623e-01 -5.825843e-02 1.659569e+00
8.327290e-01 1.593021e-01 3.633765e-01
8.094467e-01 3.275070e-01 -8.752102e-01
6.653179e-01 4.071637e-01 -1.713918e+00
4.643764e-01 4.213588e-01 -2.216491e+00
2.525777e-01 3.923274e-01 -2.466006e+00
-1.391016e-01 -8.967467e-02 3.292657e+00
2.614726e-02 -6.969777e-02 3.305871e+00
1.587110e-01 -4.273129e-02 2.820127e+00
2.582142e-01 -9.629274e-03 1.790284e+00
3.166094e-01 3.145812e-02 2.875524e-01
3.186934e-01 6.229820e-02 -1.127301e+00
2.714692e-01 7.603126e-02 -2.069588e+00
1.998274e-01 7.873462e-02 -2.613412e+00
1.214468e-01 7.306046e-02 -2.861424e+00
1.658899e-01 7.096255e-09 3.376767e+00
-1.511569e-02 1.850898e-09 3.391295e+00
-1.639455e-01 4.170576e-08 2.893522e+00
-2.776946e-01 -5.509235e-09 1.838412e+00
-3.487680e-01 5.360960e-08 2.946473e-01
-3.577287e-01 4.931287e-08 -1.159058e+00
-3.097096e-01 4.903950e-08 -2.125995e+00
-2.321016e-01 9.164518e-08 -2.685900e+00
-1.444344e-01 1.014885e-07 -2.940029e+00
4.088371e-01 -2.789872e-01 3.053961e+00
-8.715408e-02 -2.162416e-01 3.133734e+00
-4.876341e-01 -1.334546e-01 2.728445e+00
-7.851284e-01 -2.848525e-02 1.795804e+00
-9.584616e-01 9.579805e-02 4.005844e-01
-9.629787e-01 1.899219e-01 -9.352608e-01
-8.186257e-01 2.326310e-01 -1.844869e+00
-5.994996e-01 2.395591e-01 -2.388351e+00
-3.580757e-01 2.216271e-01 -2.656433e+00
3.983009e-01 -8.099886e-01 2.442560e+00
-2.772895e-01 -6.372835e-01 2.620485e+00
-8.060337e-01 -4.062481e-01 2.366995e+00
-1.167361e+00 -1.003305e-01 1.659996e+00
-1.332348e+00 2.588588e-01 5.461485e-01
-1.273172e+00 5.368955e-01 -5.563666e-01
-1.029392e+00 6.691208e-01 -1.336841e+00
-7.009809e-01 6.938937e-01 -1.836119e+00
-3.578453e-01 6.476151e-01 -2.116468e+00
1.033508e-01 -1.384599e+00 1.753338e+00
-5.944926e-01 -1.122778e+00 2.002578e+00
-1.102371e+00 -7.407448e-01 1.899523e+00
-1.387667e+00 -2.251194e-01 1.433732e+00
-1.422604e+00 3.940227e-01 6.450842e-01
-1.227436e+00 8.821979e-01 -1.758558e-01
-8.863908e-01 1.121397e+00 -7.927341e-01
-4.920480e-01 1.181749e+00 -1.214612e+00
-1.066089e-01 1.122663e+00 -1.489120e+00
-3.771987e-01 -1.859954e+00 1.154208e+00
-9.911028e-01 -1.547793e+00 1.406348e+00
-1.367479e+00 -1.060709e+00 1.422992e+00
-1.458936e+00 -3.862528e-01 1.160282e+00
-1.272691e+00 4.341691e-01 6.408690e-01
-9.132357e-01 1.102160e+00 8.246658e-02
-4.895268e-01 1.451092e+00 -3.639287e-01
-7.043672e-02 1.559080e+00 -6.904219e-01
3.131568e-01 1.498358e+00 -9.085185e-01
3.471357e-01 -1.182735e+00 1.446087e+00
6.351244e-01 -1.005047e+00 1.507825e+00
7.883270e-01 -7.069325e-01 1.337129e+00
7.788342e-01 -2.835766e-01 9.110165e-01
6.156115e-01 2.389734e-01 2.639066e-01
3.777268e-01 6.729584e-01 -3.576869e-01
1.349056e-01 9.061609e-01 -7.865225e-01
-8.825902e-02 9.863193e-01 -1.048828e+00
-2.801520e-01 9.615338e-01 -1.184331e+00
4.682186e-02 -7.281494e-01 2.068885e+00
3.071990e-01 -5.989477e-01 2.109664e+00
4.852481e-01 -4.048903e-01 1.820181e+00
5.665597e-01 -1.366685e-01 1.185614e+00
5.421762e-01 1.898593e-01 2.591935e-01
4.331578e-01 4.496798e-01 -6.217231e-01
2.823236e-01 5.803558e-01 -1.217130e+00
1.220306e-01 6.168287e-01 -1.568605e+00
-2.845240e-02 5.900635e-01 -1.743569e+00
-4.577024e-02 -2.204271e-01 2.657927e+00
7.251602e-02 -1.755091e-01 2.667251e+00
1.627804e-01 -1.153730e-01 2.271649e+00
2.188459e-01 -3.214802e-02 1.443390e+00
2.369268e-01 6.618685e-02 2.416750e-01
2.159356e-01 1.434655e-01 -8.875555e-01
1.660805e-01 1.814196e-01 -1.637920e+00
1.041225e-01 1.893832e-01 -2.070894e+00
4.263266e-02 1.780123e-01 -2.269080e+00
1.075842e-01 1.783848e-01 3.037344e+00
-4.498056e-02 1.392515e-01 3.048337e+00
-1.665075e-01 8.720484e-02 2.600954e+00
-2.529392e-01 1.975028e-02 1.652184e+00
-2.985234e-01 -5.880940e-02 2.719293e-01
-2.927002e-01 -1.189634e-01 -1.027079e+00
-2.432025e-01 -1.468848e-01 -1.892139e+00
-1.724151e-01 -1.515431e-01 -2.390806e+00
-9.578116e-02 -1.406637e-01 -2.617894e+00
4.088371e-01 2.789873e-01 3.053961e+00
-8.715421e-02 2.162416e-01 3.133735e+00
-4.876342e-01 1.334547e-01 2.728445e+00
-7.851284e-01 2.848541e-02 1.795805e+00
-9.584616e-01 -9.579788e-02 4.005845e-01
-9.629787e-01 -1.899217e-01 -9.352606e-01
-8.186258e-01 -2.326307e-01 -1.844869e+00
-5.994996e-01 -2.395589e-01 -2.388351e+00
-3.580757e-01 -2.216269e-01 -2.656433e+00
6.446311e-01 1.458826e-08 2.686294e+00
-1.533088e-01 4.145301e-08 2.895562e+00
-7.967904e-01 1.019041e-07 2.629800e+00
-1.271486e+00 1.098652e-07 1.850662e+00
-1.545620e+00 1.403534e-07 6.186610e-01
-1.546593e+00 1.403846e-07 -6.085403e-01
-1.310728e+00 1.362340e-07 -1.484838e+00
-9.562813e-01 1.930652e-07 -2.044982e+00
-5.670200e-01 2.102126e-07 -2.362874e+00
6.310903e-01 -5.633549e-01 2.077451e+00
-3.293524e-01 -4.412469e-01 2.425059e+00
-1.090374e+00 -2.810851e-01 2.338986e+00
-1.622844e+00 -6.632090e-02 1.799024e+00
-1.887855e+00 1.832901e-01 8.438801e-01
-1.829704e+00 3.766820e-01 -1.669178e-01
-1.501420e+00 4.698611e-01 -9.385634e-01
-1.045481e+00 4.871881e-01 -1.479962e+00
-5.621429e-01 4.538638e-01 -1.833800e+00
3.336150e-01 -1.210708e+00 1.430254e+00
-6.277616e-01 -9.727749e-01 1.868226e+00
-1.356526e+00 -6.328772e-01 1.938751e+00
-1.807332e+00 -1.790711e-01 1.633745e+00
-1.941875e+00 3.632550e-01 9.868028e-01
-1.751745e+00 7.878997e-01 2.338067e-01
-1.333818e+00 9.929142e-01 -3.947804e-01
-8.209776e-01 1.039683e+00 -8.751042e-01
-3.044390e-01 9.844272e-01 -1.239926e+00
-1.510893e-01 -1.793042e+00 9.062515e-01
-1.013569e+00 -1.460882e+00 1.338385e+00
-1.594009e+00 -9.786146e-01 1.522037e+00
-1.838457e+00 -3.218081e-01 1.399717e+00
-1.745647e+00 4.650784e-01 9.890296e-01
-1.394773e+00 1.095840e+00 4.749856e-01
-9.038663e-01 1.416631e+00 3.521152e-03
-3.747648e-01 1.504317e+00 -3.901266e-01
1.352586e-01 1.423027e+00 -6.900827e-01
3.492083e-01 -7.036390e-01 1.059141e+00
4.570771e-01 -6.229573e-01 1.072796e+00
4.814510e-01 -4.610143e-01 9.229544e-01
4.091518e-01 -2.173543e-01 5.992172e-01
2.498818e-01 9.355195e-02 1.269423e-01
7.086495e-02 3.604606e-01 -3.172146e-01
-7.959389e-02 5.125967e-01 -6.146903e-01
-1.971871e-01 5.753543e-01 -7.881115e-01
-2.853506e-01 5.759796e-01 -8.704203e-01
7.189253e-02 -2.536438e-01 1.641441e+00
1.326435e-01 -2.159198e-01 1.645662e+00
1.643437e-01 -1.526923e-01 1.397346e+00
1.648550e-01 -6.173626e-02 8.864835e-01