<?xml version="1.0"?>
<VTKFile type="StructuredGrid" version="0.1">
  <StructuredGrid WholeExtent="16 32 0 16 0 16">
    <Piece Extent="16 32 0 16 0 16">
      <PointData Scalars="temperature" Vectors="velocity">
        <DataArray type="Float32" Name="temperature" format="ascii">
5.009685e-01
4.686961e-01
4.371634e-01
4.059186e-01
3.746737e-01
3.434287e-01
3.121835e-01
2.809383e-01
2.496929e-01
2.184474e-01
1.872018e-01
1.559561e-01
1.247103e-01
9.346436e-02
6.221831e-02
3.101167e-02
0.000000e+00
5.009711e-01
4.686985e-01
4.371658e-01
4.059211e-01
3.746762e-01
3.434313e-01
3.121861e-01
2.809409e-01
2.496956e-01
2.184501e-01
1.872045e-01
1.559588e-01
1.247130e-01
9.346701e-02
6.222095e-02
3.101418e-02
0.000000e+00
5.009680e-01
4.686957e-01
4.371634e-01
4.059190e-01
3.746744e-01
3.434296e-01
3.121847e-01
2.809397e-01
2.496945e-01
2.184491e-01
1.872037e-01
1.559581e-01
1.247123e-01
9.346648e-02
6.222052e-02
3.101379e-02
0.000000e+00
5.009643e-01
4.686925e-01
4.371607e-01
4.059166e-01
3.746724e-01
3.434279e-01
3.121832e-01
2.809384e-01
2.496934e-01
2.184483e-01
1.872029e-01
1.559575e-01
1.247119e-01
9.346616e-02
6.222031e-02
3.101369e-02
0.000000e+00
5.009611e-01
4.686897e-01
4.371583e-01
4.059145e-01
3.746706e-01
3.434264e-01
3.121819e-01
2.809373e-01
2.496925e-01
2.184475e-01
1.872023e-01
1.559570e-01
1.247115e-01
9.346587e-02
6.222012e-02
3.101360e-02
0.000000e+00
5.009594e-01
4.686881e-01
4.371570e-01
4.059134e-01
3.746696e-01
3.434255e-01
3.121812e-01
2.809367e-01
2.496920e-01
2.184471e-01
1.872020e-01
1.559567e-01
1.247113e-01
9.346572e-02
6.222002e-02
3.101355e-02
0.000000e+00
5.009597e-01
4.686884e-01
4.371572e-01
4.059136e-01
3.746698e-01
3.434257e-01
3.121814e-01
2.809368e-01
2.496921e-01
2.184471e-01
1.872020e-01
1.559567e-01
1.247113e-01
9.346574e-02
6.222004e-02
3.101356e-02
0.000000e+00
5.009620e-01
4.686904e-01
4.371589e-01
4.059151e-01
3.746710e-01
3.434268e-01
3.121823e-01
2.809376e-01
2.496927e-01
2.184477e-01
1.872025e-01
1.559571e-01
1.247116e-01
9.346594e-02
6.222017e-02
3.101362e-02
0.000000e+00
5.009654e-01
4.686934e-01
4.371615e-01
4.059173e-01
3.746729e-01
3.434284e-01
3.121837e-01
2.809388e-01
2.496937e-01
2.184485e-01
1.872031e-01
1.559576e-01
1.247120e-01
9.346625e-02
6.222036e-02
3.101371e-02
0.000000e+00
5.009689e-01
4.686965e-01
4.371641e-01
4.059195e-01
3.746749e-01
3.434300e-01
3.121851e-01
2.809400e-01
2.496947e-01
2.184493e-01
1.872038e-01
1.559582e-01
1.247124e-01
9.346656e-02
6.222056e-02
3.101379e-02
0.000000e+00
5.009712e-01
4.686985e-01
4.371658e-01
4.059211e-01
3.746762e-01
3.434312e-01
3.121860e-01
2.809408e-01
2.496954e-01
2.184499e-01
1.872043e-01
1.559586e-01
1.247127e-01
9.346676e-02
6.222069e-02
3.101385e-02
0.000000e+00
5.009717e-01
4.686988e-01
4.371662e-01
4.059214e-01
3.746764e-01
3.434314e-01
3.121862e-01
2.809409e-01
2.496955e-01
2.184500e-01
1.872044e-01
1.559586e-01
1.247128e-01
9.346680e-02
6.222071e-02
3.101385e-02
0.000000e+00
5.009702e-01
4.686974e-01
4.371650e-01
4.059204e-01
3.746756e-01
3.434307e-01
3.121856e-01
2.809404e-01
2.496951e-01
2.184497e-01
1.872041e-01
1.559584e-01
1.247126e-01
9.346666e-02
6.222062e-02
3.101379e-02
0.000000e+00
5.009672e-01
4.686946e-01
4.371628e-01
4.059185e-01
3.746740e-01
3.434293e-01
3.121845e-01
2.809394e-01
2.496943e-01
2.184490e-01
1.872035e-01
1.559579e-01
1.247122e-01
9.346639e-02
6.222044e-02
3.101369e-02
0.000000e+00
5.009638e-01
4.686916e-01
4.371604e-01
4.059164e-01
3.746722e-01
3.434277e-01
3.121831e-01
2.809383e-01
2.496933e-01
2.184482e-01
1.872029e-01
1.559574e-01
1.247118e-01
9.346609e-02
6.222023e-02
3.101357e-02
0.000000e+00
5.009617e-01
4.686896e-01
4.371589e-01
4.059152e-01
3.746712e-01
3.434270e-01
3.121825e-01
2.809379e-01
2.496930e-01
2.184480e-01
1.872028e-01
1.559574e-01
1.247119e-01
9.346628e-02
6.222050e-02
3.101397e-02
0.000000e+00
5.009550e-01
4.686834e-01
4.371531e-01
4.059096e-01
3.746658e-01
3.434217e-01
3.121774e-01
2.809329e-01
2.496882e-01
2.184432e-01
1.871981e-01
1.559529e-01
1.247075e-01
9.346189e-02
6.221620e-02
3.100995e-02
0.000000e+00
5.009680e-01
4.686957e-01
4.371630e-01
4.059183e-01
3.746734e-01
3.434285e-01
3.121834e-01
2.809381e-01
2.496928e-01
2.184473e-01
1.872018e-01
1.559561e-01
1.247102e-01
9.346432e-02
6.221829e-02
3.101165e-02
0.000000e+00
5.009707e-01
4.686982e-01
4.371655e-01
4.059208e-01
3.746760e-01
3.434311e-01
3.121860e-01
2.809408e-01
2.496955e-01
2.184500e-01
1.872044e-01
1.559587e-01
1.247129e-01
9.346698e-02
6.222093e-02
3.101417e-02
0.000000e+00
5.009678e-01
4.686956e-01
4.371632e-01
4.059188e-01
3.746743e-01
3.434295e-01
3.121846e-01
2.809396e-01
2.496944e-01
2.184491e-01
1.872036e-01
1.559580e-01
1.247123e-01
9.346647e-02
6.222051e-02
3.101378e-02
0.000000e+00
5.009644e-01
4.686926e-01
4.371607e-01
4.059167e-01
3.746724e-01
3.434279e-01
3.121833e-01
2.809385e-01
2.496934e-01
2.184483e-01
1.872030e-01
1.559575e-01
1.247119e-01
9.346617e-02
6.222032e-02
3.101369e-02
0.000000e+00
5.009614e-01
4.686900e-01
4.371585e-01
4.059148e-01
3.746708e-01
3.434265e-01
3.121821e-01
2.809374e-01
2.496926e-01
2.184476e-01
1.872024e-01
1.559570e-01
1.247115e-01
9.346591e-02
6.222014e-02
3.101361e-02
0.000000e+00
5.009598e-01
4.686885e-01
4.371573e-01
4.059137e-01
3.746699e-01
3.434258e-01
3.121814e-01
2.809369e-01
2.496921e-01
2.184472e-01
1.872021e-01
1.559568e-01
1.247113e-01
9.346576e-02
6.222005e-02
3.101357e-02
0.000000e+00
5.009601e-01
4.686888e-01
4.371575e-01
4.059139e-01
3.746700e-01
3.434259e-01
3.121816e-01
2.809370e-01
2.496922e-01
2.184472e-01
1.872021e-01
1.559568e-01
1.247114e-01
9.346579e-02
6.222007e-02
3.101357e-02
0.000000e+00
5.009623e-01
4.686906e-01
4.371591e-01
4.059153e-01
3.746712e-01
3.434269e-01
3.121824e-01
2.809377e-01
2.496928e-01
2.184477e-01
1.872025e-01
1.559571e-01
1.247116e-01
9.346597e-02
6.222018e-02
3.101362e-02
0.000000e+00
5.009654e-01
4.686934e-01
4.371615e-01
4.059173e-01
3.746730e-01
3.434284e-01
3.121837e-01
2.809388e-01
2.496937e-01
2.184485e-01
1.872032e-01
1.559577e-01
1.247120e-01
9.346625e-02
6.222037e-02
3.101371e-02
0.000000e+00
5.009686e-01
4.686962e-01
4.371639e-01
4.059194e-01
3.746747e-01
3.434299e-01
3.121850e-01
2.809399e-01
2.496947e-01
2.184493e-01
1.872038e-01
1.559582e-01
1.247124e-01
9.346654e-02
6.222055e-02
3.101379e-02
0.000000e+00
5.009708e-01
4.686981e-01
4.371655e-01
4.059208e-01
3.746759e-01
3.434310e-01
3.121859e-01
2.809406e-01
2.496953e-01
2.184498e-01
1.872042e-01
1.559585e-01
1.247127e-01
9.346673e-02
6.222067e-02
3.101384e-02
0.000000e+00
5.009712e-01
4.686984e-01
4.371658e-01
4.059211e-01
3.746762e-01
3.434312e-01
3.121860e-01
2.809408e-01
2.496954e-01
2.184499e-01
1.872043e-01
1.559586e-01
1.247127e-01
9.346676e-02
6.222069e-02
3.101383e-02
0.000000e+00
5.009698e-01
4.686970e-01
4.371648e-01
4.059202e-01
3.746754e-01
3.434305e-01
3.121855e-01
2.809403e-01
2.496950e-01
2.184496e-01
1.872040e-01
1.559583e-01
1.247125e-01
9.346663e-02
6.222060e-02
3.101378e-02
0.000000e+00
5.009671e-01
4.686945e-01
4.371627e-01
4.059184e-01
3.746739e-01
3.434293e-01
3.121844e-01
2.809394e-01
2.496942e-01
2.184489e-01
1.872035e-01
1.559579e-01
1.247122e-01
9.346638e-02
6.222043e-02
3.101368e-02
0.000000e+00
5.009640e-01
4.686917e-01
4.371604e-01
4.059165e-01
3.746722e-01
3.434278e-01
3.121832e-01
2.809384e-01
2.496934e-01
2.184482e-01
1.872029e-01
1.559574e-01
1.247118e-01
9.346610e-02
6.222024e-02
3.101357e-02
0.000000e+00
5.009621e-01
4.686899e-01
4.371591e-01
4.059154e-01
3.746714e-01
3.434271e-01
3.121827e-01
2.809380e-01
2.496931e-01
2.184481e-01
1.872029e-01
1.559575e-01
1.247120e-01
9.346630e-02
6.222051e-02
3.101398e-02
0.000000e+00
5.009554e-01
4.686838e-01
4.371534e-01
4.059098e-01
3.746660e-01
3.434219e-01
3.121776e-01
2.809330e-01
2.496883e-01
2.184433e-01
1.871982e-01
1.559529e-01
1.247075e-01
9.346193e-02
6.221622e-02
3.100996e-02
0.000000e+00
5.009667e-01
4.686945e-01
4.371620e-01
4.059174e-01
3.746727e-01
3.434278e-01
3.121828e-01
2.809377e-01
2.496924e-01
2.184470e-01
1.872015e-01
1.559559e-01
1.247101e-01
9.346421e-02
6.221821e-02
3.101162e-02
0.000000e+00
5.009696e-01
4.686972e-01
4.371647e-01
4.059201e-01
3.746754e-01
3.434306e-01
3.121856e-01
2.809404e-01
2.496951e-01
2.184497e-01
1.872042e-01
1.559586e-01
1.247128e-01
9.346688e-02
6.222087e-02
3.101414e-02
0.000000e+00
5.009673e-01
4.686951e-01
4.371629e-01
4.059185e-01
3.746740e-01
3.434293e-01
3.121844e-01
2.809394e-01
2.496943e-01
2.184490e-01
1.872035e-01
1.559580e-01
1.247123e-01
9.346643e-02
6.222048e-02
3.101377e-02
0.000000e+00
5.009647e-01
4.686929e-01
4.371610e-01
4.059169e-01
3.746726e-01
3.434281e-01
3.121834e-01
2.809386e-01
2.496935e-01
2.184484e-01
1.872030e-01
1.559576e-01
1.247119e-01
9.346620e-02
6.222034e-02
3.101370e-02
0.000000e+00
5.009624e-01
4.686909e-01
4.371593e-01
4.059154e-01
3.746713e-01
3.434270e-01
3.121825e-01
2.809378e-01
2.496929e-01
2.184478e-01
1.872026e-01
1.559572e-01
1.247117e-01
9.346600e-02
6.222020e-02
3.101364e-02
0.000000e+00
5.009612e-01
4.686898e-01
4.371583e-01
4.059146e-01
3.746706e-01
3.434264e-01
3.121820e-01
2.809374e-01
2.496925e-01
2.184475e-01
1.872023e-01
1.559570e-01
1.247115e-01
9.346589e-02
6.222013e-02
3.101360e-02
0.000000e+00
5.009614e-01
4.686900e-01
4.371585e-01
4.059148e-01
3.746708e-01
3.434265e-01
3.121821e-01
2.809374e-01
2.496926e-01
2.184476e-01
1.872024e-01
1.559570e-01
1.247115e-01
9.346590e-02
6.222014e-02
3.101361e-02
0.000000e+00
5.009630e-01
4.686914e-01
4.371597e-01
4.059158e-01
3.746716e-01
3.434273e-01
3.121827e-01
2.809380e-01
2.496930e-01
2.184479e-01
1.872027e-01
1.559573e-01
1.247117e-01
9.346604e-02
6.222023e-02
3.101365e-02
0.000000e+00
5.009655e-01
4.686935e-01
4.371615e-01
4.059174e-01
3.746730e-01
3.434284e-01
3.121837e-01
2.809388e-01
2.496937e-01
2.184485e-01
1.872032e-01
1.559577e-01
1.247120e-01
9.346626e-02
6.222037e-02
3.101371e-02
0.000000e+00
5.009679e-01
4.686956e-01
4.371633e-01
4.059189e-01
3.746743e-01
3.434296e-01
3.121847e-01
2.809396e-01
2.496944e-01
2.184491e-01
1.872036e-01
1.559580e-01
1.247123e-01
9.346647e-02
6.222051e-02
3.101377e-02
0.000000e+00
5.009696e-01
4.686970e-01
4.371646e-01
4.059200e-01
3.746753e-01
3.434304e-01
3.121854e-01
2.809402e-01
2.496949e-01
2.184495e-01
1.872040e-01
1.559583e-01
1.247125e-01
9.346662e-02
6.222060e-02
3.101380e-02
0.000000e+00
5.009699e-01
4.686972e-01
4.371648e-01
4.059202e-01
3.746754e-01
3.434305e-01
3.121855e-01
2.809403e-01
2.496950e-01
2.184496e-01
1.872040e-01
1.559584e-01
1.247126e-01
9.346664e-02
6.222061e-02
3.101380e-02
0.000000e+00
5.009688e-01
4.686962e-01
4.371640e-01
4.059195e-01
3.746749e-01
3.434300e-01
3.121851e-01
2.809400e-01
2.496947e-01
2.184493e-01
1.872038e-01
1.559582e-01
1.247124e-01
9.346653e-02
6.222053e-02
3.101375e-02
0.000000e+00
5.009667e-01
4.686942e-01
4.371625e-01
4.059182e-01
3.746737e-01
3.434291e-01
3.121842e-01
2.809393e-01
2.496941e-01
2.184488e-01
1.872034e-01
1.559578e-01
1.247122e-01
9.346634e-02
6.222040e-02
3.101367e-02
0.000000e+00
5.009643e-01
4.686920e-01
4.371607e-01
4.059167e-01
3.746724e-01
3.434279e-01
3.121833e-01
2.809385e-01
2.496934e-01
2.184483e-01
1.872029e-01
1.559575e-01
1.247119e-01
9.346612e-02
6.222025e-02
3.101358e-02
0.000000e+00
5.009630e-01
4.686907e-01
4.371598e-01
4.059160e-01
3.746719e-01
3.434275e-01
3.121830e-01
2.809383e-01
2.496934e-01
2.184483e-01
1.872030e-01
1.559576e-01
1.247121e-01
9.346637e-02
6.222056e-02
3.101400e-02
0.000000e+00
5.009566e-01
4.686848e-01
4.371542e-01
4.059105e-01
3.746666e-01
3.434224e-01
3.121780e-01
2.809334e-01
2.496886e-01
2.184436e-01
1.871984e-01
1.559531e-01
1.247076e-01
9.346202e-02
6.221628e-02
3.100999e-02
0.000000e+00
5.009647e-01
4.686927e-01
4.371605e-01
4.059161e-01
3.746716e-01
3.434269e-01
3.121820e-01
2.809370e-01
2.496918e-01
2.184465e-01
1.872011e-01
1.559555e-01
1.247098e-01
9.346403e-02
6.221809e-02
3.101156e-02
0.000000e+00
5.009679e-01
4.686957e-01
4.371634e-01
4.059190e-01
3.746745e-01
3.434298e-01
3.121849e-01
2.809398e-01
2.496947e-01
2.184493e-01
1.872039e-01
1.559583e-01
1.247126e-01
9.346673e-02
6.222077e-02
3.101409e-02
0.000000e+00
5.009665e-01
4.686945e-01
4.371623e-01
4.059180e-01
3.746736e-01
3.434289e-01
3.121841e-01
2.809392e-01
2.496941e-01
2.184488e-01
1.872034e-01
1.559578e-01
1.247122e-01
9.346636e-02
6.222044e-02
3.101375e-02
0.000000e+00
5.009651e-01
4.686933e-01
4.371613e-01
4.059171e-01
3.746728e-01
3.434283e-01
3.121836e-01
2.809387e-01
2.496937e-01
2.184485e-01
1.872031e-01
1.559576e-01
1.247120e-01
9.346624e-02
6.222036e-02
3.101372e-02
0.000000e+00
5.009639e-01
4.686922e-01
4.371604e-01
4.059164e-01
3.746721e-01
3.434277e-01
3.121831e-01
2.809383e-01
2.496933e-01
2.184482e-01
1.872029e-01
1.559574e-01
1.247118e-01
9.346613e-02
6.222029e-02
3.101368e-02
0.000000e+00
5.009632e-01
4.686916e-01
4.371599e-01
4.059159e-01
3.746718e-01
3.434274e-01
3.121828e-01
2.809381e-01
2.496931e-01
2.184480e-01
1.872027e-01
1.559573e-01
1.247118e-01
9.346607e-02
6.222025e-02
3.101366e-02
0.000000e+00
5.009634e-01
4.686917e-01
4.371600e-01
4.059160e-01
3.746718e-01
3.434275e-01
3.121829e-01
2.809381e-01
2.496931e-01
2.184480e-01
1.872028e-01
1.559573e-01
1.247118e-01
9.346608e-02
6.222026e-02
3.101366e-02
0.000000e+00
5.009642e-01
4.686924e-01
4.371606e-01
4.059166e-01
3.746723e-01
3.434279e-01
3.121832e-01
2.809384e-01
2.496934e-01
2.184482e-01
1.872029e-01
1.559575e-01
1.247119e-01
9.346615e-02
6.222030e-02
3.101368e-02
0.000000e+00
5.009655e-01
4.686935e-01
4.371616e-01
4.059174e-01
3.746730e-01
3.434285e-01
3.121837e-01
2.809388e-01
2.496938e-01
2.184486e-01
1.872032e-01
1.559577e-01
1.247120e-01
9.346627e-02
6.222037e-02
3.101371e-02
0.000000e+00
5.009669e-01
4.686946e-01
4.371626e-01
4.059182e-01
3.746738e-01
3.434291e-01
3.121843e-01
2.809393e-01
2.496941e-01
2.184489e-01
1.872034e-01
1.559579e-01
1.247122e-01
9.346638e-02
6.222045e-02
3.101374e-02
0.000000e+00
5.009678e-01
4.686954e-01
4.371632e-01
4.059188e-01
3.746742e-01
3.434295e-01
3.121846e-01
2.809396e-01
2.496944e-01
2.184491e-01
1.872036e-01
1.559580e-01
1.247123e-01
9.346645e-02
6.222049e-02
3.101375e-02
0.000000e+00
5.009679e-01
4.686954e-01
4.371633e-01
4.059189e-01
3.746743e-01
3.434296e-01
3.121847e-01
2.809396e-01
2.496944e-01
2.184491e-01
1.872036e-01
1.559580e-01
1.247123e-01
9.346646e-02
6.222049e-02
3.101374e-02
0.000000e+00
5.009673e-01
4.686948e-01
4.371629e-01
4.059185e-01
3.746740e-01
3.434293e-01
3.121845e-01
2.809394e-01
2.496943e-01
2.184490e-01
1.872035e-01
1.559579e-01
1.247122e-01
9.346639e-02
6.222044e-02
3.101370e-02
0.000000e+00
5.009662e-01
4.686937e-01
4.371620e-01
4.059178e-01
3.746734e-01
3.434288e-01
3.121840e-01
2.809390e-01
2.496939e-01
2.184487e-01
1.872033e-01
1.559577e-01
1.247121e-01
9.346628e-02
6.222036e-02
3.101365e-02
0.000000e+00
5.009649e-01
4.686925e-01
4.371611e-01
4.059170e-01
3.746727e-01
3.434282e-01
3.121835e-01
2.809386e-01
2.496936e-01
2.184484e-01
1.872030e-01
1.559575e-01
1.247119e-01
9.346615e-02
6.222028e-02
3.101359e-02
0.000000e+00
5.009644e-01
4.686919e-01
4.371608e-01
4.059168e-01
3.746726e-01
3.434282e-01
3.121835e-01
2.809387e-01
2.496937e-01
2.184486e-01
1.872033e-01
1.559578e-01
1.247122e-01
9.346648e-02
6.222063e-02
3.101404e-02
0.000000e+00
5.009583e-01
4.686863e-01
4.371555e-01
4.059116e-01
3.746675e-01
3.434232e-01
3.121786e-01
2.809339e-01
2.496890e-01
2.184439e-01
1.871987e-01
1.559533e-01
1.247078e-01
9.346215e-02
6.221637e-02
3.101004e-02
0.000000e+00
5.009623e-01
4.686906e-01
4.371587e-01
4.059146e-01
3.746703e-01
3.434258e-01
3.121811e-01
2.809362e-01
2.496912e-01
2.184460e-01
1.872006e-01
1.559552e-01
1.247096e-01
9.346382e-02
6.221796e-02
3.101149e-02
0.000000e+00
5.009660e-01
4.686939e-01
4.371620e-01
4.059178e-01
3.746734e-01
3.434288e-01
3.121841e-01
2.809392e-01
2.496941e-01
2.184489e-01
1.872035e-01
1.559580e-01
1.247123e-01
9.346656e-02
6.222066e-02
3.101404e-02
0.000000e+00
5.009656e-01
4.686937e-01
4.371617e-01
4.059175e-01
3.746731e-01
3.434285e-01
3.121838e-01
2.809389e-01
2.496938e-01
2.184486e-01
1.872032e-01
1.559577e-01
1.247121e-01
9.346629e-02
6.222039e-02
3.101373e-02
0.000000e+00
5.009656e-01
4.686937e-01
4.371617e-01
4.059175e-01
3.746731e-01
3.434285e-01
3.121838e-01
2.809389e-01
2.496938e-01
2.184486e-01
1.872032e-01
1.559577e-01
1.247121e-01
9.346629e-02
6.222039e-02
3.101373e-02
0.000000e+00
5.009656e-01
4.686937e-01
4.371617e-01
4.059175e-01
3.746731e-01
3.434285e-01
3.121838e-01
2.809389e-01
2.496938e-01
2.184486e-01
1.872032e-01
1.559577e-01
1.247121e-01
9.346629e-02
6.222040e-02
3.101373e-02
0.000000e+00
5.009656e-01
4.686937e-01
4.371617e-01
4.059175e-01
3.746731e-01
3.434285e-01
3.121838e-01
2.809389e-01
2.496938e-01
2.184486e-01
1.872032e-01
1.559577e-01
1.247121e-01
9.346629e-02
6.222040e-02
3.101373e-02
0.000000e+00
5.009656e-01
4.686937e-01
4.371616e-01
4.059175e-01
3.746731e-01
3.434285e-01
3.121838e-01
2.809389e-01
2.496938e-01
2.184486e-01
1.872032e-01
1.559577e-01
1.247121e-01
9.346629e-02
6.222039e-02
3.101373e-02
0.000000e+00
5.009656e-01
4.686937e-01
4.371616e-01
4.059175e-01
3.746731e-01
3.434285e-01
3.121838e-01
2.809389e-01
2.496938e-01
2.184486e-01
1.872032e-01
1.559577e-01
1.247121e-01
9.346628e-02
6.222039e-02
3.101372e-02
0.000000e+00
5.009656e-01
4.686936e-01
4.371616e-01
4.059175e-01
3.746731e-01
3.434285e-01
3.121838e-01
2.809389e-01
2.496938e-01
2.184486e-01
1.872032e-01
1.559577e-01
1.247120e-01
9.346628e-02
6.222038e-02
3.101371e-02
0.000000e+00
5.009656e-01
4.686935e-01
4.371616e-01
4.059174e-01
3.746731e-01
3.434285e-01
3.121838e-01
2.809389e-01
2.496938e-01
2.184486e-01
1.872032e-01
1.559577e-01
1.247120e-01
9.346627e-02
6.222037e-02
3.101370e-02
0.000000e+00
5.009656e-01
4.686935e-01
4.371616e-01
4.059174e-01
3.746731e-01
3.434285e-01
3.121838e-01
2.809388e-01
2.496938e-01
2.184486e-01
1.872032e-01
1.559577e-01
1.247120e-01
9.346626e-02
6.222036e-02
3.101369e-02
0.000000e+00
5.009656e-01
4.686934e-01
4.371616e-01
4.059174e-01
3.746730e-01
3.434285e-01
3.121837e-01
2.809388e-01
2.496938e-01
2.184485e-01
1.872032e-01
1.559577e-01
1.247120e-01
9.346624e-02
6.222035e-02
3.101367e-02
0.000000e+00
5.009656e-01
4.686933e-01
4.371616e-01
4.059174e-01
3.746730e-01
3.434285e-01
3.121837e-01
2.809388e-01
2.496937e-01
2.184485e-01
1.872032e-01
1.559576e-01
1.247120e-01
9.346623e-02
6.222034e-02
3.101365e-02
0.000000e+00
5.009656e-01
4.686931e-01
4.371616e-01
4.059174e-01
3.746730e-01
3.434284e-01
3.121837e-01
2.809388e-01
2.496937e-01
2.184485e-01
1.872031e-01
1.559576e-01
1.247120e-01
9.346621e-02
6.222032e-02
3.101363e-02
0.000000e+00
5.009655e-01
4.686930e-01
4.371615e-01
4.059174e-01
3.746730e-01
3.434284e-01
3.121837e-01
2.809388e-01
2.496937e-01
2.184485e-01
1.872031e-01
1.559576e-01
1.247120e-01
9.346620e-02
6.222031e-02
3.101361e-02
0.000000e+00
5.009660e-01
4.686934e-01
4.371620e-01
4.059178e-01
3.746734e-01
3.434289e-01
3.121841e-01
2.809392e-01
2.496941e-01
2.184489e-01
1.872035e-01
1.559580e-01
1.247124e-01
9.346661e-02
6.222072e-02
3.101408e-02
0.000000e+00
5.009603e-01
4.686880e-01
4.371570e-01
4.059129e-01
3.746686e-01
3.434241e-01
3.121794e-01
2.809345e-01
2.496895e-01
2.184444e-01
1.871991e-01
1.559536e-01
1.247080e-01
9.346232e-02
6.221648e-02
3.101009e-02
0.000000e+00
5.009599e-01
4.686884e-01
4.371570e-01
4.059131e-01
3.746690e-01
3.434246e-01
3.121801e-01
2.809354e-01
2.496905e-01
2.184454e-01
1.872002e-01
1.559548e-01
1.247093e-01
9.346361e-02
6.221782e-02
3.101143e-02
0.000000e+00
5.009640e-01
4.686922e-01
4.371605e-01
4.059165e-01
3.746723e-01
3.434279e-01
3.121833e-01
2.809385e-01
2.496935e-01
2.184484e-01
1.872031e-01
1.559577e-01
1.247121e-01
9.346639e-02
6.222055e-02
3.101398e-02
0.000000e+00
5.009647e-01
4.686929e-01
4.371610e-01
4.059169e-01
3.746726e-01
3.434281e-01
3.121834e-01
2.809386e-01
2.496936e-01
2.184484e-01
1.872030e-01
1.559576e-01
1.247120e-01
9.346621e-02
6.222034e-02
3.101370e-02
0.000000e+00
5.009661e-01
4.686941e-01
4.371620e-01
4.059178e-01
3.746734e-01
3.434288e-01
3.121840e-01
2.809391e-01
2.496940e-01
2.184487e-01
1.872033e-01
1.559578e-01
1.247121e-01
9.346634e-02
6.222042e-02
3.101375e-02
0.000000e+00
5.009673e-01
4.686952e-01
4.371629e-01
4.059186e-01
3.746741e-01
3.434294e-01
3.121845e-01
2.809395e-01
2.496943e-01
2.184490e-01
1.872036e-01
1.559580e-01
1.247123e-01
9.346645e-02
6.222050e-02
3.101379e-02
0.000000e+00
5.009680e-01
4.686958e-01
4.371634e-01
4.059190e-01
3.746744e-01
3.434297e-01
3.121848e-01
2.809397e-01
2.496945e-01
2.184492e-01
1.872037e-01
1.559581e-01
1.247124e-01
9.346651e-02
6.222054e-02
3.101380e-02
0.000000e+00
5.009679e-01
4.686957e-01
4.371633e-01
4.059189e-01
3.746744e-01
3.434296e-01
3.121847e-01
2.809397e-01
2.496945e-01
2.184491e-01
1.872037e-01
1.559581e-01
1.247123e-01
9.346650e-02
6.222053e-02
3.101380e-02
0.000000e+00
5.009670e-01
4.686949e-01
4.371627e-01
4.059184e-01
3.746739e-01
3.434292e-01
3.121844e-01
2.809394e-01
2.496942e-01
2.184489e-01
1.872035e-01
1.559579e-01
1.247122e-01
9.346641e-02
6.222047e-02
3.101377e-02
0.000000e+00
5.009657e-01
4.686937e-01
4.371617e-01
4.059175e-01
3.746731e-01
3.434286e-01
3.121838e-01
2.809389e-01
2.496938e-01
2.184486e-01
1.872032e-01
1.559577e-01
1.247121e-01
9.346629e-02
6.222039e-02
3.101372e-02
0.000000e+00
5.009644e-01
4.686924e-01
4.371607e-01
4.059166e-01
3.746724e-01
3.434279e-01
3.121833e-01
2.809384e-01
2.496934e-01
2.184483e-01
1.872030e-01
1.559575e-01
1.247119e-01
9.346616e-02
6.222030e-02
3.101367e-02
0.000000e+00
5.009635e-01
4.686915e-01
4.371600e-01
4.059161e-01
3.746719e-01
3.434275e-01
3.121829e-01
2.809381e-01
2.496932e-01
2.184480e-01
1.872028e-01
1.559573e-01
1.247118e-01
9.346606e-02
6.222023e-02
3.101363e-02
0.000000e+00
5.009633e-01
4.686913e-01
4.371599e-01
4.059159e-01
3.746718e-01
3.434274e-01
3.121828e-01
2.809380e-01
2.496931e-01
2.184480e-01
1.872027e-01
1.559573e-01
1.247117e-01
9.346603e-02
6.222021e-02
3.101360e-02
0.000000e+00
5.009638e-01
4.686917e-01
4.371603e-01
4.059163e-01
3.746720e-01
3.434276e-01
3.121830e-01
2.809382e-01
2.496932e-01
2.184481e-01
1.872028e-01
1.559574e-01
1.247118e-01
9.346606e-02
6.222023e-02
3.101360e-02
0.000000e+00
5.009649e-01
4.686926e-01
4.371611e-01
4.059170e-01
3.746726e-01
3.434281e-01
3.121834e-01
2.809386e-01
2.496935e-01
2.184483e-01
1.872030e-01
1.559575e-01
1.247119e-01
9.346615e-02
6.222028e-02
3.101361e-02
0.000000e+00
5.009662e-01
4.686936e-01
4.371620e-01
4.059177e-01
3.746733e-01
3.434287e-01
3.121839e-01
2.809390e-01
2.496939e-01
2.184486e-01
1.872032e-01
1.559577e-01
1.247120e-01
9.346624e-02
6.222033e-02
3.101362e-02
0.000000e+00
5.009677e-01
4.686948e-01
4.371632e-01
4.059188e-01
3.746743e-01
3.434296e-01
3.121847e-01
2.809397e-01
2.496946e-01
2.184493e-01
1.872038e-01
1.559583e-01
1.247126e-01
9.346674e-02
6.222080e-02
3.101412e-02
0.000000e+00
5.009623e-01
4.686898e-01
4.371584e-01
4.059141e-01
3.746696e-01
3.434250e-01
3.121802e-01
2.809352e-01
2.496901e-01
2.184448e-01
1.871994e-01
1.559539e-01
1.247083e-01
9.346248e-02
6.221658e-02
3.101014e-02
0.000000e+00
5.009579e-01
4.686866e-01
4.371555e-01
4.059118e-01
3.746679e-01
3.434237e-01
3.121793e-01
2.809347e-01
2.496899e-01
2.184449e-01
1.871998e-01
1.559545e-01
1.247090e-01
9.346343e-02
6.221770e-02
3.101137e-02
0.000000e+00
5.009623e-01
4.686907e-01
4.371592e-01
4.059154e-01
3.746714e-01
3.434271e-01
3.121826e-01
2.809379e-01
2.496931e-01
2.184480e-01
1.872028e-01
1.559574e-01
1.247119e-01
9.346624e-02
6.222045e-02
3.101394e-02
0.000000e+00
5.009640e-01
4.686922e-01
4.371604e-01
4.059164e-01
3.746722e-01
3.434278e-01
3.121831e-01
2.809383e-01
2.496934e-01
2.184482e-01
1.872029e-01
1.559575e-01
1.247119e-01
9.346614e-02
6.222030e-02
3.101368e-02
0.000000e+00
5.009665e-01
4.686945e-01
4.371623e-01
4.059181e-01
3.746736e-01
3.434290e-01
3.121842e-01
2.809392e-01
2.496941e-01
2.184488e-01
1.872034e-01
1.559579e-01
1.247122e-01
9.346638e-02
6.222045e-02
3.101376e-02
0.000000e+00
5.009688e-01
4.686965e-01
4.371640e-01
4.059195e-01
3.746749e-01
3.434301e-01
3.121851e-01
2.809400e-01
2.496948e-01
2.184494e-01
1.872039e-01
1.559582e-01
1.247125e-01
9.346659e-02
6.222059e-02
3.101383e-02
0.000000e+00
5.009700e-01
4.686976e-01
4.371649e-01
4.059203e-01
3.746755e-01
3.434306e-01
3.121856e-01
2.809404e-01
2.496951e-01
2.184497e-01
1.872041e-01
1.559584e-01
1.247126e-01
9.346670e-02
6.222066e-02
3.101386e-02
0.000000e+00
5.009698e-01
4.686974e-01
4.371648e-01
4.059202e-01
3.746754e-01
3.434305e-01
3.121855e-01
2.809403e-01
2.496950e-01
2.184496e-01
1.872041e-01
1.559584e-01
1.247126e-01
9.346668e-02
6.222065e-02
3.101385e-02
0.000000e+00
5.009682e-01
4.686959e-01
4.371636e-01
4.059191e-01
3.746745e-01
3.434298e-01
3.121848e-01
2.809398e-01
2.496946e-01
2.184492e-01
1.872037e-01
1.559581e-01
1.247124e-01
9.346652e-02
6.222055e-02
3.101380e-02
0.000000e+00
5.009657e-01
4.686937e-01
4.371617e-01
4.059176e-01
3.746732e-01
3.434286e-01
3.121839e-01
2.809389e-01
2.496939e-01
2.184486e-01
1.872032e-01
1.559577e-01
1.247121e-01
9.346630e-02
6.222039e-02
3.101372e-02
0.000000e+00
5.009633e-01
4.686915e-01
4.371599e-01
4.059160e-01
3.746718e-01
3.434274e-01
3.121828e-01
2.809381e-01
2.496931e-01
2.184480e-01
1.872027e-01
1.559573e-01
1.247118e-01
9.346606e-02
6.222024e-02
3.101364e-02
0.000000e+00
5.009616e-01
4.686899e-01
4.371587e-01
4.059149e-01
3.746709e-01
3.434266e-01
3.121822e-01
2.809375e-01
2.496926e-01
2.184476e-01
1.872024e-01
1.559570e-01
1.247115e-01
9.346590e-02
6.222013e-02
3.101357e-02
0.000000e+00
5.009613e-01
4.686895e-01
4.371584e-01
4.059146e-01
3.746707e-01
3.434264e-01
3.121820e-01
2.809373e-01
2.496925e-01
2.184475e-01
1.872023e-01
1.559570e-01
1.247115e-01
9.346585e-02
6.222009e-02
3.101354e-02
0.000000e+00
5.009624e-01
4.686904e-01
4.371592e-01
4.059153e-01
3.746712e-01
3.434269e-01
3.121824e-01
2.809377e-01
2.496928e-01
2.184477e-01
1.872025e-01
1.559571e-01
1.247116e-01
9.346592e-02
6.222014e-02
3.101355e-02
0.000000e+00
5.009644e-01
4.686921e-01
4.371607e-01
4.059166e-01
3.746723e-01
3.434278e-01
3.121832e-01
2.809383e-01
2.496933e-01
2.184482e-01
1.872029e-01
1.559574e-01
1.247118e-01
9.346609e-02
6.222024e-02
3.101359e-02
0.000000e+00
5.009668e-01
4.686941e-01
4.371624e-01
4.059181e-01
3.746736e-01
3.434289e-01
3.121841e-01
2.809391e-01
2.496940e-01
2.184487e-01
1.872033e-01
1.559578e-01
1.247121e-01
9.346628e-02
6.222036e-02
3.101363e-02
0.000000e+00
5.009691e-01
4.686960e-01
4.371642e-01
4.059197e-01
3.746750e-01
3.434302e-01
3.121853e-01
2.809402e-01
2.496949e-01
2.184496e-01
1.872041e-01
1.559585e-01
1.247127e-01
9.346685e-02
6.222087e-02
3.101416e-02
0.000000e+00
5.009640e-01
4.686913e-01
4.371597e-01
4.059152e-01
3.746705e-01
3.434257e-01
3.121808e-01
2.809357e-01
2.496905e-01
2.184452e-01
1.871997e-01
1.559542e-01
1.247084e-01
9.346262e-02
6.221667e-02
3.101019e-02
0.000000e+00
5.009565e-01
4.686854e-01
4.371545e-01
4.059109e-01
3.746671e-01
3.434231e-01
3.121788e-01
2.809342e-01
2.496895e-01
2.184446e-01
1.871995e-01
1.559543e-01
1.247089e-01
9.346331e-02
6.221763e-02
3.101133e-02
0.000000e+00
5.009612e-01
4.686897e-01
4.371584e-01
4.059147e-01
3.746708e-01
3.434266e-01
3.121822e-01
2.809376e-01
2.496927e-01
2.184477e-01
1.872026e-01
1.559572e-01
1.247118e-01
9.346614e-02
6.222039e-02
3.101390e-02
0.000000e+00
5.009635e-01
4.686917e-01
4.371600e-01
4.059161e-01
3.746719e-01
3.434275e-01
3.121829e-01
2.809382e-01
2.496932e-01
2.184481e-01
1.872028e-01
1.559574e-01
1.247118e-01
9.346610e-02
6.222027e-02
3.101367e-02
0.000000e+00
5.009668e-01
4.686948e-01
4.371625e-01
4.059183e-01
3.746738e-01
3.434291e-01
3.121843e-01
2.809393e-01
2.496942e-01
2.184489e-01
1.872035e-01
1.559579e-01
1.247122e-01
9.346641e-02
6.222047e-02
3.101377e-02
0.000000e+00
5.009698e-01
4.686974e-01
4.371648e-01
4.059202e-01
3.746754e-01
3.434305e-01
3.121855e-01
2.809403e-01
2.496950e-01
2.184496e-01
1.872041e-01
1.559584e-01
1.247126e-01
9.346668e-02
6.222065e-02
3.101386e-02
0.000000e+00
5.009714e-01
4.686988e-01
4.371660e-01
4.059212e-01
3.746763e-01
3.434313e-01
3.121862e-01
2.809409e-01
2.496955e-01
2.184500e-01
1.872044e-01
1.559587e-01
1.247128e-01
9.346683e-02
6.222074e-02
3.101390e-02
0.000000e+00
5.009711e-01
4.686985e-01
4.371657e-01
4.059210e-01
3.746761e-01
3.434311e-01
3.121860e-01
2.809408e-01
2.496954e-01
2.184499e-01
1.872043e-01
1.559586e-01
1.247128e-01
9.346680e-02
6.222072e-02
3.101389e-02
0.000000e+00
5.009690e-01
4.686966e-01
4.371642e-01
4.059196e-01
3.746750e-01
3.434301e-01
3.121852e-01
2.809401e-01
2.496948e-01
2.184494e-01
1.872039e-01
1.559583e-01
1.247125e-01
9.346660e-02
6.222059e-02
3.101383e-02
0.000000e+00
5.009658e-01
4.686938e-01
4.371618e-01
4.059176e-01
3.746732e-01
3.434286e-01
3.121839e-01
2.809390e-01
2.496939e-01
2.184486e-01
1.872033e-01
1.559577e-01
1.247121e-01
9.346630e-02
6.222040e-02
3.101372e-02
0.000000e+00
5.009626e-01
4.686909e-01
4.371594e-01
4.059155e-01
3.746714e-01
3.434271e-01
3.121826e-01
2.809378e-01
2.496929e-01
2.184478e-01
1.872026e-01
1.559572e-01
1.247117e-01
9.346600e-02
6.222020e-02
3.101362e-02
0.000000e+00
5.009604e-01
4.686889e-01
4.371578e-01
4.059141e-01
3.746702e-01
3.434261e-01
3.121817e-01
2.809371e-01
2.496923e-01
2.184473e-01
1.872022e-01
1.559568e-01
1.247114e-01
9.346578e-02
6.222005e-02
3.101354e-02
0.000000e+00
5.009600e-01
4.686884e-01
4.371574e-01
4.059138e-01
3.746699e-01
3.434258e-01
3.121815e-01
2.809369e-01
2.496921e-01
2.184472e-01
1.872020e-01
1.559567e-01
1.247113e-01
9.346573e-02
6.222001e-02
3.101350e-02
0.000000e+00
5.009614e-01
4.686895e-01
4.371584e-01
4.059147e-01
3.746707e-01
3.434264e-01
3.121820e-01
2.809373e-01
2.496925e-01
2.184475e-01
1.872023e-01
1.559569e-01
1.247115e-01
9.346583e-02
6.222008e-02
3.101352e-02
0.000000e+00
5.009641e-01
4.686918e-01
4.371604e-01
4.059163e-01
3.746721e-01
3.434277e-01
3.121830e-01
2.809382e-01
2.496932e-01
2.184481e-01
1.872028e-01
1.559573e-01
1.247118e-01
9.346605e-02
6.222022e-02
3.101358e-02
0.000000e+00
5.009671e-01
4.686944e-01
4.371626e-01
4.059183e-01
3.746738e-01
3.434291e-01
3.121842e-01
2.809392e-01
2.496941e-01
2.184488e-01
1.872034e-01
1.559578e-01
1.247121e-01
9.346631e-02
6.222038e-02
3.101364e-02
0.000000e+00
5.009700e-01
4.686969e-01
4.371649e-01
4.059203e-01
3.746755e-01
3.434306e-01
3.121856e-01
2.809405e-01