<?xml version="1.0"?>
<VTKFile type="StructuredGrid" version="0.1">
  <StructuredGrid WholeExtent="0 16 0 16 0 16">
    <Piece Extent="0 16 0 16 0 16">
      <PointData Scalars="temperature" Vectors="velocity">
        <DataArray type="Float32" Name="temperature" format="ascii">
1.000000e+00
9.689152e-01
9.423520e-01
9.140749e-01
8.858924e-01
8.512609e-01
8.169013e-01
7.809850e-01
7.489307e-01
7.173189e-01
6.860941e-01
6.548682e-01
6.236416e-01
5.924887e-01
5.614704e-01
5.313294e-01
5.021782e-01
1.000000e+00
9.686900e-01
9.412675e-01
9.124892e-01
8.837778e-01
8.497400e-01
8.159033e-01
7.807821e-01
7.488681e-01
7.173230e-01
6.860988e-01
6.548736e-01
6.236475e-01
5.924952e-01
5.614773e-01
5.313365e-01
5.021851e-01
1.000000e+00
9.680638e-01
9.383569e-01
9.082359e-01
8.781327e-01
8.456491e-01
8.132157e-01
7.802092e-01
7.486701e-01
7.173019e-01
6.860798e-01
6.548567e-01
6.236325e-01
5.924820e-01
5.614657e-01
5.313266e-01
5.021761e-01
1.000000e+00
9.672574e-01
9.346094e-01
9.027544e-01
8.708795e-01
8.403827e-01
8.097637e-01
7.794736e-01
7.484169e-01
7.172753e-01
6.860560e-01
6.548355e-01
6.236139e-01
5.924657e-01
5.614516e-01
5.313145e-01
5.021653e-01
1.000000e+00
9.665416e-01
9.312864e-01
8.978942e-01
8.644576e-01
8.357178e-01
8.067108e-01
7.788234e-01
7.481934e-01
7.172518e-01
6.860350e-01
6.548169e-01
6.235974e-01
5.924514e-01
5.614391e-01
5.313038e-01
5.021557e-01
1.000000e+00
9.661588e-01
9.295080e-01
8.952975e-01
8.610225e-01
8.332273e-01
8.050804e-01
7.784768e-01
7.480741e-01
7.172392e-01
6.860237e-01
6.548068e-01
6.235886e-01
5.924436e-01
5.614324e-01
5.312980e-01
5.021505e-01
1.000000e+00
9.662390e-01
9.298745e-01
8.958425e-01
8.617259e-01
8.337501e-01
8.054166e-01
7.785494e-01
7.480984e-01
7.172418e-01
6.860259e-01
6.548088e-01
6.235903e-01
5.924451e-01
5.614337e-01
5.312991e-01
5.021514e-01
1.000000e+00
9.667548e-01
9.322615e-01
8.993444e-01
8.663309e-01
8.371096e-01
8.076069e-01
7.790169e-01
7.482583e-01
7.172585e-01
6.860409e-01
6.548221e-01
6.236020e-01
5.924553e-01
5.614425e-01
5.313066e-01
5.021582e-01
1.000000e+00
9.675309e-01
9.358630e-01
9.046179e-01
8.732923e-01
8.421729e-01
8.109186e-01
7.797228e-01
7.485006e-01
7.172838e-01
6.860636e-01
6.548422e-01
6.236197e-01
5.924707e-01
5.614559e-01
5.313180e-01
5.021685e-01
1.000000e+00
9.683045e-01
9.394660e-01
9.098791e-01
8.802741e-01
8.472293e-01
8.142403e-01
7.804292e-01
7.487442e-01
7.173091e-01
6.860863e-01
6.548623e-01
6.236374e-01
5.924862e-01
5.614694e-01
5.313294e-01
5.021788e-01
1.000000e+00
9.688143e-01
9.418614e-01
9.133490e-01
8.849338e-01
8.505667e-01
8.164526e-01
7.808963e-01
7.489071e-01
7.173260e-01
6.861014e-01
6.548758e-01
6.236493e-01
5.924966e-01
5.614784e-01
5.313370e-01
5.021858e-01
1.000000e+00
9.688894e-01
9.422484e-01
9.138561e-01
8.857107e-01
8.510540e-01
8.168084e-01
7.809649e-01
7.489345e-01
7.173288e-01
6.861040e-01
6.548781e-01
6.236515e-01
5.924985e-01
5.614801e-01
5.313383e-01
5.021871e-01
1.000000e+00
9.685052e-01
9.405011e-01
9.112322e-01
8.823500e-01
8.485288e-01
8.151902e-01
7.806123e-01
7.488174e-01
7.173168e-01
6.860933e-01
6.548688e-01
6.236433e-01
5.924914e-01
5.614740e-01
5.313330e-01
5.021825e-01
1.000000e+00
9.677921e-01
9.372085e-01
9.063697e-01
8.759878e-01
8.438530e-01
8.121500e-01
7.799601e-01
7.485961e-01
7.172941e-01
6.860732e-01
6.548510e-01
6.236278e-01
5.924779e-01
5.614624e-01
5.313228e-01
5.021736e-01
1.000000e+00
9.669914e-01
9.334801e-01
9.009153e-01
8.687683e-01
8.386133e-01
8.087184e-01
7.792309e-01
7.483458e-01
7.172687e-01
6.860506e-01
6.548311e-01
6.236104e-01
5.924627e-01
5.614493e-01
5.313114e-01
5.021636e-01
1.000000e+00
9.663729e-01
9.305765e-01
8.967063e-01
8.631286e-01
8.345726e-01
8.060544e-01
7.786698e-01
7.481511e-01
7.172498e-01
6.860338e-01
6.548165e-01
6.235977e-01
5.924518e-01
5.614400e-01
5.313034e-01
5.021567e-01
1.000000e+00
9.661209e-01
9.294557e-01
8.951119e-01
8.609728e-01
8.330497e-01
8.050335e-01
7.784408e-01
7.480581e-01
7.172237e-01
6.860088e-01
6.547925e-01
6.235746e-01
5.924297e-01
5.614188e-01
5.312834e-01
5.021379e-01
1.000000e+00
9.688090e-01
9.418596e-01
9.133525e-01
8.849377e-01
8.505661e-01
8.164456e-01
7.808876e-01
7.488972e-01
7.173154e-01
6.860909e-01
6.548655e-01
6.236391e-01
5.924866e-01
5.614686e-01
5.313279e-01
5.021768e-01
1.000000e+00
9.686018e-01
9.408585e-01
9.118885e-01
8.829851e-01
8.491621e-01
8.155248e-01
7.807012e-01
7.488403e-01
7.173201e-01
6.860962e-01
6.548713e-01
6.236455e-01
5.924934e-01
5.614758e-01
5.313352e-01
5.021840e-01
1.000000e+00
9.680231e-01
9.381693e-01
9.079589e-01
8.777698e-01
8.453829e-01
8.130421e-01
7.801720e-01
7.486574e-01
7.173005e-01
6.860786e-01
6.548556e-01
6.236316e-01
5.924812e-01
5.614651e-01
5.313260e-01
5.021756e-01
1.000000e+00
9.672781e-01
9.347071e-01
9.028946e-01
8.710688e-01
8.405175e-01
8.098529e-01
7.794924e-01
7.484235e-01
7.172760e-01
6.860566e-01
6.548361e-01
6.236144e-01
5.924662e-01
5.614520e-01
5.313148e-01
5.021656e-01
1.000000e+00
9.666168e-01
9.316371e-01
8.984043e-01
8.651355e-01
8.362074e-01
8.070322e-01
7.788916e-01
7.482170e-01
7.172543e-01
6.860372e-01
6.548189e-01
6.235992e-01
5.924529e-01
5.614405e-01
5.313050e-01
5.021567e-01
1.000000e+00
9.662632e-01
9.299942e-01
8.960053e-01
8.619618e-01
8.339061e-01
8.055255e-01
7.785712e-01
7.481067e-01
7.172427e-01
6.860268e-01
6.548096e-01
6.235910e-01
5.924457e-01
5.614342e-01
5.312996e-01
5.021519e-01
1.000000e+00
9.663373e-01
9.303327e-01
8.965088e-01
8.626117e-01
8.343892e-01
8.058362e-01
7.786384e-01
7.481292e-01
7.172450e-01
6.860289e-01
6.548114e-01
6.235926e-01
5.924471e-01
5.614354e-01
5.313006e-01
5.021528e-01
1.000000e+00
9.668138e-01
9.325379e-01
8.997441e-01
8.668664e-01
8.374933e-01
8.078601e-01
7.790704e-01
7.482769e-01
7.172605e-01
6.860427e-01
6.548237e-01
6.236034e-01
5.924565e-01
5.614436e-01
5.313075e-01
5.021591e-01
1.000000e+00
9.675308e-01
9.358652e-01
9.046162e-01
8.732979e-01
8.421714e-01
8.109200e-01
7.797227e-01
7.485008e-01
7.172838e-01
6.860636e-01
6.548422e-01
6.236197e-01
5.924708e-01
5.614560e-01
5.313180e-01
5.021685e-01
1.000000e+00
9.682455e-01
9.391941e-01
9.094769e-01
8.797482e-01
8.468427e-01
8.139886e-01
7.803752e-01
7.487258e-01
7.173072e-01
6.860846e-01
6.548608e-01
6.236361e-01
5.924851e-01
5.614684e-01
5.313286e-01
5.021781e-01
1.000000e+00
9.687166e-01
9.414072e-01
9.126827e-01
8.840531e-01
8.499257e-01
8.160321e-01
7.808066e-01
7.488763e-01
7.173228e-01
6.860986e-01
6.548733e-01
6.236471e-01
5.924947e-01
5.614767e-01
5.313356e-01
5.021845e-01
1.000000e+00
9.687859e-01
9.417648e-01
9.131512e-01
8.847707e-01
8.503758e-01
8.163607e-01
7.808700e-01
7.489015e-01
7.173254e-01
6.861009e-01
6.548754e-01
6.236491e-01
5.924964e-01
5.614783e-01
5.313368e-01
5.021857e-01
1.000000e+00
9.684309e-01
9.401503e-01
9.107270e-01
8.816660e-01
8.480432e-01
8.148660e-01
7.805443e-01
7.487934e-01
7.173143e-01
6.860911e-01
6.548668e-01
6.236416e-01
5.924898e-01
5.614727e-01
5.313318e-01
5.021815e-01
1.000000e+00
9.677721e-01
9.371082e-01
9.062346e-01
8.757882e-01
8.437236e-01
8.120575e-01
7.799418e-01
7.485890e-01
7.172934e-01
6.860725e-01
6.548504e-01
6.236272e-01
5.924774e-01
5.614619e-01
5.313224e-01
5.021732e-01
1.000000e+00
9.670323e-01
9.336636e-01
9.011954e-01
8.691183e-01
8.388827e-01
8.088871e-01
7.792682e-01
7.483577e-01
7.172699e-01
6.860516e-01
6.548320e-01
6.236111e-01
5.924634e-01
5.614498e-01
5.313118e-01
5.021640e-01
1.000000e+00
9.664610e-01
9.309812e-01
8.973068e-01
8.639077e-01
8.351493e-01
8.064256e-01
7.787497e-01
7.481778e-01
7.172524e-01
6.860362e-01
6.548185e-01
6.235994e-01
5.924533e-01
5.614413e-01
5.313045e-01
5.021576e-01
1.000000e+00
9.662270e-01
9.299443e-01
8.958323e-01
8.619144e-01
8.337406e-01
8.054807e-01
7.785366e-01
7.480905e-01
7.172270e-01
6.860117e-01
6.547950e-01
6.235768e-01
5.924315e-01
5.614204e-01
5.312848e-01
5.021391e-01
1.000000e+00
9.685066e-01
9.404570e-01
9.112950e-01
8.822190e-01
8.485877e-01
8.151488e-01
7.806105e-01
7.488019e-01
7.173054e-01
6.860821e-01
6.548576e-01
6.236322e-01
5.924805e-01
5.614633e-01
5.313234e-01
5.021728e-01
1.000000e+00
9.683505e-01
9.396935e-01
9.101774e-01
8.807277e-01
8.475165e-01
8.144474e-01
7.804708e-01
7.487612e-01
7.173118e-01
6.860889e-01
6.548648e-01
6.236398e-01
5.924884e-01
5.614715e-01
5.313315e-01
5.021807e-01
1.000000e+00
9.679073e-01
9.376349e-01
9.071697e-01
8.767365e-01
8.446248e-01
8.125480e-01
7.800660e-01
7.486212e-01
7.172968e-01
6.860753e-01
6.548527e-01
6.236290e-01
5.924789e-01
5.614631e-01
5.313243e-01
5.021741e-01
1.000000e+00
9.673371e-01
9.349849e-01
9.032936e-01
8.716078e-01
8.409012e-01
8.101072e-01
7.795460e-01
7.484422e-01
7.172780e-01
6.860584e-01
6.548377e-01
6.236158e-01
5.924674e-01
5.614531e-01
5.313158e-01
5.021664e-01
1.000000e+00
9.668310e-01
9.326355e-01
8.998569e-01
8.670663e-01
8.376016e-01
8.079476e-01
7.790859e-01
7.482840e-01
7.172614e-01
6.860436e-01
6.548245e-01
6.236042e-01
5.924573e-01
5.614443e-01
5.313082e-01
5.021597e-01
1.000000e+00
9.665605e-01
9.313784e-01
8.980208e-01
8.646369e-01
8.358396e-01
8.067937e-01
7.788404e-01
7.481995e-01
7.172525e-01
6.860356e-01
6.548174e-01
6.235979e-01
5.924518e-01
5.614395e-01
5.313042e-01
5.021560e-01
1.000000e+00
9.666172e-01
9.316374e-01
8.984062e-01
8.651344e-01
8.362094e-01
8.070317e-01
7.788918e-01
7.482168e-01
7.172542e-01
6.860372e-01
6.548188e-01
6.235991e-01
5.924528e-01
5.614404e-01
5.313049e-01
5.021567e-01
1.000000e+00
9.669817e-01
9.333248e-01
9.008824e-01
8.683912e-01
8.385861e-01
8.085815e-01
7.792229e-01
7.483300e-01
7.172661e-01
6.860477e-01
6.548282e-01
6.236074e-01
5.924600e-01
5.614466e-01
5.313102e-01
5.021614e-01
1.000000e+00
9.675305e-01
9.358712e-01
9.046113e-01
8.733139e-01
8.421671e-01
8.109239e-01
7.797222e-01
7.485013e-01
7.172840e-01
6.860638e-01
6.548424e-01
6.236199e-01
5.924709e-01
5.614561e-01
5.313182e-01
5.021687e-01
1.000000e+00
9.680775e-01
9.384192e-01
9.083316e-01
8.782505e-01
8.457418e-01
8.132721e-01
7.802215e-01
7.486735e-01
7.173018e-01
6.860798e-01
6.548566e-01
6.236324e-01
5.924818e-01
5.614656e-01
5.313262e-01
5.021760e-01
1.000000e+00
9.684382e-01
9.401134e-01
9.107852e-01
8.815449e-01
8.481006e-01
8.148353e-01
7.805513e-01
7.487886e-01
7.173138e-01
6.860905e-01
6.548661e-01
6.236408e-01
5.924892e-01
5.614720e-01
5.313315e-01
5.021808e-01
1.000000e+00
9.684912e-01
9.403871e-01
9.111436e-01
8.820940e-01
8.484449e-01
8.150866e-01
7.805998e-01
7.488079e-01
7.173157e-01
6.860923e-01
6.548678e-01
6.236423e-01
5.924905e-01
5.614731e-01
5.313323e-01
5.021818e-01
1.000000e+00
9.682194e-01
9.391511e-01
9.092882e-01
8.797181e-01
8.466603e-01
8.139433e-01
7.803508e-01
7.487252e-01
7.173072e-01
6.860847e-01
6.548611e-01
6.236365e-01
5.924854e-01
5.614688e-01
5.313285e-01
5.021785e-01
1.000000e+00
9.677150e-01
9.368225e-01
9.058498e-01
8.752197e-01
8.433549e-01
8.117944e-01
7.798899e-01
7.485688e-01
7.172912e-01
6.860705e-01
6.548486e-01
6.236255e-01
5.924759e-01
5.614606e-01
5.313212e-01
5.021721e-01
1.000000e+00
9.671488e-01
9.341862e-01
9.019931e-01
8.701147e-01
8.396497e-01
8.093678e-01
7.793743e-01
7.483918e-01
7.172732e-01
6.860545e-01
6.548345e-01
6.236132e-01
5.924651e-01
5.614513e-01
5.313131e-01
5.021650e-01
1.000000e+00
9.667119e-01
9.321337e-01
8.990170e-01
8.661264e-01
8.367916e-01
8.074832e-01
7.789773e-01
7.482542e-01
7.172600e-01
6.860429e-01
6.548244e-01
6.236045e-01
5.924576e-01
5.614449e-01
5.313076e-01
5.021603e-01
1.000000e+00
9.665288e-01
9.313355e-01
8.978837e-01
8.645960e-01
8.357084e-01
8.067551e-01
7.788095e-01
7.481829e-01
7.172362e-01
6.860198e-01
6.548021e-01
6.235829e-01
5.924368e-01
5.614249e-01
5.312886e-01
5.021424e-01
1.000000e+00
9.680536e-01
9.383564e-01
9.082153e-01
8.781505e-01
8.456279e-01
8.132099e-01
7.801964e-01
7.486595e-01
7.172906e-01
6.860688e-01
6.548458e-01
6.236219e-01
5.924715e-01
5.614555e-01
5.313167e-01
5.021668e-01
1.000000e+00
9.679741e-01
9.379489e-01
9.076163e-01
8.773494e-01
8.450543e-01
8.128362e-01
7.801266e-01
7.486430e-01
7.172995e-01
6.860778e-01
6.548550e-01
6.236312e-01
5.924810e-01
5.614650e-01
5.313259e-01
5.021757e-01
1.000000e+00
9.677338e-01
9.368344e-01
9.059884e-01
8.751896e-01
8.434900e-01
8.118088e-01
7.799076e-01
7.485671e-01
7.172911e-01
6.860702e-01
6.548482e-01
6.236251e-01
5.924755e-01
5.614602e-01
5.313218e-01
5.021719e-01
1.000000e+00
9.674252e-01
9.354002e-01
9.038906e-01
8.724141e-01
8.414749e-01
8.104879e-01
7.796261e-01
7.484702e-01
7.172809e-01
6.860611e-01
6.548401e-01
6.236179e-01
5.924693e-01
5.614547e-01
5.313172e-01
5.021677e-01
1.000000e+00
9.671514e-01
9.341289e-01
9.020307e-01
8.699559e-01
8.396885e-01
8.093186e-01
7.793769e-01
7.483846e-01
7.172719e-01
6.860530e-01
6.548329e-01
6.236116e-01
5.924638e-01
5.614500e-01
5.313131e-01
5.021641e-01
1.000000e+00
9.670051e-01
9.334487e-01
9.010371e-01
8.686408e-01
8.387342e-01
8.086936e-01
7.792438e-01
7.483388e-01
7.172671e-01
6.860487e-01
6.548291e-01
6.236082e-01
5.924608e-01
5.614474e-01
5.313109e-01
5.021621e-01
1.000000e+00
9.670357e-01
9.335888e-01
9.012456e-01
8.689101e-01
8.389345e-01
8.088225e-01
7.792717e-01
7.483481e-01
7.172681e-01
6.860496e-01
6.548298e-01
6.236089e-01
5.924614e-01
5.614479e-01
5.313113e-01
5.021624e-01
1.000000e+00
9.672329e-01
9.345019e-01
9.025856e-01
8.706730e-01
8.402216e-01
8.096619e-01
7.794511e-01
7.484094e-01
7.172745e-01
6.860553e-01
6.548349e-01
6.236134e-01
5.924653e-01
5.614512e-01
5.313141e-01
5.021650e-01
1.000000e+00
9.675298e-01
9.358798e-01
9.046037e-01
8.733374e-01
8.421600e-01
8.109300e-01
7.797215e-01
7.485022e-01
7.172841e-01
6.860640e-01
6.548426e-01
6.236201e-01
5.924711e-01
5.614563e-01
5.313184e-01
5.021689e-01
1.000000e+00
9.678259e-01
9.372589e-01
9.066171e-01
8.760088e-01
8.440942e-01
8.122004e-01
7.799915e-01
7.485953e-01
7.172938e-01
6.860726e-01
6.548503e-01
6.236269e-01
5.924770e-01
5.614614e-01
5.313226e-01
5.021728e-01
1.000000e+00
9.680211e-01
9.381759e-01
9.079449e-01
8.777913e-01
8.453699e-01
8.130458e-01
7.801698e-01
7.486576e-01
7.173002e-01
6.860784e-01
6.548554e-01
6.236314e-01
5.924809e-01
5.614648e-01
5.313254e-01
5.021754e-01
1.000000e+00
9.680498e-01
9.383240e-01
9.081389e-01
8.780883e-01
8.455560e-01
8.131816e-01
7.801959e-01
7.486680e-01
7.173013e-01
6.860793e-01
6.548563e-01
6.236322e-01
5.924816e-01
5.614654e-01
5.313257e-01
5.021758e-01
1.000000e+00
9.679026e-01
9.376549e-01
9.071346e-01
8.768028e-01
8.445908e-01
8.125633e-01
7.800613e-01
7.486232e-01
7.172966e-01
6.860752e-01
6.548526e-01
6.236290e-01
5.924788e-01
5.614631e-01
5.313235e-01
5.021740e-01
1.000000e+00
9.676295e-01
9.363945e-01
9.052737e-01
8.743686e-01
8.428026e-01
8.114009e-01
7.798121e-01
7.485385e-01
7.172879e-01
6.860675e-01
6.548458e-01
6.236230e-01
5.924736e-01
5.614585e-01
5.313194e-01
5.021705e-01
1.000000e+00
9.673231e-01
9.349678e-01
9.031866e-01
8.716058e-01
8.407973e-01
8.100875e-01
7.795330e-01
7.484428e-01
7.172782e-01
6.860588e-01
6.548382e-01
6.236164e-01
5.924678e-01
5.614535e-01
5.313149e-01
5.021666e-01
1.000000e+00
9.670872e-01
9.338574e-01
9.015761e-01
8.694472e-01
8.392500e-01
8.090672e-01
7.793182e-01
7.483686e-01
7.172714e-01
6.860529e-01
6.548331e-01
6.236120e-01
5.924641e-01
5.614505e-01
5.313122e-01
5.021644e-01
1.000000e+00
9.669802e-01
9.334164e-01
9.009537e-01
8.686096e-01
8.386545e-01
8.086640e-01
7.792186e-01
7.483214e-01
7.172500e-01
6.860320e-01
6.548127e-01
6.235921e-01
5.924447e-01
5.614317e-01
5.312943e-01
5.021475e-01
1.000000e+00
9.675188e-01
9.358766e-01
9.045821e-01
8.733519e-01
8.421381e-01
8.109257e-01
7.797089e-01
7.484920e-01
7.172731e-01
6.860531e-01
6.548319e-01
6.236096e-01
5.924608e-01
5.614462e-01
5.313087e-01
5.021597e-01
1.000000e+00
9.675298e-01
9.358895e-01
9.045948e-01
8.733646e-01
8.421508e-01
8.109379e-01
7.797211e-01
7.485040e-01
7.172850e-01
6.860648e-01
6.548435e-01
6.236210e-01
5.924721e-01
5.614573e-01
5.313194e-01
5.021698e-01
1.000000e+00
9.675291e-01
9.358894e-01
9.045945e-01
8.733646e-01
8.421509e-01
8.109374e-01
7.797207e-01
7.485034e-01
7.172845e-01
6.860643e-01
6.548430e-01
6.236205e-01
5.924715e-01
5.614567e-01
5.313188e-01
5.021692e-01
1.000000e+00
9.675291e-01
9.358894e-01
9.045944e-01
8.733646e-01
8.421509e-01
8.109373e-01
7.797206e-01
7.485033e-01
7.172844e-01
6.860642e-01
6.548429e-01
6.236204e-01
5.924715e-01
5.614566e-01
5.313189e-01
5.021692e-01
1.000000e+00
9.675290e-01
9.358891e-01
9.045944e-01
8.733643e-01
8.421505e-01
8.109374e-01
7.797206e-01
7.485034e-01
7.172844e-01
6.860643e-01
6.548429e-01
6.236204e-01
5.924715e-01
5.614567e-01
5.313189e-01
5.021692e-01
1.000000e+00
9.675290e-01
9.358888e-01
9.045944e-01
8.733640e-01
8.421501e-01
8.109374e-01
7.797205e-01
7.485035e-01
7.172844e-01
6.860642e-01
6.548429e-01
6.236204e-01
5.924715e-01
5.614567e-01
5.313189e-01
5.021692e-01
1.000000e+00
9.675290e-01
9.358889e-01
9.045944e-01
8.733641e-01
8.421502e-01
8.109374e-01
7.797205e-01
7.485034e-01
7.172844e-01
6.860642e-01
6.548429e-01
6.236204e-01
5.924715e-01
5.614566e-01
5.313188e-01
5.021692e-01
1.000000e+00
9.675290e-01
9.358892e-01
9.045944e-01
8.733644e-01
8.421507e-01
8.109373e-01
7.797206e-01
7.485034e-01
7.172844e-01
6.860642e-01
6.548429e-01
6.236204e-01
5.924714e-01
5.614566e-01
5.313188e-01
5.021692e-01
1.000000e+00
9.675290e-01
9.358893e-01
9.045944e-01
8.733646e-01
8.421509e-01
8.109372e-01
7.797206e-01
7.485033e-01
7.172844e-01
6.860642e-01
6.548428e-01
6.236204e-01
5.924714e-01
5.614566e-01
5.313186e-01
5.021691e-01
1.000000e+00
9.675289e-01
9.358891e-01
9.045943e-01
8.733643e-01
8.421506e-01
8.109372e-01
7.797205e-01
7.485033e-01
7.172843e-01
6.860642e-01
6.548428e-01
6.236203e-01
5.924713e-01
5.614565e-01
5.313184e-01
5.021690e-01
1.000000e+00
9.675288e-01
9.358887e-01
9.045942e-01
8.733639e-01
8.421500e-01
8.109373e-01
7.797204e-01
7.485033e-01
7.172843e-01
6.860641e-01
6.548428e-01
6.236203e-01
5.924713e-01
5.614564e-01
5.313182e-01
5.021689e-01
1.000000e+00
9.675286e-01
9.358885e-01
9.045940e-01
8.733637e-01
8.421498e-01
8.109372e-01
7.797203e-01
7.485033e-01
7.172842e-01
6.860641e-01
6.548427e-01
6.236202e-01
5.924712e-01
5.614564e-01
5.313179e-01
5.021688e-01
1.000000e+00
9.675286e-01
9.358887e-01
9.045940e-01
8.733639e-01
8.421502e-01
8.109371e-01
7.797203e-01
7.485031e-01
7.172841e-01
6.860640e-01
6.548426e-01
6.236202e-01
5.924711e-01
5.614563e-01
5.313176e-01
5.021687e-01
1.000000e+00
9.675285e-01
9.358889e-01
9.045940e-01
8.733642e-01
8.421506e-01
8.109369e-01
7.797203e-01
7.485030e-01
7.172840e-01
6.860639e-01
6.548425e-01
6.236201e-01
5.924709e-01
5.614562e-01
5.313173e-01
5.021685e-01
1.000000e+00
9.675284e-01
9.358889e-01
9.045941e-01
8.733643e-01
8.421506e-01
8.109370e-01
7.797203e-01
7.485031e-01
7.172841e-01
6.860639e-01
6.548426e-01
6.236201e-01
5.924709e-01
5.614561e-01
5.313171e-01
5.021685e-01
1.000000e+00
9.675295e-01
9.358891e-01
9.045944e-01
8.733644e-01
8.421507e-01
8.109377e-01
7.797209e-01
7.485038e-01
7.172848e-01
6.860647e-01
6.548434e-01
6.236209e-01
5.924717e-01
5.614570e-01
5.313177e-01
5.021692e-01
1.000000e+00
9.675123e-01
9.358690e-01
9.045744e-01
8.733444e-01
8.421310e-01
8.109186e-01
7.797019e-01
7.484850e-01
7.172662e-01
6.860463e-01
6.548252e-01
6.236030e-01
5.924541e-01
5.614397e-01
5.313010e-01
5.021534e-01
1.000000e+00
9.669835e-01
9.333947e-01
9.009484e-01
8.685537e-01
8.386500e-01
8.086446e-01
7.792223e-01
7.483249e-01
7.172556e-01
6.860375e-01
6.548180e-01
6.235974e-01
5.924502e-01
5.614370e-01
5.313008e-01
5.021526e-01
1.000000e+00
9.670850e-01
9.338283e-01
9.015729e-01
8.693799e-01
8.392482e-01
8.090417e-01
7.793162e-01
7.483652e-01
7.172704e-01
6.860518e-01
6.548320e-01
6.236109e-01
5.924632e-01
5.614496e-01
5.313128e-01
5.021639e-01
1.000000e+00
9.673241e-01
9.349434e-01
9.032003e-01
8.715391e-01
8.408114e-01
8.100666e-01
7.795339e-01
7.484399e-01
7.172778e-01
6.860584e-01
6.548377e-01
6.236159e-01
5.924675e-01
5.614532e-01
5.313159e-01
5.021666e-01
1.000000e+00
9.676328e-01
9.363777e-01
9.052978e-01
8.743145e-01
8.428262e-01
8.113869e-01
7.798150e-01
7.485366e-01
7.172879e-01
6.860674e-01
6.548457e-01
6.236229e-01
5.924737e-01
5.614586e-01
5.313205e-01
5.021707e-01
1.000000e+00
9.679063e-01
9.376479e-01
9.071577e-01
8.767726e-01
8.446130e-01
8.125578e-01
7.800647e-01
7.486225e-01
7.172969e-01
6.860755e-01
6.548529e-01
6.236292e-01
5.924792e-01
5.614634e-01
5.313247e-01
5.021744e-01
1.000000e+00
9.680524e-01
9.383269e-01
9.081513e-01
8.780877e-01
8.455676e-01
8.131843e-01
7.801982e-01
7.486685e-01
7.173017e-01
6.860798e-01
6.548567e-01
6.236326e-01
5.924821e-01
5.614659e-01
5.313269e-01
5.021764e-01
1.000000e+00
9.680218e-01
9.381870e-01
9.079427e-01
8.778184e-01
8.453672e-01
8.130550e-01
7.801702e-01
7.486591e-01
7.173007e-01
6.860789e-01
6.548559e-01
6.236319e-01
5.924816e-01
5.614654e-01
5.313264e-01
5.021760e-01
1.000000e+00
9.678248e-01
9.372753e-01
9.066027e-01
8.760555e-01
8.440797e-01
8.122138e-01
7.799903e-01
7.485975e-01
7.172943e-01
6.860731e-01
6.548508e-01
6.236274e-01
5.924776e-01
5.614620e-01
5.313234e-01
5.021733e-01
1.000000e+00
9.675280e-01
9.358981e-01
9.045846e-01
8.733911e-01
8.421410e-01
8.109447e-01
7.797196e-01
7.485045e-01
7.172846e-01
6.860644e-01
6.548431e-01
6.236206e-01
5.924717e-01
5.614568e-01
5.313188e-01
5.021693e-01
1.000000e+00
9.672316e-01
9.345181e-01
9.025711e-01
8.707195e-01
8.402069e-01
8.096751e-01
7.794497e-01
7.484114e-01
7.172748e-01
6.860557e-01
6.548353e-01
6.236138e-01
5.924656e-01
5.614516e-01
5.313142e-01
5.021653e-01
1.000000e+00
9.670359e-01
9.335995e-01
9.012429e-01
8.689369e-01
8.389315e-01
8.088315e-01
7.792718e-01
7.483494e-01
7.172683e-01
6.860498e-01
6.548301e-01
6.236092e-01
5.924616e-01
5.614481e-01
5.313110e-01
5.021625e-01
1.000000e+00
9.670070e-01
9.334509e-01
9.010488e-01
8.686396e-01
8.387452e-01
8.086958e-01
7.792457e-01
7.483389e-01
7.172671e-01
6.860488e-01
6.548291e-01
6.236083e-01
5.924607e-01
5.614473e-01
5.313102e-01
5.021619e-01
1.000000e+00
9.671543e-01
9.341210e-01
9.020530e-01
8.699251e-01
8.397100e-01
8.093125e-01
7.793797e-01
7.483833e-01
7.172716e-01
6.860527e-01
6.548326e-01
6.236113e-01
5.924633e-01
5.614495e-01
5.313118e-01
5.021634e-01
1.000000e+00
9.674274e-01
9.353825e-01
9.039139e-01
8.723592e-01
8.414978e-01
8.104733e-01
7.796284e-01
7.484675e-01
7.172802e-01
6.860603e-01
6.548393e-01
6.236171e-01
5.924683e-01
5.614538e-01
5.313152e-01
5.021666e-01
1.000000e+00
9.677336e-01
9.368091e-01
9.060012e-01
8.751222e-01
8.435034e-01
8.117871e-01
7.799077e-01
7.485635e-01
7.172900e-01
6.860690e-01
6.548470e-01
6.236238e-01
5.924741e-01
5.614588e-01
5.313192e-01
5.021704e-01
1.000000e+00
9.679713e-01
9.379191e-01
9.076122e-01
8.772817e-01
8.450522e-01
8.128103e-01
7.801242e-01
7.486393e-01
7.172982e-01
6.860765e-01
6.548537e-01
6.236299e-01
5.924794e-01
5.614635e-01
5.313232e-01
5.021741e-01
1.000000e+00
9.680437e-01
9.383195e-01
9.081947e-01
8.780797e-01
8.456091e-01
8.131760e-01
7.801861e-01
7.486491e-01
7.172825e-01
6.860607e-01
6.548378e-01
6.236139e-01
5.924634e-01
5.614477e-01
5.313078e-01
5.021594e-01
1.000000e+00
9.665291e-01
9.312889e-01
8.978674e-01
8.644864e-01
8.356943e-01
8.067132e-01
7.788106e-01
7.481835e-01
7.172408e-01
6.860242e-01
6.548063e-01
6.235870e-01
5.924411e-01
5.614291e-01
5.312941e-01
5.021466e-01
1.000000e+00
9.667076e-01
9.320795e-01
8.990105e-01
8.660020e-01
8.367882e-01
8.074360e-01
7.789735e-01
7.482477e-01
7.172581e-01
6.860408e-01
6.548222e-01
6.236023e-01
5.924557e-01
5.614431e-01
5.313072e-01
5.021589e-01
1.000000e+00
9.671502e-01
9.341407e-01
9.020180e-01
8.699912e-01
8.396754e-01
8.093289e-01
7.793755e-01
7.483861e-01
7.172722e-01
6.860533e-01
6.548332e-01
6.236119e-01
5.924641e-01
5.614502e-01
5.313133e-01
5.021643e-01
1.000000e+00
9.677206e-01
9.367911e-01
9.058938e-01
8.751194e-01
8.433981e-01
8.117684e-01
7.798951e-01
7.485649e-01
7.172908e-01
6.860700e-01
6.548481e-01
6.236250e-01
5.924755e-01
5.614602e-01
5.313219e-01
5.021720e-01
1.000000e+00
9.682259e-01
9.391377e-01
9.093303e-01
8.796620e-01
8.467009e-01
8.139328e-01
7.803568e-01
7.487236e-01
7.173075e-01
6.860850e-01
6.548613e-01
6.236367e-01
5.924857e-01
5.614690e-01
5.313295e-01
5.021788e-01
1.000000e+00
9.684957e-01
9.403921e-01
9.111661e-01
8.820926e-01
8.484660e-01
8.150914e-01
7.806038e-01
7.488087e-01
7.173164e-01
6.860929e-01
6.548684e-01
6.236429e-01
5.924912e-01
5.614738e-01
5.313336e-01
5.021824e-01
1.000000e+00
9.684392e-01
9.401337e-01
9.107808e-01
8.815949e-01
8.480954e-01
8.148523e-01
7.805520e-01
7.487913e-01
7.173146e-01
6.860913e-01
6.548670e-01
6.236417e-01
5.924901e-01
5.614729e-01
5.313328e-01
5.021817e-01
1.000000e+00
9.680754e-01
9.384495e-01
9.083049e-01
8.783366e-01
8.457150e-01
8.132968e-01
7.802191e-01
7.486774e-01
7.173027e-01
6.860807e-01
6.548576e-01
6.236334e-01
5.924829e-01
5.614666e-01
5.313273e-01
5.021769e-01
1.000000e+00
9.675270e-01
9.359049e-01
9.045761e-01
8.734130e-01
8.421319e-01
8.109511e-01
7.797186e-01
7.485056e-01
7.172848e-01
6.860646e-01
6.548433e-01
6.236208e-01
5.924719e-01
5.614570e-01
5.313190e-01
5.021695e-01
1.000000e+00
9.669794e-01
9.333549e-01
9.008555e-01
8.684772e-01
8.385591e-01
8.086060e-01
7.792203e-01
7.483337e-01
7.172668e-01
6.860485e-01
6.548290e-01
6.236082e-01
5.924608e-01
5.614474e-01
5.313107e-01
5.021621e-01
1.000000e+00
9.666177e-01
9.316573e-01
8.984014e-01
8.651840e-01
8.362039e-01
8.070483e-01
7.788922e-01
7.482192e-01
7.172548e-01
6.860377e-01
6.548194e-01
6.235998e-01
5.924534e-01
5.614409e-01
5.313049e-01
5.021571e-01
1.000000e+00
9.665643e-01
9.313828e-01
8.980428e-01
8.646351e-01
8.358602e-01
8.067980e-01
7.788440e-01
7.481999e-01
7.172527e-01
6.860358e-01
6.548176e-01
6.235981e-01
5.924519e-01
5.614396e-01
5.313036e-01
5.021559e-01
1.000000e+00
9.668367e-01
9.326214e-01
8.998986e-01
8.670097e-01
8.376417e-01
8.079366e-01
7.790913e-01
7.482819e-01
7.172611e-01
6.860432e-01
6.548241e-01
6.236038e-01
5.924567e-01
5.614438e-01
5.313069e-01
5.021590e-01
1.000000e+00
9.673416e-01
9.349527e-01
9.033371e-01
8.715069e-01
8.409439e-01
8.100805e-01
7.795505e-01
7.484376e-01
7.172769e-01
6.860573e-01
6.548365e-01
6.236146e-01
5.924660e-01
5.614518e-01
5.313135e-01
5.021650e-01
1.000000e+00
9.679074e-01
9.375885e-01
9.071938e-01
8.766122e-01
8.446499e-01
8.125082e-01
7.800666e-01
7.486148e-01
7.172949e-01
6.860734e-01
6.548507e-01
6.236270e-01
5.924767e-01
5.614610e-01
5.313211e-01
5.021719e-01
1.000000e+00
9.683456e-01
9.396388e-01
9.101702e-01
8.806027e-01
8.475127e-01
8.143994e-01
7.804666e-01
7.487544e-01
7.173096e-01
6.860865e-01
6.548624e-01
6.236374e-01
5.924859e-01
5.614690e-01
5.313279e-01
5.021782e-01
1.000000e+00
9.684939e-01
9.403953e-01
9.112634e-01
8.820945e-01
8.485589e-01
8.150921e-01
7.805973e-01
7.487885e-01
7.172963e-01
6.860729e-01
6.548484e-01
6.236231e-01
5.924714e-01
5.614545e-01
5.313135e-01
5.021645e-01
1.000000e+00
9.662254e-01
9.298810e-01
8.958085e-01
8.617689e-01
8.337200e-01
8.054239e-01
7.785359e-01
7.480892e-01
7.172309e-01
6.860153e-01
6.547984e-01
6.235801e-01
5.924351e-01
5.614239e-01
5.312896e-01
5.021426e-01
1.000000e+00
9.664553e-01
9.309104e-01
8.972982e-01
8.637450e-01
8.351448e-01
8.063639e-01
7.787447e-01
7.481694e-01
7.172499e-01
6.860334e-01
6.548157e-01
6.235966e-01
5.924507e-01
5.614387e-01
5.313035e-01
5.021556e-01
1.000000e+00
9.670339e-01
9.336040e-01
9.012278e-01
8.689567e-01
8.389162e-01
8.088362e-01
7.792697e-01
7.483503e-01
7.172684e-01
6.860500e-01
6.548303e-01
6.236093e-01
5.924618e-01
5.614483e-01
5.313116e-01
5.021628e-01
1.000000e+00
9.677792e-01
9.370670e-01
9.062919e-01
8.756569e-01
8.437799e-01
8.120233e-01
7.799485e-01
7.485838e-01
7.172928e-01
6.860718e-01
6.548497e-01
6.236264e-01
5.924767e-01
5.614612e-01
5.313228e-01
5.021728e-01
1.000000e+00
9.684393e-01
9.401326e-01
9.107818e-01
8.815926e-01
8.480961e-01
8.148522e-01
7.805521e-01
7.487913e-01
7.173145e-01
6.860913e-01
6.548669e-01
6.236417e-01
5.924901e-01
5.614728e-01
5.313328e-01
5.021817e-01
1.000000e+00
9.687917e-01
9.417712e-01
9.131804e-01
8.847688e-01
8.504033e-01
8.163669e-01
7.808752e-01
7.489026e-01
7.173262e-01
6.861017e-01
6.548762e-01
6.236498e-01
5.924972e-01
5.614790e-01
5.313381e-01
5.021865e-01
1.000000e+00
9.687179e-01
9.414336e-01
9.126770e-01
8.841184e-01
8.499189e-01
8.160544e-01
7.808074e-01
7.488798e-01
7.173238e-01
6.860996e-01
6.548744e-01
6.236482e-01
5.924958e-01
5.614778e-01
5.313370e-01
5.021856e-01
1.000000e+00
9.682427e-01
9.392336e-01
9.094422e-01
8.798607e-01
8.468076e-01
8.140209e-01
7.803721e-01
7.487309e-01
7.173083e-01
6.860858e-01
6.548621e-01
6.236374e-01
5.924864e-01
5.614696e-01
5.313299e-01
5.021792e-01
1.000000e+00
9.675264e-01
9.359091e-01
9.045702e-01
8.734274e-01
8.421254e-01
8.109555e-01
7.797179e-01
7.485063e-01
7.172849e-01
6.860648e-01
6.548435e-01
6.236210e-01
5.924720e-01
5.614572e-01
5.313192e-01
5.021697e-01
1.000000e+00
9.668108e-01
9.325772e-01
8.997090e-01
8.669787e-01
8.374580e-01
8.078921e-01
7.790671e-01
7.482819e-01
7.172614e-01
6.860437e-01
6.548248e-01
6.236045e-01
5.924576e-01
5.614447e-01
5.313083e-01
5.021600e-01
1.000000e+00
9.663381e-01
9.303588e-01
8.965026e-01
8.626766e-01
8.343820e-01
8.058579e-01
7.786388e-01
7.481324e-01
7.172457e-01
6.860296e-01
6.548122e-01
6.235935e-01
5.924479e-01
5.614362e-01
5.313009e-01
5.021534e-01
1.000000e+00
9.662683e-01
9.300001e-01
8.960342e-01
8.619595e-01
8.339332e-01
8.055312e-01
7.785760e-01
7.481072e-01
7.172430e-01
6.860271e-01
6.548100e-01
6.235914e-01
5.924460e-01
5.614345e-01
5.312992e-01
5.021520e-01
1.000000e+00
9.666244e-01
9.316188e-01
8.984589e-01
8.650618e-01
8.362599e-01
8.070179e-01
7.788988e-01
7.482143e-01
7.172540e-01
6.860369e-01
6.548185e-01
6.235988e-01
5.924523e-01
5.614399e-01
5.313036e-01
5.021560e-01
1.000000e+00
9.672842e-01
9.346652e-01
9.029516e-01
8.709371e-01
8.405734e-01
8.098181e-01
7.794984e-01
7.484176e-01
7.172747e-01
6.860553e-01
6.548347e-01
6.236130e-01
5.924645e-01
5.614504e-01
5.313123e-01
5.021639e-01
1.000000e+00
9.680234e-01
9.381089e-01
9.079906e-01
8.776076e-01
8.454158e-01
8.129903e-01
7.801727e-01
7.486491e-01
7.172983e-01
6.860762e-01
6.548532e-01
6.236291e-01
5.924785e-01
5.614625e-01
5.313223e-01
5.021730e-01
1.000000e+00
9.685955e-01
9.407872e-01
9.118792e-01
8.828218e-01
8.491570e-01
8.154621e-01
7.806956e-01