<?xml version="1.0"?>
<VTKFile type="StructuredGrid" version="0.1">
  <StructuredGrid WholeExtent="16 32 0 16 0 16">
    <Piece Extent="16 32 0 16 0 16">
      <PointData Scalars="temperature" Vectors="velocity">
        <DataArray type="Float32" Name="temperature" format="ascii">
5.021782e-01
4.687425e-01
4.366778e-01
4.052807e-01
3.740214e-01
3.427864e-01
3.115510e-01
2.803152e-01
2.490791e-01
2.178426e-01
1.866058e-01
1.553687e-01
1.241312e-01
9.289694e-02
6.169063e-02
3.062661e-02
0.000000e+00
5.021851e-01
4.687492e-01
4.366844e-01
4.052875e-01
3.740284e-01
3.427935e-01
3.115582e-01
2.803225e-01
2.490865e-01
2.178501e-01
1.866133e-01
1.553762e-01
1.241387e-01
9.290445e-02
6.169805e-02
3.063290e-02
0.000000e+00
5.021761e-01
4.687412e-01
4.366775e-01
4.052814e-01
3.740231e-01
3.427888e-01
3.115541e-01
2.803190e-01
2.490834e-01
2.178474e-01
1.866110e-01
1.553742e-01
1.241370e-01
9.290305e-02
6.169687e-02
3.063188e-02
0.000000e+00
5.021653e-01
4.687316e-01
4.366693e-01
4.052744e-01
3.740170e-01
3.427836e-01
3.115497e-01
2.803152e-01
2.490802e-01
2.178447e-01
1.866088e-01
1.553724e-01
1.241356e-01
9.290205e-02
6.169622e-02
3.063162e-02
0.000000e+00
5.021557e-01
4.687231e-01
4.366620e-01
4.052682e-01
3.740117e-01
3.427791e-01
3.115458e-01
2.803119e-01
2.490774e-01
2.178424e-01
1.866069e-01
1.553709e-01
1.241345e-01
9.290119e-02
6.169567e-02
3.063135e-02
0.000000e+00
5.021505e-01
4.687185e-01
4.366581e-01
4.052648e-01
3.740088e-01
3.427766e-01
3.115437e-01
2.803101e-01
2.490759e-01
2.178411e-01
1.866059e-01
1.553701e-01
1.241338e-01
9.290072e-02
6.169536e-02
3.063120e-02
0.000000e+00
5.021514e-01
4.687194e-01
4.366588e-01
4.052654e-01
3.740093e-01
3.427770e-01
3.115441e-01
2.803104e-01
2.490762e-01
2.178414e-01
1.866060e-01
1.553702e-01
1.241339e-01
9.290080e-02
6.169541e-02
3.063122e-02
0.000000e+00
5.021582e-01
4.687253e-01
4.366639e-01
4.052698e-01
3.740131e-01
3.427803e-01
3.115468e-01
2.803128e-01
2.490781e-01
2.178430e-01
1.866074e-01
1.553713e-01
1.241348e-01
9.290140e-02
6.169580e-02
3.063140e-02
0.000000e+00
5.021685e-01
4.687344e-01
4.366717e-01
4.052765e-01
3.740188e-01
3.427852e-01
3.115510e-01
2.803163e-01
2.490811e-01
2.178455e-01
1.866094e-01
1.553729e-01
1.241360e-01
9.290232e-02
6.169638e-02
3.063167e-02
0.000000e+00
5.021788e-01
4.687435e-01
4.366795e-01
4.052832e-01
3.740246e-01
3.427901e-01
3.115552e-01
2.803199e-01
2.490842e-01
2.178480e-01
1.866115e-01
1.553746e-01
1.241373e-01
9.290324e-02
6.169697e-02
3.063194e-02
0.000000e+00
5.021858e-01
4.687496e-01
4.366848e-01
4.052877e-01
3.740285e-01
3.427935e-01
3.115581e-01
2.803223e-01
2.490862e-01
2.178497e-01
1.866129e-01
1.553757e-01
1.241382e-01
9.290387e-02
6.169736e-02
3.063211e-02
0.000000e+00
5.021871e-01
4.687507e-01
4.366859e-01
4.052887e-01
3.740293e-01
3.427942e-01
3.115587e-01
2.803229e-01
2.490867e-01
2.178501e-01
1.866132e-01
1.553760e-01
1.241384e-01
9.290399e-02
6.169743e-02
3.063212e-02
0.000000e+00
5.021825e-01
4.687466e-01
4.366825e-01
4.052858e-01
3.740269e-01
3.427922e-01
3.115570e-01
2.803214e-01
2.490854e-01
2.178491e-01
1.866124e-01
1.553753e-01
1.241378e-01
9.290358e-02
6.169715e-02
3.063196e-02
0.000000e+00
5.021736e-01
4.687386e-01
4.366759e-01
4.052802e-01
3.740221e-01
3.427881e-01
3.115535e-01
2.803185e-01
2.490830e-01
2.178470e-01
1.866107e-01
1.553739e-01
1.241367e-01
9.290279e-02
6.169661e-02
3.063168e-02
0.000000e+00
5.021636e-01
4.687297e-01
4.366684e-01
4.052739e-01
3.740167e-01
3.427835e-01
3.115496e-01
2.803151e-01
2.490802e-01
2.178447e-01
1.866087e-01
1.553724e-01
1.241356e-01
9.290192e-02
6.169603e-02
3.063129e-02
0.000000e+00
5.021567e-01
4.687236e-01
4.366635e-01
4.052698e-01
3.740135e-01
3.427808e-01
3.115475e-01
2.803135e-01
2.490789e-01
2.178438e-01
1.866082e-01
1.553721e-01
1.241356e-01
9.290221e-02
6.169662e-02
3.063224e-02
0.000000e+00
5.021379e-01
4.687061e-01
4.366471e-01
4.052541e-01
3.739982e-01
3.427659e-01
3.115329e-01
2.802993e-01
2.490651e-01
2.178303e-01
1.865950e-01
1.553591e-01
1.241229e-01
9.288973e-02
6.168454e-02
3.062216e-02
0.000000e+00
5.021768e-01
4.687413e-01
4.366767e-01
4.052798e-01
3.740206e-01
3.427857e-01
3.115504e-01
2.803147e-01
2.490787e-01
2.178423e-01
1.866056e-01
1.553685e-01
1.241310e-01
9.289681e-02
6.169055e-02
3.062657e-02
0.000000e+00
5.021840e-01
4.687482e-01
4.366836e-01
4.052867e-01
3.740277e-01
3.427929e-01
3.115577e-01
2.803221e-01
2.490861e-01
2.178498e-01
1.866131e-01
1.553760e-01
1.241385e-01
9.290435e-02
6.169799e-02
3.063287e-02
0.000000e+00
5.021756e-01
4.687408e-01
4.366771e-01
4.052811e-01
3.740228e-01
3.427886e-01
3.115539e-01
2.803188e-01
2.490832e-01
2.178473e-01
1.866109e-01
1.553741e-01
1.241370e-01
9.290301e-02
6.169685e-02
3.063187e-02
0.000000e+00
5.021656e-01
4.687319e-01
4.366695e-01
4.052746e-01
3.740172e-01
3.427838e-01
3.115498e-01
2.803153e-01
2.490803e-01
2.178448e-01
1.866089e-01
1.553725e-01
1.241357e-01
9.290209e-02
6.169625e-02
3.063163e-02
0.000000e+00
5.021567e-01
4.687241e-01
4.366628e-01
4.052688e-01
3.740123e-01
3.427796e-01
3.115462e-01
2.803123e-01
2.490777e-01
2.178427e-01
1.866071e-01
1.553711e-01
1.241346e-01
9.290129e-02
6.169573e-02
3.063138e-02
0.000000e+00
5.021519e-01
4.687198e-01
4.366592e-01
4.052657e-01
3.740096e-01
3.427773e-01
3.115443e-01
2.803106e-01
2.490763e-01
2.178415e-01
1.866061e-01
1.553703e-01
1.241340e-01
9.290085e-02
6.169545e-02
3.063124e-02
0.000000e+00
5.021528e-01
4.687206e-01
4.366599e-01
4.052663e-01
3.740101e-01
3.427777e-01
3.115446e-01
2.803109e-01
2.490766e-01
2.178417e-01
1.866063e-01
1.553704e-01
1.241341e-01
9.290092e-02
6.169549e-02
3.063126e-02
0.000000e+00
5.021591e-01
4.687261e-01
4.366646e-01
4.052704e-01
3.740136e-01
3.427807e-01
3.115472e-01
2.803130e-01
2.490784e-01
2.178432e-01
1.866075e-01
1.553714e-01
1.241349e-01
9.290148e-02
6.169585e-02
3.063142e-02
0.000000e+00
5.021685e-01
4.687344e-01
4.366717e-01
4.052765e-01
3.740188e-01
3.427852e-01
3.115510e-01
2.803163e-01
2.490812e-01
2.178455e-01
1.866094e-01
1.553729e-01
1.241360e-01
9.290232e-02
6.169639e-02
3.063167e-02
0.000000e+00
5.021781e-01
4.687428e-01
4.366790e-01
4.052827e-01
3.740242e-01
3.427898e-01
3.115549e-01
2.803196e-01
2.490839e-01
2.178478e-01
1.866113e-01
1.553745e-01
1.241372e-01
9.290317e-02
6.169693e-02
3.063192e-02
0.000000e+00
5.021845e-01
4.687484e-01
4.366838e-01
4.052869e-01
3.740278e-01
3.427929e-01
3.115576e-01
2.803219e-01
2.490858e-01
2.178494e-01
1.866126e-01
1.553755e-01
1.241380e-01
9.290375e-02
6.169729e-02
3.063208e-02
0.000000e+00
5.021857e-01
4.687495e-01
4.366848e-01
4.052877e-01
3.740286e-01
3.427935e-01
3.115582e-01
2.803224e-01
2.490863e-01
2.178498e-01
1.866129e-01
1.553757e-01
1.241382e-01
9.290386e-02
6.169735e-02
3.063208e-02
0.000000e+00
5.021815e-01
4.687456e-01
4.366817e-01
4.052851e-01
3.740263e-01
3.427916e-01
3.115565e-01
2.803210e-01
2.490851e-01
2.178488e-01
1.866121e-01
1.553751e-01
1.241377e-01
9.290348e-02
6.169708e-02
3.063192e-02
0.000000e+00
5.021732e-01
4.687383e-01
4.366755e-01
4.052799e-01
3.740219e-01
3.427879e-01
3.115533e-01
2.803183e-01
2.490828e-01
2.178469e-01
1.866106e-01
1.553738e-01
1.241367e-01
9.290274e-02
6.169658e-02
3.063166e-02
0.000000e+00
5.021640e-01
4.687300e-01
4.366687e-01
4.052741e-01
3.740169e-01
3.427836e-01
3.115497e-01
2.803152e-01
2.490802e-01
2.178447e-01
1.866088e-01
1.553724e-01
1.241356e-01
9.290194e-02
6.169604e-02
3.063130e-02
0.000000e+00
5.021576e-01
4.687244e-01
4.366642e-01
4.052704e-01
3.740140e-01
3.427812e-01
3.115478e-01
2.803138e-01
2.490792e-01
2.178440e-01
1.866084e-01
1.553722e-01
1.241357e-01
9.290228e-02
6.169667e-02
3.063226e-02
0.000000e+00
5.021391e-01
4.687071e-01
4.366479e-01
4.052548e-01
3.739988e-01
3.427664e-01
3.115334e-01
2.802997e-01
2.490654e-01
2.178305e-01
1.865952e-01
1.553593e-01
1.241230e-01
9.288982e-02
6.168460e-02
3.062219e-02
0.000000e+00
5.021728e-01
4.687378e-01
4.366737e-01
4.052772e-01
3.740184e-01
3.427838e-01
3.115488e-01
2.803134e-01
2.490776e-01
2.178414e-01
1.866048e-01
1.553678e-01
1.241305e-01
9.289646e-02
6.169032e-02
3.062646e-02
0.000000e+00
5.021807e-01
4.687453e-01
4.366811e-01
4.052846e-01
3.740259e-01
3.427914e-01
3.115564e-01
2.803210e-01
2.490852e-01
2.178490e-01
1.866124e-01
1.553755e-01
1.241382e-01
9.290406e-02
6.169780e-02
3.063277e-02
0.000000e+00
5.021741e-01
4.687395e-01
4.366760e-01
4.052801e-01
3.740220e-01
3.427879e-01
3.115533e-01
2.803183e-01
2.490828e-01
2.178469e-01
1.866106e-01
1.553739e-01
1.241368e-01
9.290288e-02
6.169677e-02
3.063183e-02
0.000000e+00
5.021664e-01
4.687327e-01
4.366702e-01
4.052752e-01
3.740177e-01
3.427842e-01
3.115502e-01
2.803156e-01
2.490806e-01
2.178450e-01
1.866091e-01
1.553726e-01
1.241358e-01
9.290217e-02
6.169630e-02
3.063166e-02
0.000000e+00
5.021597e-01
4.687267e-01
4.366651e-01
4.052708e-01
3.740139e-01
3.427810e-01
3.115474e-01
2.803133e-01
2.490786e-01
2.178434e-01
1.866077e-01
1.553716e-01
1.241350e-01
9.290156e-02
6.169591e-02
3.063147e-02
0.000000e+00
5.021560e-01
4.687234e-01
4.366623e-01
4.052684e-01
3.740119e-01
3.427793e-01
3.115459e-01
2.803120e-01
2.490775e-01
2.178425e-01
1.866070e-01
1.553710e-01
1.241345e-01
9.290123e-02
6.169569e-02
3.063136e-02
0.000000e+00
5.021567e-01
4.687240e-01
4.366628e-01
4.052688e-01
3.740123e-01
3.427796e-01
3.115462e-01
2.803123e-01
2.490777e-01
2.178427e-01
1.866071e-01
1.553711e-01
1.241346e-01
9.290128e-02
6.169572e-02
3.063137e-02
0.000000e+00
5.021614e-01
4.687282e-01
4.366664e-01
4.052719e-01
3.740149e-01
3.427818e-01
3.115481e-01
2.803139e-01
2.490791e-01
2.178438e-01
1.866080e-01
1.553718e-01
1.241352e-01
9.290170e-02
6.169599e-02
3.063149e-02
0.000000e+00
5.021687e-01
4.687346e-01
4.366719e-01
4.052766e-01
3.740189e-01
3.427853e-01
3.115511e-01
2.803164e-01
2.490812e-01
2.178456e-01
1.866095e-01
1.553730e-01
1.241361e-01
9.290234e-02
6.169640e-02
3.063168e-02
0.000000e+00
5.021760e-01
4.687409e-01
4.366774e-01
4.052813e-01
3.740230e-01
3.427888e-01
3.115541e-01
2.803189e-01
2.490833e-01
2.178473e-01
1.866109e-01
1.553741e-01
1.241370e-01
9.290299e-02
6.169681e-02
3.063186e-02
0.000000e+00
5.021808e-01
4.687452e-01
4.366811e-01
4.052845e-01
3.740258e-01
3.427911e-01
3.115561e-01
2.803206e-01
2.490848e-01
2.178485e-01
1.866119e-01
1.553749e-01
1.241376e-01
9.290342e-02
6.169708e-02
3.063197e-02
0.000000e+00
5.021818e-01
4.687459e-01
4.366818e-01
4.052852e-01
3.740263e-01
3.427916e-01
3.115565e-01
2.803210e-01
2.490851e-01
2.178488e-01
1.866121e-01
1.553751e-01
1.241377e-01
9.290350e-02
6.169711e-02
3.063196e-02
0.000000e+00
5.021785e-01
4.687429e-01
4.366794e-01
4.052831e-01
3.740246e-01
3.427902e-01
3.115553e-01
2.803199e-01
2.490842e-01
2.178481e-01
1.866115e-01
1.553746e-01
1.241373e-01
9.290319e-02
6.169689e-02
3.063183e-02
0.000000e+00
5.021721e-01
4.687373e-01
4.366747e-01
4.052791e-01
3.740212e-01
3.427873e-01
3.115528e-01
2.803178e-01
2.490824e-01
2.178466e-01
1.866103e-01
1.553736e-01
1.241365e-01
9.290262e-02
6.169649e-02
3.063162e-02
0.000000e+00
5.021650e-01
4.687309e-01
4.366694e-01
4.052747e-01
3.740174e-01
3.427840e-01
3.115500e-01
2.803155e-01
2.490805e-01
2.178449e-01
1.866089e-01
1.553725e-01
1.241357e-01
9.290200e-02
6.169608e-02
3.063131e-02
0.000000e+00
5.021603e-01
4.687268e-01
4.366661e-01
4.052721e-01
3.740154e-01
3.427824e-01
3.115488e-01
2.803146e-01
2.490799e-01
2.178446e-01
1.866088e-01
1.553726e-01
1.241360e-01
9.290248e-02
6.169680e-02
3.063233e-02
0.000000e+00
5.021424e-01
4.687100e-01
4.366504e-01
4.052569e-01
3.740005e-01
3.427679e-01
3.115346e-01
2.803007e-01
2.490663e-01
2.178313e-01
1.865957e-01
1.553598e-01
1.241233e-01
9.289009e-02
6.168477e-02
3.062227e-02
0.000000e+00
5.021668e-01
4.687325e-01
4.366692e-01
4.052733e-01
3.740151e-01
3.427810e-01
3.115464e-01
2.803113e-01
2.490758e-01
2.178399e-01
1.866036e-01
1.553669e-01
1.241298e-01
9.289593e-02
6.168998e-02
3.062629e-02
0.000000e+00
5.021757e-01
4.687409e-01
4.366774e-01
4.052814e-01
3.740232e-01
3.427890e-01
3.115544e-01
2.803193e-01
2.490838e-01
2.178478e-01
1.866115e-01
1.553747e-01
1.241375e-01
9.290362e-02
6.169751e-02
3.063263e-02
0.000000e+00
5.021719e-01
4.687375e-01
4.366743e-01
4.052787e-01
3.740208e-01
3.427869e-01
3.115525e-01
2.803176e-01
2.490822e-01
2.178464e-01
1.866102e-01
1.553735e-01
1.241365e-01
9.290269e-02
6.169664e-02
3.063177e-02
0.000000e+00
5.021677e-01
4.687338e-01
4.366712e-01
4.052760e-01
3.740184e-01
3.427849e-01
3.115507e-01
2.803161e-01
2.490810e-01
2.178454e-01
1.866093e-01
1.553729e-01
1.241360e-01
9.290230e-02
6.169638e-02
3.063170e-02
0.000000e+00
5.021641e-01
4.687306e-01
4.366684e-01
4.052736e-01
3.740164e-01
3.427831e-01
3.115493e-01
2.803148e-01
2.490799e-01
2.178445e-01
1.866086e-01
1.553723e-01
1.241355e-01
9.290197e-02
6.169617e-02
3.063159e-02
0.000000e+00
5.021621e-01
4.687288e-01
4.366669e-01
4.052724e-01
3.740153e-01
3.427822e-01
3.115484e-01
2.803142e-01
2.490793e-01
2.178440e-01
1.866082e-01
1.553720e-01
1.241353e-01
9.290179e-02
6.169606e-02
3.063153e-02
0.000000e+00
5.021624e-01
4.687291e-01
4.366672e-01
4.052726e-01
3.740155e-01
3.427823e-01
3.115486e-01
2.803143e-01
2.490794e-01
2.178441e-01
1.866083e-01
1.553720e-01
1.241353e-01
9.290181e-02
6.169607e-02
3.063154e-02
0.000000e+00
5.021650e-01
4.687314e-01
4.366691e-01
4.052742e-01
3.740169e-01
3.427836e-01
3.115496e-01
2.803152e-01
2.490802e-01
2.178447e-01
1.866088e-01
1.553724e-01
1.241356e-01
9.290203e-02
6.169621e-02
3.063160e-02
0.000000e+00
5.021689e-01
4.687348e-01
4.366720e-01
4.052768e-01
3.740191e-01
3.427854e-01
3.115512e-01
2.803165e-01
2.490813e-01
2.178456e-01
1.866095e-01
1.553730e-01
1.241361e-01
9.290237e-02
6.169642e-02
3.063169e-02
0.000000e+00
5.021728e-01
4.687381e-01
4.366750e-01
4.052793e-01
3.740213e-01
3.427873e-01
3.115528e-01
2.803178e-01
2.490824e-01
2.178466e-01
1.866103e-01
1.553736e-01
1.241366e-01
9.290271e-02
6.169663e-02
3.063177e-02
0.000000e+00
5.021754e-01
4.687404e-01
4.366770e-01
4.052810e-01
3.740227e-01
3.427885e-01
3.115539e-01
2.803188e-01
2.490832e-01
2.178472e-01
1.866108e-01
1.553741e-01
1.241369e-01
9.290293e-02
6.169676e-02
3.063182e-02
0.000000e+00
5.021758e-01
4.687407e-01
4.366773e-01
4.052813e-01
3.740230e-01
3.427888e-01
3.115541e-01
2.803189e-01
2.490834e-01
2.178473e-01
1.866109e-01
1.553741e-01
1.241369e-01
9.290295e-02
6.169676e-02
3.063179e-02
0.000000e+00
5.021740e-01
4.687390e-01
4.366760e-01
4.052802e-01
3.740221e-01
3.427880e-01
3.115534e-01
2.803183e-01
2.490828e-01
2.178469e-01
1.866106e-01
1.553738e-01
1.241367e-01
9.290277e-02
6.169662e-02
3.063170e-02
0.000000e+00
5.021705e-01
4.687358e-01
4.366734e-01
4.052780e-01
3.740202e-01
3.427864e-01
3.115520e-01
2.803172e-01
2.490819e-01
2.178461e-01
1.866099e-01
1.553733e-01
1.241363e-01
9.290243e-02
6.169638e-02
3.063156e-02
0.000000e+00
5.021666e-01
4.687322e-01
4.366705e-01
4.052756e-01
3.740181e-01
3.427846e-01
3.115505e-01
2.803159e-01
2.490808e-01
2.178452e-01
1.866092e-01
1.553727e-01
1.241358e-01
9.290210e-02
6.169615e-02
3.063135e-02
0.000000e+00
5.021644e-01
4.687303e-01
4.366691e-01
4.052746e-01
3.740175e-01
3.427842e-01
3.115503e-01
2.803159e-01
2.490809e-01
2.178455e-01
1.866095e-01
1.553732e-01
1.241364e-01
9.290280e-02
6.169701e-02
3.063243e-02
0.000000e+00
5.021475e-01
4.687144e-01
4.366540e-01
4.052600e-01
3.740032e-01
3.427701e-01
3.115365e-01
2.803023e-01
2.490676e-01
2.178323e-01
1.865966e-01
1.553605e-01
1.241239e-01
9.289048e-02
6.168502e-02
3.062240e-02
0.000000e+00
5.021597e-01
4.687262e-01
4.366639e-01
4.052688e-01
3.740112e-01
3.427776e-01
3.115435e-01
2.803089e-01
2.490738e-01
2.178382e-01
1.866022e-01
1.553658e-01
1.241289e-01
9.289530e-02
6.168957e-02
3.062609e-02
0.000000e+00
5.021698e-01
4.687357e-01
4.366729e-01
4.052776e-01
3.740199e-01
3.427863e-01
3.115520e-01
2.803173e-01
2.490821e-01
2.178464e-01
1.866103e-01
1.553738e-01
1.241368e-01
9.290309e-02
6.169717e-02
3.063247e-02
0.000000e+00
5.021692e-01
4.687351e-01
4.366723e-01
4.052770e-01
3.740193e-01
3.427856e-01
3.115514e-01
2.803167e-01
2.490815e-01
2.178458e-01
1.866097e-01
1.553731e-01
1.241362e-01
9.290246e-02
6.169649e-02
3.063169e-02
0.000000e+00
5.021692e-01
4.687352e-01
4.366723e-01
4.052770e-01
3.740193e-01
3.427856e-01
3.115514e-01
2.803167e-01
2.490814e-01
2.178458e-01
1.866097e-01
1.553731e-01
1.241362e-01
9.290244e-02
6.169648e-02
3.063175e-02
0.000000e+00
5.021692e-01
4.687352e-01
4.366723e-01
4.052770e-01
3.740193e-01
3.427856e-01
3.115514e-01
2.803167e-01
2.490815e-01
2.178458e-01
1.866097e-01
1.553731e-01
1.241362e-01
9.290245e-02
6.169649e-02
3.063175e-02
0.000000e+00
5.021692e-01
4.687352e-01
4.366723e-01
4.052770e-01
3.740193e-01
3.427856e-01
3.115514e-01
2.803167e-01
2.490814e-01
2.178458e-01
1.866097e-01
1.553731e-01
1.241362e-01
9.290245e-02
6.169649e-02
3.063175e-02
0.000000e+00
5.021692e-01
4.687352e-01
4.366723e-01
4.052770e-01
3.740193e-01
3.427856e-01
3.115514e-01
2.803167e-01
2.490814e-01
2.178458e-01
1.866097e-01
1.553731e-01
1.241362e-01
9.290244e-02
6.169648e-02
3.063174e-02
0.000000e+00
5.021692e-01
4.687351e-01
4.366723e-01
4.052770e-01
3.740193e-01
3.427856e-01
3.115514e-01
2.803166e-01
2.490814e-01
2.178458e-01
1.866096e-01
1.553731e-01
1.241362e-01
9.290243e-02
6.169646e-02
3.063172e-02
0.000000e+00
5.021691e-01
4.687350e-01
4.366722e-01
4.052769e-01
3.740192e-01
3.427856e-01
3.115513e-01
2.803166e-01
2.490814e-01
2.178457e-01
1.866096e-01
1.553731e-01
1.241361e-01
9.290241e-02
6.169644e-02
3.063170e-02
0.000000e+00
5.021690e-01
4.687348e-01
4.366722e-01
4.052769e-01
3.740192e-01
3.427855e-01
3.115513e-01
2.803166e-01
2.490814e-01
2.178457e-01
1.866096e-01
1.553731e-01
1.241361e-01
9.290238e-02
6.169641e-02
3.063167e-02
0.000000e+00
5.021689e-01
4.687347e-01
4.366721e-01
4.052769e-01
3.740192e-01
3.427855e-01
3.115513e-01
2.803165e-01
2.490813e-01
2.178457e-01
1.866096e-01
1.553730e-01
1.241361e-01
9.290235e-02
6.169638e-02
3.063163e-02
0.000000e+00
5.021688e-01
4.687345e-01
4.366720e-01
4.052768e-01
3.740191e-01
3.427855e-01
3.115512e-01
2.803165e-01
2.490813e-01
2.178456e-01
1.866095e-01
1.553730e-01
1.241361e-01
9.290231e-02
6.169634e-02
3.063159e-02
0.000000e+00
5.021687e-01
4.687343e-01
4.366719e-01
4.052767e-01
3.740191e-01
3.427854e-01
3.115512e-01
2.803165e-01
2.490813e-01
2.178456e-01
1.866095e-01
1.553729e-01
1.241360e-01
9.290227e-02
6.169629e-02
3.063154e-02
0.000000e+00
5.021685e-01
4.687340e-01
4.366718e-01
4.052767e-01
3.740190e-01
3.427853e-01
3.115511e-01
2.803164e-01
2.490812e-01
2.178455e-01
1.866094e-01
1.553729e-01
1.241360e-01
9.290222e-02
6.169624e-02
3.063149e-02
0.000000e+00
5.021685e-01
4.687338e-01
4.366718e-01
4.052766e-01
3.740190e-01
3.427853e-01
3.115511e-01
2.803164e-01
2.490812e-01
2.178455e-01
1.866094e-01
1.553729e-01
1.241360e-01
9.290221e-02
6.169622e-02
3.063138e-02
0.000000e+00
5.021692e-01
4.687345e-01
4.366726e-01
4.052775e-01
3.740200e-01
3.427863e-01
3.115521e-01
2.803173e-01
2.490821e-01
2.178465e-01
1.866104e-01
1.553738e-01
1.241369e-01
9.290317e-02
6.169725e-02
3.063254e-02
0.000000e+00
5.021534e-01
4.687196e-01
4.366584e-01
4.052636e-01
3.740063e-01
3.427728e-01
3.115387e-01
2.803042e-01
2.490691e-01
2.178336e-01
1.865977e-01
1.553613e-01
1.241245e-01
9.289095e-02
6.168533e-02
3.062255e-02
0.000000e+00
5.021526e-01
4.687199e-01
4.366585e-01
4.052642e-01
3.740073e-01
3.427743e-01
3.115407e-01
2.803065e-01
2.490718e-01
2.178365e-01
1.866008e-01
1.553647e-01
1.241281e-01
9.289467e-02
6.168916e-02
3.062589e-02
0.000000e+00
5.021639e-01
4.687305e-01
4.366685e-01
4.052739e-01
3.740167e-01
3.427835e-01
3.115497e-01
2.803153e-01
2.490804e-01
2.178450e-01
1.866092e-01
1.553728e-01
1.241361e-01
9.290258e-02
6.169683e-02
3.063230e-02
0.000000e+00
5.021666e-01
4.687328e-01
4.366704e-01
4.052753e-01
3.740179e-01
3.427844e-01
3.115504e-01
2.803158e-01
2.490807e-01
2.178452e-01
1.866092e-01
1.553727e-01
1.241359e-01
9.290223e-02
6.169634e-02
3.063162e-02
0.000000e+00
5.021707e-01
4.687365e-01
4.366735e-01
4.052780e-01
3.740201e-01
3.427863e-01
3.115520e-01
2.803172e-01
2.490819e-01
2.178462e-01
1.866100e-01
1.553734e-01
1.241364e-01
9.290259e-02
6.169657e-02
3.063179e-02
0.000000e+00
5.021744e-01
4.687398e-01
4.366763e-01
4.052804e-01
3.740222e-01
3.427881e-01
3.115535e-01
2.803185e-01
2.490830e-01
2.178471e-01
1.866107e-01
1.553740e-01
1.241369e-01
9.290293e-02
6.169680e-02
3.063190e-02
0.000000e+00
5.021764e-01
4.687415e-01
4.366777e-01
4.052816e-01
3.740233e-01
3.427890e-01
3.115543e-01
2.803192e-01
2.490836e-01
2.178475e-01
1.866111e-01
1.553743e-01
1.241371e-01
9.290312e-02
6.169692e-02
3.063196e-02
0.000000e+00
5.021760e-01
4.687412e-01
4.366774e-01
4.052814e-01
3.740231e-01
3.427889e-01
3.115542e-01
2.803190e-01
2.490835e-01
2.178475e-01
1.866110e-01
1.553742e-01
1.241370e-01
9.290308e-02
6.169689e-02
3.063194e-02
0.000000e+00
5.021733e-01
4.687388e-01
4.366755e-01
4.052797e-01
3.740216e-01
3.427876e-01
3.115531e-01
2.803181e-01
2.490827e-01
2.178468e-01
1.866105e-01
1.553738e-01
1.241367e-01
9.290282e-02
6.169672e-02
3.063185e-02
0.000000e+00
5.021693e-01
4.687352e-01
4.366724e-01
4.052771e-01
3.740194e-01
3.427857e-01
3.115515e-01
2.803167e-01
2.490815e-01
2.178458e-01
1.866097e-01
1.553731e-01
1.241362e-01
9.290244e-02
6.169647e-02
3.063171e-02
0.000000e+00
5.021653e-01
4.687315e-01
4.366694e-01
4.052745e-01
3.740172e-01
3.427838e-01
3.115498e-01
2.803153e-01
2.490803e-01
2.178448e-01
1.866089e-01
1.553725e-01
1.241357e-01
9.290205e-02
6.169620e-02
3.063156e-02
0.000000e+00
5.021625e-01
4.687290e-01
4.366673e-01
4.052727e-01
3.740156e-01
3.427825e-01
3.115487e-01
2.803143e-01
2.490795e-01
2.178441e-01
1.866083e-01
1.553720e-01
1.241353e-01
9.290176e-02
6.169600e-02
3.063144e-02
0.000000e+00
5.021619e-01
4.687283e-01
4.366668e-01
4.052723e-01
3.740153e-01
3.427821e-01
3.115484e-01
2.803141e-01
2.490792e-01
2.178439e-01
1.866081e-01
1.553718e-01
1.241352e-01
9.290167e-02
6.169592e-02
3.063138e-02
0.000000e+00
5.021634e-01
4.687296e-01
4.366679e-01
4.052733e-01
3.740161e-01
3.427828e-01
3.115490e-01
2.803146e-01
2.490797e-01
2.178442e-01
1.866084e-01
1.553721e-01
1.241353e-01
9.290176e-02
6.169596e-02
3.063138e-02
0.000000e+00
5.021666e-01
4.687323e-01
4.366703e-01
4.052753e-01
3.740179e-01
3.427843e-01
3.115502e-01
2.803156e-01
2.490805e-01
2.178450e-01
1.866090e-01
1.553725e-01
1.241357e-01
9.290200e-02
6.169610e-02
3.063143e-02
0.000000e+00
5.021704e-01
4.687354e-01
4.366731e-01
4.052777e-01
3.740199e-01
3.427861e-01
3.115517e-01
2.803169e-01
2.490816e-01
2.178459e-01
1.866097e-01
1.553731e-01
1.241361e-01
9.290233e-02
6.169630e-02
3.063142e-02
0.000000e+00
5.021741e-01
4.687387e-01
4.366761e-01
4.052805e-01
3.740225e-01
3.427884e-01
3.115538e-01
2.803188e-01
2.490834e-01
2.178475e-01
1.866112e-01
1.553745e-01
1.241374e-01
9.290354e-02
6.169749e-02
3.063266e-02
0.000000e+00
5.021594e-01
4.687248e-01
4.366628e-01
4.052673e-01
3.740094e-01
3.427754e-01
3.115409e-01
2.803060e-01
2.490707e-01
2.178349e-01
1.865987e-01
1.553621e-01
1.241252e-01
9.289142e-02
6.168563e-02
3.062269e-02
0.000000e+00
5.021466e-01
4.687146e-01
4.366540e-01
4.052603e-01
3.740040e-01
3.427715e-01
3.115383e-01
2.803044e-01
2.490700e-01
2.178351e-01
1.865996e-01
1.553637e-01
1.241273e-01
9.289414e-02
6.168881e-02
3.062572e-02
0.000000e+00
5.021589e-01
4.687261e-01
4.366648e-01
4.052707e-01
3.740140e-01
3.427811e-01
3.115477e-01
2.803136e-01
2.490790e-01
2.178438e-01
1.866082e-01
1.553721e-01
1.241355e-01
9.290214e-02
6.169655e-02
3.063216e-02
0.000000e+00
5.021643e-01
4.687308e-01
4.366687e-01
4.052739e-01
3.740166e-01
3.427833e-01
3.115495e-01
2.803150e-01
2.490801e-01
2.178446e-01
1.866087e-01
1.553724e-01
1.241356e-01
9.290204e-02
6.169621e-02
3.063156e-02
0.000000e+00
5.021720e-01
4.687376e-01
4.366744e-01
4.052788e-01
3.740209e-01
3.427870e-01
3.115526e-01
2.803177e-01
2.490823e-01
2.178465e-01
1.866103e-01
1.553736e-01
1.241366e-01
9.290272e-02
6.169665e-02
3.063183e-02
0.000000e+00
5.021788e-01
4.687437e-01
4.366796e-01
4.052832e-01
3.740246e-01
3.427902e-01
3.115553e-01
2.803200e-01
2.490843e-01
2.178482e-01
1.866116e-01
1.553747e-01
1.241374e-01
9.290335e-02
6.169707e-02
3.063203e-02
0.000000e+00
5.021824e-01
4.687469e-01
4.366823e-01
4.052856e-01
3.740267e-01
3.427920e-01
3.115568e-01
2.803213e-01
2.490854e-01
2.178491e-01
1.866124e-01
1.553753e-01
1.241379e-01
9.290368e-02
6.169729e-02
3.063214e-02
0.000000e+00
5.021817e-01
4.687463e-01
4.366818e-01
4.052851e-01
3.740263e-01
3.427916e-01
3.115565e-01
2.803211e-01
2.490852e-01
2.178489e-01
1.866122e-01
1.553752e-01
1.241378e-01
9.290361e-02
6.169724e-02
3.063211e-02
0.000000e+00
5.021769e-01
4.687419e-01
4.366782e-01
4.052820e-01
3.740236e-01
3.427893e-01
3.115546e-01
2.803194e-01
2.490837e-01
2.178477e-01
1.866112e-01
1.553744e-01
1.241372e-01
9.290316e-02
6.169694e-02
3.063196e-02
0.000000e+00
5.021695e-01
4.687354e-01
4.366726e-01
4.052773e-01
3.740196e-01
3.427858e-01
3.115516e-01
2.803168e-01
2.490816e-01
2.178459e-01
1.866098e-01
1.553732e-01
1.241362e-01
9.290247e-02
6.169648e-02
3.063172e-02
0.000000e+00
5.021621e-01
4.687288e-01
4.366670e-01
4.052725e-01
3.740155e-01
3.427823e-01
3.115486e-01
2.803143e-01
2.490794e-01
2.178441e-01
1.866082e-01
1.553720e-01
1.241353e-01
9.290177e-02
6.169602e-02
3.063147e-02
0.000000e+00
5.021571e-01
4.687242e-01
4.366632e-01
4.052692e-01
3.740126e-01
3.427799e-01
3.115465e-01
2.803125e-01
2.490779e-01
2.178428e-01
1.866072e-01
1.553711e-01
1.241346e-01
9.290127e-02
6.169568e-02
3.063129e-02
0.000000e+00
5.021559e-01
4.687231e-01
4.366623e-01
4.052685e-01
3.740120e-01
3.427793e-01
3.115460e-01
2.803120e-01
2.490775e-01
2.178425e-01
1.866069e-01
1.553709e-01
1.241344e-01
9.290112e-02
6.169556e-02
3.063121e-02
0.000000e+00
5.021590e-01
4.687256e-01
4.366645e-01
4.052704e-01
3.740136e-01
3.427807e-01
3.115471e-01
2.803130e-01
2.490783e-01
2.178431e-01
1.866074e-01
1.553713e-01
1.241347e-01
9.290134e-02
6.169568e-02
3.063124e-02
0.000000e+00
5.021650e-01
4.687308e-01
4.366690e-01
4.052742e-01
3.740169e-01
3.427834e-01
3.115495e-01
2.803150e-01
2.490800e-01
2.178445e-01
1.866086e-01
1.553722e-01
1.241354e-01
9.290182e-02
6.169598e-02
3.063137e-02
0.000000e+00
5.021719e-01
4.687368e-01
4.366742e-01
4.052786e-01
3.740207e-01
3.427867e-01
3.115522e-01
2.803173e-01
2.490819e-01
2.178461e-01
1.866099e-01
1.553733e-01
1.241362e-01
9.290243e-02
6.169636e-02
3.063145e-02
0.000000e+00
5.021782e-01
4.687423e-01
4.366791e-01
4.052830e-01
3.740246e-01
3.427902e-01
3.115553e-01
2.803201e-01
2.490844e-01
2.178484e-01
1.866119e-01
1.553751e-01
1.241379e-01
9.290385e-02
6.169769e-02
3.063276e-02
0.000000e+00
5.021645e-01
4.687292e-01
4.366665e-01
4.052704e-01
3.740120e-01
3.427776e-01
3.115428e-01
2.803076e-01
2.490720e-01
2.178360e-01
1.865996e-01
1.553629e-01
1.241257e-01
9.289181e-02
6.168589e-02
3.062282e-02
0.000000e+00
5.021426e-01
4.687110e-01
4.366510e-01
4.052578e-01
3.740018e-01
3.427696e-01
3.115366e-01
2.803031e-01
2.490689e-01
2.178341e-01
1.865989e-01
1.553631e-01
1.241269e-01
9.289379e-02
6.168858e-02
3.062561e-02
0.000000e+00
5.021556e-01
4.687231e-01
4.366623e-01
4.052685e-01
3.740121e-01
3.427796e-01
3.115463e-01
2.803125e-01
2.490780e-01
2.178430e-01
1.866075e-01
1.553715e-01
1.241351e-01
9.290184e-02
6.169636e-02
3.063207e-02
0.000000e+00
5.021628e-01
4.687295e-01
4.366675e-01
4.052729e-01
3.740158e-01
3.427827e-01
3.115489e-01
2.803145e-01
2.490797e-01
2.178443e-01
1.866085e-01
1.553722e-01
1.241354e-01
9.290191e-02
6.169613e-02
3.063152e-02
0.000000e+00
5.021728e-01
4.687384e-01
4.366751e-01
4.052794e-01
3.740214e-01
3.427874e-01
3.115529e-01
2.803180e-01
2.490826e-01
2.178467e-01
1.866104e-01
1.553738e-01
1.241367e-01
9.290280e-02
6.169671e-02
3.063186e-02
0.000000e+00
5.021817e-01
4.687463e-01
4.366818e-01
4.052851e-01
3.740263e-01
3.427916e-01
3.115565e-01
2.803211e-01
2.490852e-01
2.178489e-01
1.866122e-01
1.553752e-01
1.241378e-01
9.290362e-02
6.169725e-02
3.063212e-02
0.000000e+00
5.021865e-01
4.687505e-01
4.366854e-01
4.052882e-01
3.740289e-01
3.427939e-01
3.115585e-01
2.803227e-01
2.490866e-01
2.178501e-01
1.866132e-01
1.553760e-01
1.241384e-01
9.290406e-02
6.169754e-02
3.063226e-02
0.000000e+00
5.021856e-01
4.687497e-01
4.366847e-01
4.052876e-01
3.740284e-01
3.427935e-01
3.115581e-01
2.803224e-01
2.490863e-01
2.178498e-01
1.866130e-01
1.553758e-01
1.241383e-01
9.290397e-02
6.169748e-02
3.063223e-02
0.000000e+00
5.021792e-01
4.687440e-01
4.366800e-01
4.052836e-01
3.740250e-01
3.427905e-01
3.115556e-01
2.803202e-01
2.490845e-01
2.178483e-01
1.866117e-01
1.553748e-01
1.241375e-01
9.290338e-02
6.169709e-02
3.063203e-02
0.000000e+00
5.021697e-01
4.687355e-01
4.366727e-01
4.052774e-01
3.740197e-01
3.427859e-01
3.115517e-01
2.803169e-01
2.490817e-01
2.178459e-01
1.866098e-01
1.553732e-01
1.241363e-01
9.290249e-02
6.169650e-02
3.063173e-02
0.000000e+00
5.021600e-01
4.687269e-01
4.366654e-01
4.052712e-01
3.740143e-01
3.427813e-01
3.115477e-01
2.803135e-01
2.490788e-01
2.178436e-01
1.866078e-01
1.553716e-01
1.241350e-01
9.290158e-02
6.169589e-02
3.063141e-02
0.000000e+00
5.021534e-01
4.687210e-01
4.366605e-01
4.052669e-01
3.740106e-01
3.427782e-01
3.115450e-01
2.803112e-01
2.490768e-01
2.178419e-01
1.866065e-01
1.553705e-01
1.241342e-01
9.290094e-02
6.169546e-02
3.063118e-02
0.000000e+00
5.021520e-01
4.687196e-01
4.366593e-01
4.052659e-01
3.740098e-01
3.427774e-01
3.115443e-01
2.803106e-01
2.490763e-01
2.178415e-01
1.866061e-01
1.553702e-01
1.241339e-01
9.290075e-02
6.169532e-02
3.063109e-02
0.000000e+00
5.021560e-01
4.687230e-01
4.366623e-01
4.052684e-01
3.740119e-01
3.427792e-01
3.115459e-01
2.803119e-01
2.490774e-01
2.178424e-01
1.866068e-01
1.553708e-01
1.241343e-01
9.290105e-02
6.169550e-02
3.063115e-02
0.000000e+00
5.021639e-01
4.687298e-01
4.366681e-01
4.052734e-01
3.740162e-01
3.427829e-01
3.115490e-01
2.803145e-01
2.490796e-01
2.178442e-01
1.866083e-01
1.553720e-01
1.241353e-01
9.290170e-02
6.169590e-02
3.063133e-02
0.000000e+00
5.021730e-01
4.687377e-01
4.366749e-01
4.052792e-01
3.740212e-01
3.427871e-01
3.115526e-01
2.803176e-01
2.490822e-01
2.178463e-01
1.866100e-01
1.553734e-01
1.241363e-01
9.290249e-02
6.169640e-02
3.063147e-02
0.000000e+00
5.021809e-01
4.687447e-01
4.366811e-01
4.052847e-01
3.740260e-01
3.427914e-01
3.115564e-01
2.803209e-01