<?xml version="1.0"?>
<VTKFile type="StructuredGrid" version="0.1">
  <StructuredGrid WholeExtent="0 16 0 16 0 16">
    <Piece Extent="0 16 0 16 0 16">
      <PointData Scalars="temperature" Vectors="velocity">
        <DataArray type="Float32" Name="temperature" format="ascii">
1.000000e+00
9.682888e-01
9.403277e-01
9.107940e-01
9.069167e-01
8.481128e-01
8.151056e-01
7.807547e-01
7.495141e-01
7.182729e-01
6.870313e-01
6.557893e-01
6.245471e-01
5.933046e-01
5.620619e-01
5.312738e-01
5.009685e-01
1.000000e+00
9.682927e-01
9.397549e-01
9.099442e-01
9.014367e-01
8.472992e-01
8.145798e-01
7.807562e-01
7.495158e-01
7.182748e-01
6.870333e-01
6.557916e-01
6.245495e-01
5.933072e-01
5.620646e-01
5.312766e-01
5.009711e-01
1.000000e+00
9.682894e-01
9.382248e-01
9.076596e-01
8.868530e-01
8.451041e-01
8.131717e-01
7.807474e-01
7.495077e-01
7.182674e-01
6.870267e-01
6.557856e-01
6.245442e-01
5.933025e-01
5.620606e-01
5.312732e-01
5.009680e-01
1.000000e+00
9.682858e-01
9.362561e-01
9.047086e-01
8.680949e-01
8.422715e-01
8.113654e-01
7.807366e-01
7.494977e-01
7.182584e-01
6.870187e-01
6.557785e-01
6.245380e-01
5.932971e-01
5.620558e-01
5.312692e-01
5.009643e-01
1.000000e+00
9.682825e-01
9.345099e-01
9.020905e-01
8.514767e-01
8.397602e-01
8.097689e-01
7.807271e-01
7.494889e-01
7.182504e-01
6.870115e-01
6.557722e-01
6.245324e-01
5.932922e-01
5.620515e-01
5.312656e-01
5.009611e-01
1.000000e+00
9.682808e-01
9.335750e-01
9.006925e-01
8.425919e-01
8.384198e-01
8.089165e-01
7.807220e-01
7.494842e-01
7.182461e-01
6.870077e-01
6.557688e-01
6.245294e-01
5.932896e-01
5.620492e-01
5.312637e-01
5.009594e-01
1.000000e+00
9.682812e-01
9.337675e-01
9.009882e-01
8.444307e-01
8.387033e-01
8.090922e-01
7.807230e-01
7.494851e-01
7.182470e-01
6.870085e-01
6.557695e-01
6.245300e-01
5.932901e-01
5.620497e-01
5.312640e-01
5.009597e-01
1.000000e+00
9.682835e-01
9.350222e-01
9.028773e-01
8.563736e-01
8.405148e-01
8.102373e-01
7.807298e-01
7.494914e-01
7.182527e-01
6.870135e-01
6.557740e-01
6.245339e-01
5.932935e-01
5.620527e-01
5.312665e-01
5.009620e-01
1.000000e+00
9.682869e-01
9.369146e-01
9.057196e-01
8.744006e-01
8.432418e-01
8.119695e-01
7.807401e-01
7.495009e-01
7.182613e-01
6.870212e-01
6.557807e-01
6.245399e-01
5.932987e-01
5.620572e-01
5.312703e-01
5.009654e-01
1.000000e+00
9.682904e-01
9.388073e-01
9.085516e-01
8.924438e-01
8.459608e-01
8.137078e-01
7.807504e-01
7.495104e-01
7.182699e-01
6.870289e-01
6.557875e-01
6.245459e-01
5.933040e-01
5.620618e-01
5.312741e-01
5.009689e-01
1.000000e+00
9.682926e-01
9.400655e-01
9.104132e-01
9.044307e-01
8.477491e-01
8.148663e-01
7.807573e-01
7.495167e-01
7.182756e-01
6.870340e-01
6.557921e-01
6.245499e-01
5.933075e-01
5.620649e-01
5.312766e-01
5.009712e-01
1.000000e+00
9.682929e-01
9.402695e-01
9.106731e-01
9.063287e-01
8.479989e-01
8.150532e-01
7.807583e-01
7.495177e-01
7.182765e-01
6.870349e-01
6.557929e-01
6.245506e-01
5.933081e-01
5.620654e-01
5.312769e-01
5.009717e-01
1.000000e+00
9.682912e-01
9.393526e-01
9.092440e-01
8.975023e-01
8.466257e-01
8.142064e-01
7.807533e-01
7.495132e-01
7.182724e-01
6.870312e-01
6.557897e-01
6.245478e-01
5.933057e-01
5.620634e-01
5.312751e-01
5.009702e-01
1.000000e+00
9.682879e-01
9.376226e-01
9.066120e-01
8.809256e-01
8.440979e-01
8.126147e-01
7.807440e-01
7.495046e-01
7.182647e-01
6.870244e-01
6.557837e-01
6.245426e-01
5.933011e-01
5.620594e-01
5.312717e-01
5.009672e-01
1.000000e+00
9.682842e-01
9.356598e-01
9.036726e-01
8.621789e-01
8.412765e-01
8.108163e-01
7.807334e-01
7.494949e-01
7.182560e-01
6.870167e-01
6.557769e-01
6.245366e-01
5.932960e-01
5.620549e-01
5.312678e-01
5.009638e-01
1.000000e+00
9.682823e-01
9.341248e-01
9.014247e-01
8.475733e-01
8.391184e-01
8.094158e-01
7.807259e-01
7.494881e-01
7.182499e-01
6.870113e-01
6.557722e-01
6.245326e-01
5.932926e-01
5.620520e-01
5.312653e-01
5.009617e-01
1.000000e+00
9.682736e-01
9.335296e-01
9.005881e-01
8.420552e-01
8.383203e-01
8.088773e-01
7.807156e-01
7.494781e-01
7.182404e-01
6.870021e-01
6.557634e-01
6.245242e-01
5.932845e-01
5.620443e-01
5.312580e-01
5.009550e-01
1.000000e+00
9.682884e-01
9.400690e-01
9.104053e-01
9.044453e-01
8.477396e-01
8.148668e-01
7.807533e-01
7.495128e-01
7.182718e-01
6.870302e-01
6.557884e-01
6.245462e-01
5.933039e-01
5.620613e-01
5.312733e-01
5.009680e-01
1.000000e+00
9.682923e-01
9.395400e-01
9.096205e-01
8.993828e-01
8.469884e-01
8.143815e-01
7.807550e-01
7.495147e-01
7.182738e-01
6.870325e-01
6.557908e-01
6.245488e-01
5.933066e-01
5.620641e-01
5.312762e-01
5.009707e-01
1.000000e+00
9.682892e-01
9.381262e-01
9.075099e-01
8.859093e-01
8.449605e-01
8.130808e-01
7.807469e-01
7.495072e-01
7.182669e-01
6.870263e-01
6.557853e-01
6.245439e-01
5.933023e-01
5.620603e-01
5.312730e-01
5.009678e-01
1.000000e+00
9.682858e-01
9.363074e-01
9.047835e-01
8.685790e-01
8.423436e-01
8.114121e-01
7.807369e-01
7.494980e-01
7.182586e-01
6.870189e-01
6.557787e-01
6.245381e-01
5.932972e-01
5.620559e-01
5.312693e-01
5.009644e-01
1.000000e+00
9.682829e-01
9.346941e-01
9.023647e-01
8.532258e-01
8.400233e-01
8.099369e-01
7.807281e-01
7.494898e-01
7.182513e-01
6.870123e-01
6.557729e-01
6.245330e-01
5.932927e-01
5.620520e-01
5.312660e-01
5.009614e-01
1.000000e+00
9.682813e-01
9.338305e-01
9.010731e-01
8.450172e-01
8.387848e-01
8.091491e-01
7.807234e-01
7.494855e-01
7.182473e-01
6.870087e-01
6.557697e-01
6.245302e-01
5.932903e-01
5.620499e-01
5.312642e-01
5.009598e-01
1.000000e+00
9.682816e-01
9.340084e-01
9.013462e-01
8.467161e-01
8.390467e-01
8.093115e-01
7.807243e-01
7.494864e-01
7.182481e-01
6.870094e-01
6.557703e-01
6.245308e-01
5.932907e-01
5.620503e-01
5.312645e-01
5.009601e-01
1.000000e+00
9.682837e-01
9.351674e-01
9.030916e-01
8.577500e-01
8.407205e-01
8.103697e-01
7.807306e-01
7.494922e-01
7.182534e-01
6.870141e-01
6.557745e-01
6.245344e-01
5.932939e-01
5.620530e-01
5.312668e-01
5.009623e-01
1.000000e+00
9.682869e-01
9.369157e-01
9.057175e-01
8.744048e-01
8.432400e-01
8.119702e-01
7.807402e-01
7.495009e-01
7.182613e-01
6.870212e-01
6.557808e-01
6.245399e-01
5.932987e-01
5.620572e-01
5.312703e-01
5.009654e-01
1.000000e+00
9.682901e-01
9.386644e-01
9.083340e-01
8.910745e-01
8.457520e-01
8.135761e-01
7.807497e-01
7.495097e-01
7.182692e-01
6.870283e-01
6.557870e-01
6.245454e-01
5.933036e-01
5.620615e-01
5.312738e-01
5.009686e-01
1.000000e+00
9.682922e-01
9.398270e-01
9.100538e-01
9.021489e-01
8.474040e-01
8.146461e-01
7.807560e-01
7.495155e-01
7.182745e-01
6.870330e-01
6.557912e-01
6.245491e-01
5.933068e-01
5.620643e-01
5.312761e-01
5.009708e-01
1.000000e+00
9.682925e-01
9.400155e-01
9.102940e-01
9.039024e-01
8.476347e-01
8.148187e-01
7.807570e-01
7.495165e-01
7.182754e-01
6.870338e-01
6.557919e-01
6.245498e-01
5.933074e-01
5.620648e-01
5.312764e-01
5.009712e-01
1.000000e+00
9.682908e-01
9.391682e-01
9.089736e-01
8.957479e-01
8.463662e-01
8.140366e-01
7.807523e-01
7.495122e-01
7.182716e-01
6.870305e-01
6.557890e-01
6.245472e-01
5.933052e-01
5.620629e-01
5.312747e-01
5.009698e-01
1.000000e+00
9.682878e-01
9.375698e-01
9.065420e-01
8.804331e-01
8.440309e-01
8.125662e-01
7.807437e-01
7.495043e-01
7.182645e-01
6.870242e-01
6.557835e-01
6.245424e-01
5.933010e-01
5.620592e-01
5.312715e-01
5.009671e-01
1.000000e+00
9.682844e-01
9.357565e-01
9.038263e-01
8.631133e-01
8.414243e-01
8.109047e-01
7.807339e-01
7.494954e-01
7.182564e-01
6.870170e-01
6.557772e-01
6.245369e-01
5.932962e-01
5.620551e-01
5.312679e-01
5.009640e-01
1.000000e+00
9.682827e-01
9.343385e-01
9.017496e-01
8.496196e-01
8.394303e-01
8.096107e-01
7.807270e-01
7.494891e-01
7.182508e-01
6.870121e-01
6.557729e-01
6.245333e-01
5.932931e-01
5.620525e-01
5.312657e-01
5.009621e-01
1.000000e+00
9.682741e-01
9.337880e-01
9.009761e-01
8.445208e-01
8.386923e-01
8.091125e-01
7.807169e-01
7.494794e-01
7.182415e-01
6.870031e-01
6.557643e-01
6.245250e-01
5.932851e-01
5.620448e-01
5.312584e-01
5.009554e-01
1.000000e+00
9.682870e-01
9.393317e-01
9.092984e-01
8.974074e-01
8.466769e-01
8.141873e-01
7.807492e-01
7.495091e-01
7.182684e-01
6.870272e-01
6.557857e-01
6.245439e-01
5.933018e-01
5.620595e-01
5.312718e-01
5.009667e-01
1.000000e+00
9.682912e-01
9.389279e-01
9.086989e-01
8.935339e-01
8.461034e-01
8.138172e-01
7.807516e-01
7.495116e-01
7.182710e-01
6.870300e-01
6.557886e-01
6.245469e-01
5.933049e-01
5.620627e-01
5.312750e-01
5.009696e-01
1.000000e+00
9.682886e-01
9.378453e-01
9.070834e-01
8.832218e-01
8.445516e-01
8.128220e-01
7.807453e-01
7.495057e-01
7.182656e-01
6.870251e-01
6.557843e-01
6.245430e-01
5.933015e-01
5.620596e-01
5.312724e-01
5.009673e-01
1.000000e+00
9.682861e-01
9.364532e-01
9.049966e-01
8.699578e-01
8.425488e-01
8.115450e-01
7.807377e-01
7.494987e-01
7.182593e-01
6.870195e-01
6.557792e-01
6.245386e-01
5.932976e-01
5.620563e-01
5.312696e-01
5.009647e-01
1.000000e+00
9.682838e-01
9.352188e-01
9.031454e-01
8.582068e-01
8.407726e-01
8.104155e-01
7.807310e-01
7.494925e-01
7.182537e-01
6.870144e-01
6.557748e-01
6.245347e-01
5.932942e-01
5.620533e-01
5.312671e-01
5.009624e-01
1.000000e+00
9.682826e-01
9.345580e-01
9.021569e-01
8.519242e-01
8.398243e-01
8.098122e-01
7.807273e-01
7.494891e-01
7.182506e-01
6.870117e-01
6.557724e-01
6.245326e-01
5.932923e-01
5.620517e-01
5.312657e-01
5.009612e-01
1.000000e+00
9.682829e-01
9.346941e-01
9.023659e-01
8.532244e-01
8.400248e-01
8.099366e-01
7.807281e-01
7.494898e-01
7.182512e-01
6.870122e-01
6.557728e-01
6.245330e-01
5.932927e-01
5.620520e-01
5.312660e-01
5.009614e-01
1.000000e+00
9.682845e-01
9.355809e-01
9.037017e-01
8.616696e-01
8.413063e-01
8.107470e-01
7.807329e-01
7.494943e-01
7.182553e-01
6.870158e-01
6.557760e-01
6.245358e-01
5.932951e-01
5.620541e-01
5.312677e-01
5.009630e-01
1.000000e+00
9.682869e-01
9.369188e-01
9.057115e-01
8.744167e-01
8.432349e-01
8.119722e-01
7.807402e-01
7.495010e-01
7.182613e-01
6.870213e-01
6.557808e-01
6.245400e-01
5.932988e-01
5.620573e-01
5.312704e-01
5.009655e-01
1.000000e+00
9.682893e-01
9.382573e-01
9.077141e-01
8.871750e-01
8.451573e-01
8.132010e-01
7.807475e-01
7.495077e-01
7.182674e-01
6.870267e-01
6.557856e-01
6.245442e-01
5.933025e-01
5.620605e-01
5.312730e-01
5.009679e-01
1.000000e+00
9.682909e-01
9.391475e-01
9.090304e-01
8.956509e-01
8.464212e-01
8.140195e-01
7.807523e-01
7.495121e-01
7.182714e-01
6.870303e-01
6.557888e-01
6.245470e-01
5.933050e-01
5.620627e-01
5.312747e-01
5.009696e-01
1.000000e+00
9.682911e-01
9.392918e-01
9.092142e-01
8.969929e-01
8.465977e-01
8.141515e-01
7.807530e-01
7.495129e-01
7.182721e-01
6.870309e-01
6.557894e-01
6.245475e-01
5.933054e-01
5.620631e-01
5.312750e-01
5.009699e-01
1.000000e+00
9.682899e-01
9.386431e-01
9.082036e-01
8.907518e-01
8.456271e-01
8.135533e-01
7.807495e-01
7.495096e-01
7.182692e-01
6.870283e-01
6.557871e-01
6.245455e-01
5.933037e-01
5.620616e-01
5.312736e-01
5.009688e-01
1.000000e+00
9.682876e-01
9.374194e-01
9.063425e-01
8.790305e-01
8.438402e-01
8.124283e-01
7.807429e-01
7.495035e-01
7.182637e-01
6.870235e-01
6.557828e-01
6.245418e-01
5.933005e-01
5.620588e-01
5.312711e-01
5.009667e-01
1.000000e+00
9.682850e-01
9.360316e-01
9.042641e-01
8.657745e-01
8.418450e-01
8.111565e-01
7.807354e-01
7.494967e-01
7.182576e-01
6.870180e-01
6.557780e-01
6.245376e-01
5.932968e-01
5.620556e-01
5.312683e-01
5.009643e-01
1.000000e+00
9.682838e-01
9.349468e-01
9.026748e-01
8.554468e-01
8.403187e-01
8.101658e-01
7.807302e-01
7.494920e-01
7.182534e-01
6.870144e-01
6.557749e-01
6.245350e-01
5.932946e-01
5.620537e-01
5.312667e-01
5.009630e-01
1.000000e+00
9.682754e-01
9.345237e-01
9.020809e-01
8.515425e-01
8.397519e-01
8.097825e-01
7.807208e-01
7.494829e-01
7.182446e-01
6.870059e-01
6.557667e-01
6.245271e-01
5.932869e-01
5.620464e-01
5.312597e-01
5.009566e-01
1.000000e+00
9.682850e-01
9.382273e-01
9.076418e-01
8.868744e-01
8.450869e-01
8.131714e-01
7.807432e-01
7.495035e-01
7.182633e-01
6.870227e-01
6.557817e-01
6.245404e-01
5.932988e-01
5.620569e-01
5.312696e-01
5.009647e-01
1.000000e+00
9.682895e-01
9.380110e-01
9.073196e-01
8.847805e-01
8.447789e-01
8.129735e-01
7.807466e-01
7.495069e-01
7.182668e-01
6.870262e-01
6.557853e-01
6.245440e-01
5.933023e-01
5.620604e-01
5.312731e-01
5.009679e-01
1.000000e+00
9.682879e-01
9.374247e-01
9.064450e-01
8.791996e-01
8.439394e-01
8.124351e-01
7.807430e-01
7.495036e-01
7.182637e-01
6.870234e-01
6.557827e-01
6.245417e-01
5.933003e-01
5.620586e-01
5.312716e-01
5.009665e-01
1.000000e+00
9.682865e-01
9.366713e-01
9.053157e-01
8.720212e-01
8.428556e-01
8.117440e-01
7.807389e-01
7.494998e-01
7.182603e-01
6.870204e-01
6.557800e-01
6.245393e-01
5.932982e-01
5.620568e-01
5.312701e-01
5.009651e-01
1.000000e+00
9.682853e-01
9.360034e-01
9.043139e-01
8.656615e-01
8.418939e-01
8.111325e-01
7.807352e-01
7.494964e-01
7.182572e-01
6.870176e-01
6.557776e-01
6.245372e-01
5.932964e-01
5.620552e-01
5.312687e-01
5.009639e-01
1.000000e+00
9.682846e-01
9.356460e-01
9.037789e-01
8.622612e-01
8.413803e-01
8.108057e-01
7.807333e-01
7.494946e-01
7.182556e-01
6.870162e-01
6.557763e-01
6.245360e-01
5.932954e-01
5.620543e-01
5.312680e-01
5.009632e-01
1.000000e+00
9.682847e-01
9.357196e-01
9.038921e-01
8.629649e-01
8.414890e-01
8.108730e-01
7.807337e-01
7.494950e-01
7.182559e-01
6.870164e-01
6.557766e-01
6.245363e-01
5.932956e-01
5.620545e-01
5.312681e-01
5.009634e-01
1.000000e+00
9.682856e-01
9.361993e-01
9.046149e-01
8.675355e-01
8.421829e-01
8.113120e-01
7.807363e-01
7.494974e-01
7.182581e-01
6.870184e-01
6.557783e-01
6.245378e-01
5.932969e-01
5.620556e-01
5.312690e-01
5.009642e-01
1.000000e+00
9.682869e-01
9.369232e-01
9.057026e-01
8.744343e-01
8.432269e-01
8.119752e-01
7.807402e-01
7.495010e-01
7.182614e-01
6.870213e-01
6.557809e-01
6.245400e-01
5.932989e-01
5.620574e-01
5.312704e-01
5.009655e-01
1.000000e+00
9.682882e-01
9.376478e-01
9.067864e-01
8.813390e-01
8.442670e-01
8.126401e-01
7.807442e-01
7.495047e-01
7.182647e-01
6.870243e-01
6.557835e-01
6.245423e-01
5.933009e-01
5.620591e-01
5.312718e-01
5.009669e-01
1.000000e+00
9.682891e-01
9.381297e-01
9.074988e-01
8.859259e-01
8.449506e-01
8.130827e-01
7.807468e-01
7.495071e-01
7.182668e-01
6.870262e-01
6.557852e-01
6.245438e-01
5.933022e-01
5.620603e-01
5.312727e-01
5.009678e-01
1.000000e+00
9.682892e-01
9.382078e-01
9.075983e-01
8.866522e-01
8.450460e-01
8.131541e-01
7.807472e-01
7.495074e-01
7.182672e-01
6.870265e-01
6.557855e-01
6.245441e-01
5.933024e-01
5.620605e-01
5.312728e-01
5.009679e-01
1.000000e+00
9.682885e-01
9.378565e-01
9.070512e-01
8.832746e-01
8.445211e-01
8.128306e-01
7.807452e-01
7.495057e-01
7.182656e-01
6.870251e-01
6.557842e-01
6.245430e-01
5.933015e-01
5.620597e-01
5.312720e-01
5.009673e-01
1.000000e+00
9.682872e-01
9.371941e-01
9.060440e-01
8.769312e-01
8.435544e-01
8.122220e-01
7.807416e-01
7.495024e-01
7.182626e-01
6.870225e-01
6.557819e-01
6.245410e-01
5.932997e-01
5.620581e-01
5.312706e-01
5.009662e-01
1.000000e+00
9.682857e-01
9.364431e-01
9.049192e-01
8.697571e-01
8.424746e-01
8.115337e-01
7.807376e-01
7.494987e-01
7.182593e-01
6.870195e-01
6.557793e-01
6.245387e-01
5.932977e-01
5.620564e-01
5.312690e-01
5.009649e-01
1.000000e+00
9.682855e-01
9.358565e-01
9.040594e-01
8.641679e-01
8.416484e-01
8.109975e-01
7.807351e-01
7.494964e-01
7.182573e-01
6.870178e-01
6.557779e-01
6.245375e-01
5.932968e-01
5.620556e-01
5.312683e-01
5.009644e-01
1.000000e+00
9.682774e-01
9.356240e-01
9.037344e-01
8.620513e-01
8.413379e-01
8.107864e-01
7.807266e-01
7.494882e-01
7.182493e-01
6.870101e-01
6.557703e-01
6.245302e-01
5.932896e-01
5.620487e-01
5.312616e-01
5.009583e-01
1.000000e+00
9.682826e-01
9.369232e-01
9.056877e-01
8.744501e-01
8.432119e-01
8.119749e-01
7.807360e-01
7.494969e-01
7.182574e-01
6.870174e-01
6.557770e-01
6.245363e-01
5.932952e-01
5.620537e-01
5.312669e-01
5.009623e-01
1.000000e+00
9.682875e-01
9.369284e-01
9.056926e-01
8.744551e-01
8.432169e-01
8.119796e-01
7.807407e-01
7.495015e-01
7.182619e-01
6.870218e-01
6.557814e-01
6.245405e-01
5.932993e-01
5.620578e-01
5.312709e-01
5.009660e-01
1.000000e+00
9.682869e-01
9.369282e-01
9.056920e-01
8.744549e-01
8.432169e-01
8.119790e-01
7.807403e-01
7.495011e-01
7.182615e-01
6.870214e-01
6.557810e-01
6.245401e-01
5.932990e-01
5.620575e-01
5.312706e-01
5.009656e-01
1.000000e+00
9.682869e-01
9.369282e-01
9.056920e-01
8.744549e-01
8.432170e-01
8.119790e-01
7.807403e-01
7.495011e-01
7.182615e-01
6.870214e-01
6.557810e-01
6.245401e-01
5.932990e-01
5.620575e-01
5.312706e-01
5.009656e-01
1.000000e+00
9.682870e-01
9.369281e-01
9.056921e-01
8.744548e-01
8.432166e-01
8.119791e-01
7.807403e-01
7.495011e-01
7.182615e-01
6.870214e-01
6.557810e-01
6.245401e-01
5.932990e-01
5.620575e-01
5.312706e-01
5.009656e-01
1.000000e+00
9.682870e-01
9.369279e-01
9.056923e-01
8.744547e-01
8.432163e-01
8.119793e-01
7.807403e-01
7.495011e-01
7.182615e-01
6.870214e-01
6.557810e-01
6.245401e-01
5.932990e-01
5.620575e-01
5.312706e-01
5.009656e-01
1.000000e+00
9.682869e-01
9.369280e-01
9.056922e-01
8.744547e-01
8.432164e-01
8.119792e-01
7.807403e-01
7.495011e-01
7.182615e-01
6.870214e-01
6.557810e-01
6.245401e-01
5.932990e-01
5.620575e-01
5.312706e-01
5.009656e-01
1.000000e+00
9.682869e-01
9.369281e-01
9.056921e-01
8.744548e-01
8.432167e-01
8.119791e-01
7.807403e-01
7.495011e-01
7.182615e-01
6.870214e-01
6.557810e-01
6.245401e-01
5.932990e-01
5.620574e-01
5.312706e-01
5.009656e-01
1.000000e+00
9.682869e-01
9.369282e-01
9.056920e-01
8.744549e-01
8.432170e-01
8.119790e-01
7.807403e-01
7.495011e-01
7.182615e-01
6.870214e-01
6.557809e-01
6.245401e-01
5.932989e-01
5.620574e-01
5.312705e-01
5.009656e-01
1.000000e+00
9.682869e-01
9.369281e-01
9.056920e-01
8.744548e-01
8.432167e-01
8.119791e-01
7.807403e-01
7.495011e-01
7.182614e-01
6.870214e-01
6.557809e-01
6.245401e-01
5.932989e-01
5.620574e-01
5.312704e-01
5.009656e-01
1.000000e+00
9.682869e-01
9.369279e-01
9.056921e-01
8.744546e-01
8.432163e-01
8.119792e-01
7.807402e-01
7.495011e-01
7.182614e-01
6.870214e-01
6.557809e-01
6.245401e-01
5.932989e-01
5.620574e-01
5.312703e-01
5.009656e-01
1.000000e+00
9.682868e-01
9.369278e-01
9.056921e-01
8.744546e-01
8.432162e-01
8.119792e-01
7.807402e-01
7.495010e-01
7.182614e-01
6.870214e-01
6.557809e-01
6.245401e-01
5.932989e-01
5.620574e-01
5.312702e-01
5.009656e-01
1.000000e+00
9.682868e-01
9.369280e-01
9.056920e-01
8.744547e-01
8.432165e-01
8.119791e-01
7.807402e-01
7.495010e-01
7.182614e-01
6.870213e-01
6.557809e-01
6.245401e-01
5.932989e-01
5.620574e-01
5.312700e-01
5.009656e-01
1.000000e+00
9.682867e-01
9.369281e-01
9.056919e-01
8.744548e-01
8.432168e-01
8.119789e-01
7.807402e-01
7.495010e-01
7.182614e-01
6.870213e-01
6.557809e-01
6.245400e-01
5.932989e-01
5.620573e-01
5.312699e-01
5.009656e-01
1.000000e+00
9.682867e-01
9.369280e-01
9.056919e-01
8.744547e-01
8.432168e-01
8.119789e-01
7.807401e-01
7.495010e-01
7.182613e-01
6.870213e-01
6.557808e-01
6.245400e-01
5.932988e-01
5.620573e-01
5.312697e-01
5.009655e-01
1.000000e+00
9.682875e-01
9.369284e-01
9.056926e-01
8.744552e-01
8.432170e-01
8.119797e-01
7.807407e-01
7.495016e-01
7.182619e-01
6.870219e-01
6.557814e-01
6.245406e-01
5.932994e-01
5.620579e-01
5.312702e-01
5.009660e-01
1.000000e+00
9.682798e-01
9.369204e-01
9.056848e-01
8.744474e-01
8.432093e-01
8.119723e-01
7.807335e-01
7.494944e-01
7.182549e-01
6.870149e-01
6.557746e-01
6.245339e-01
5.932928e-01
5.620514e-01
5.312639e-01
5.009603e-01
1.000000e+00
9.682802e-01
9.356176e-01
9.037335e-01
8.620260e-01
8.413374e-01
8.107804e-01
7.807289e-01
7.494904e-01
7.182514e-01
6.870121e-01
6.557723e-01
6.245321e-01
5.932915e-01
5.620506e-01
5.312643e-01
5.009599e-01
1.000000e+00
9.682855e-01
9.358447e-01
9.040655e-01
8.641298e-01
8.416551e-01
8.109871e-01
7.807347e-01
7.494960e-01
7.182569e-01
6.870174e-01
6.557774e-01
6.245371e-01
5.932963e-01
5.620552e-01
5.312687e-01
5.009640e-01
1.000000e+00
9.682860e-01
9.364311e-01
9.049390e-01
8.697100e-01
8.424939e-01
8.115235e-01
7.807375e-01
7.494986e-01
7.182592e-01
6.870194e-01
6.557792e-01
6.245386e-01
5.932976e-01
5.620563e-01
5.312696e-01
5.009647e-01
1.000000e+00
9.682874e-01
9.371848e-01
9.060683e-01
8.768884e-01
8.435778e-01
8.122143e-01
7.807417e-01
7.495024e-01
7.182626e-01
6.870225e-01
6.557819e-01
6.245410e-01
5.932997e-01
5.620581e-01
5.312711e-01
5.009661e-01
1.000000e+00
9.682886e-01
9.378518e-01
9.070703e-01
8.832481e-01
8.445393e-01
8.128269e-01
7.807453e-01
7.495058e-01
7.182657e-01
6.870252e-01
6.557843e-01
6.245431e-01
5.933016e-01
5.620597e-01
5.312725e-01
5.009673e-01
1.000000e+00
9.682893e-01
9.382084e-01
9.076055e-01
8.866483e-01
8.450528e-01
8.131547e-01
7.807473e-01
7.495076e-01
7.182673e-01
6.870267e-01
6.557856e-01
6.245442e-01
5.933026e-01
5.620606e-01
5.312733e-01
5.009680e-01
1.000000e+00
9.682892e-01
9.381350e-01
9.074923e-01
8.859446e-01
8.449442e-01
8.130871e-01
7.807469e-01
7.495072e-01
7.182670e-01
6.870264e-01
6.557854e-01
6.245440e-01
5.933024e-01
5.620604e-01
5.312731e-01
5.009679e-01
1.000000e+00
9.682883e-01
9.376563e-01
9.067692e-01
8.813740e-01
8.442504e-01
8.126469e-01
7.807443e-01
7.495048e-01
7.182648e-01
6.870244e-01
6.557836e-01
6.245425e-01
5.933010e-01
5.620593e-01
5.312721e-01
5.009670e-01
1.000000e+00
9.682869e-01
9.369329e-01
9.056813e-01
8.744753e-01
8.432064e-01
8.119829e-01
7.807403e-01
7.495011e-01
7.182615e-01
6.870215e-01
6.557810e-01
6.245402e-01
5.932990e-01
5.620575e-01
5.312706e-01
5.009657e-01
1.000000e+00
9.682856e-01
9.362078e-01
9.045976e-01
8.675705e-01
8.421662e-01
8.113188e-01
7.807363e-01
7.494975e-01
7.182582e-01
6.870185e-01
6.557784e-01
6.245379e-01
5.932970e-01
5.620558e-01
5.312690e-01
5.009644e-01
1.000000e+00
9.682846e-01
9.357248e-01
9.038854e-01
8.629835e-01
8.414824e-01
8.108774e-01
7.807337e-01
7.494951e-01
7.182560e-01
6.870165e-01
6.557766e-01
6.245364e-01
5.932956e-01
5.620546e-01
5.312679e-01
5.009635e-01
1.000000e+00
9.682845e-01
9.356464e-01
9.037860e-01
8.622571e-01
8.413869e-01
8.108062e-01
7.807333e-01
7.494946e-01
7.182556e-01
6.870162e-01
6.557763e-01
6.245361e-01
5.932954e-01
5.620543e-01
5.312676e-01
5.009633e-01
1.000000e+00
9.682851e-01
9.359985e-01
9.043327e-01
8.656347e-01
8.419119e-01
8.111286e-01
7.807352e-01
7.494964e-01
7.182572e-01
6.870175e-01
6.557775e-01
6.245371e-01
5.932963e-01
5.620551e-01
5.312681e-01
5.009638e-01
1.000000e+00
9.682863e-01
9.366617e-01
9.053397e-01
8.719782e-01
8.428787e-01
8.117361e-01
7.807387e-01
7.494996e-01
7.182601e-01
6.870201e-01
6.557798e-01
6.245391e-01
5.932980e-01
5.620566e-01
5.312692e-01
5.009649e-01
1.000000e+00
9.682876e-01
9.374125e-01
9.064646e-01
8.791522e-01
8.439586e-01
8.124246e-01
7.807427e-01
7.495033e-01
7.182633e-01
6.870230e-01
6.557823e-01
6.245413e-01
5.932999e-01
5.620582e-01
5.312705e-01
5.009662e-01
1.000000e+00
9.682895e-01
9.379993e-01
9.073258e-01
8.847425e-01
8.447858e-01
8.129632e-01
7.807464e-01
7.495067e-01
7.182665e-01
6.870259e-01
6.557849e-01
6.245436e-01
5.933020e-01
5.620601e-01
5.312720e-01
5.009677e-01
1.000000e+00
9.682822e-01
9.382153e-01
9.076352e-01
8.868437e-01
8.450811e-01
8.131601e-01
7.807403e-01
7.495006e-01
7.182604e-01
6.870198e-01
6.557789e-01
6.245376e-01
5.932960e-01
5.620542e-01
5.312662e-01
5.009623e-01
1.000000e+00
9.682781e-01
9.345096e-01
9.020768e-01
8.514935e-01
8.397488e-01
8.097693e-01
7.807229e-01
7.494848e-01
7.182464e-01
6.870076e-01
6.557683e-01
6.245286e-01
5.932885e-01
5.620479e-01
5.312620e-01
5.009579e-01
1.000000e+00
9.682838e-01
9.349251e-01
9.026861e-01
8.553765e-01
8.403312e-01
8.101468e-01
7.807297e-01
7.494914e-01
7.182527e-01
6.870137e-01
6.557741e-01
6.245342e-01
5.932938e-01
5.620530e-01
5.312668e-01
5.009623e-01
1.000000e+00
9.682852e-01
9.360094e-01
9.043006e-01
8.656873e-01
8.418807e-01
8.111376e-01
7.807352e-01
7.494965e-01
7.182573e-01
6.870177e-01
6.557777e-01
6.245372e-01
5.932964e-01
5.620553e-01
5.312687e-01
5.009640e-01
1.000000e+00
9.682878e-01
9.374020e-01
9.063872e-01
8.789512e-01
8.438833e-01
8.124139e-01
7.807429e-01
7.495035e-01
7.182636e-01
6.870234e-01
6.557827e-01
6.245417e-01
5.933003e-01
5.620586e-01
5.312716e-01
5.009665e-01
1.000000e+00
9.682901e-01
9.386343e-01
9.082387e-01
8.907026e-01
8.456607e-01
8.135464e-01
7.807496e-01
7.495097e-01
7.182693e-01
6.870284e-01
6.557872e-01
6.245456e-01
5.933038e-01
5.620616e-01
5.312742e-01
5.009688e-01
1.000000e+00
9.682913e-01
9.392928e-01
9.092275e-01
8.969856e-01
8.466101e-01
8.141527e-01
7.807532e-01
7.495131e-01
7.182723e-01
6.870311e-01
6.557896e-01
6.245477e-01
5.933056e-01
5.620632e-01
5.312755e-01
5.009700e-01
1.000000e+00
9.682910e-01
9.391572e-01
9.090184e-01
8.956853e-01
8.464093e-01
8.140276e-01
7.807525e-01
7.495124e-01
7.182717e-01
6.870306e-01
6.557891e-01
6.245473e-01
5.933052e-01
5.620629e-01
5.312752e-01
5.009698e-01
1.000000e+00
9.682894e-01
9.382730e-01
9.076823e-01
8.872397e-01
8.451264e-01
8.132137e-01
7.807476e-01
7.495079e-01
7.182677e-01
6.870270e-01
6.557859e-01
6.245445e-01
5.933028e-01
5.620608e-01
5.312734e-01
5.009682e-01
1.000000e+00
9.682869e-01
9.369366e-01
9.056723e-01
8.744923e-01
8.431970e-01
8.119864e-01
7.807403e-01
7.495012e-01
7.182616e-01
6.870215e-01
6.557811e-01
6.245403e-01
5.932991e-01
5.620576e-01
5.312706e-01
5.009657e-01
1.000000e+00
9.682844e-01
9.355965e-01
9.036698e-01
8.617342e-01
8.412754e-01
8.107596e-01
7.807330e-01
7.494944e-01
7.182555e-01
6.870161e-01
6.557763e-01
6.245360e-01
5.932954e-01
5.620543e-01
5.312678e-01
5.009633e-01
1.000000e+00
9.682828e-01
9.347038e-01
9.023537e-01
8.532587e-01
8.400128e-01
8.099446e-01
7.807282e-01
7.494900e-01
7.182514e-01
6.870124e-01
6.557730e-01
6.245332e-01
5.932929e-01
5.620522e-01
5.312659e-01
5.009616e-01
1.000000e+00
9.682825e-01
9.345589e-01
9.021700e-01
8.519167e-01
8.398365e-01
8.098133e-01
7.807274e-01
7.494892e-01
7.182507e-01
6.870118e-01
6.557724e-01
6.245326e-01
5.932924e-01
5.620517e-01
5.312654e-01
5.009613e-01
1.000000e+00
9.682837e-01
9.352098e-01
9.031804e-01
8.581574e-01
8.408059e-01
8.104085e-01
7.807309e-01
7.494924e-01
7.182536e-01
6.870143e-01
6.557747e-01
6.245346e-01
5.932941e-01
5.620531e-01
5.312665e-01
5.009624e-01
1.000000e+00
9.682859e-01
9.364356e-01
9.050413e-01
8.698784e-01
8.425917e-01
8.115304e-01
7.807375e-01
7.494984e-01
7.182590e-01
6.870191e-01
6.557789e-01
6.245382e-01
5.932972e-01
5.620559e-01
5.312686e-01
5.009644e-01
1.000000e+00
9.682884e-01
9.378229e-01
9.071196e-01
8.831344e-01
8.445871e-01
8.128027e-01
7.807449e-01
7.495052e-01
7.182651e-01
6.870245e-01
6.557836e-01
6.245424e-01
5.933008e-01
5.620590e-01
5.312711e-01
5.009668e-01
1.000000e+00
9.682912e-01
9.389063e-01
9.087103e-01
8.934637e-01
8.461160e-01
8.137981e-01
7.807512e-01
7.495111e-01
7.182704e-01
6.870293e-01
6.557879e-01
6.245462e-01
5.933042e-01
5.620620e-01
5.312736e-01
5.009691e-01
1.000000e+00
9.682842e-01
9.393119e-01
9.092887e-01
8.973528e-01
8.466684e-01
8.141686e-01
7.807461e-01
7.495059e-01
7.182651e-01
6.870240e-01
6.557825e-01
6.245407e-01
5.932987e-01
5.620565e-01
5.312681e-01
5.009640e-01
1.000000e+00
9.682768e-01
9.337686e-01
9.009698e-01
8.444559e-01
8.386875e-01
8.090944e-01
7.807188e-01
7.494811e-01
7.182430e-01
6.870046e-01
6.557657e-01
6.245263e-01
5.932864e-01
5.620461e-01
5.312605e-01
5.009565e-01
1.000000e+00
9.682827e-01
9.343101e-01
9.017644e-01
8.495277e-01
8.394467e-01
8.095859e-01
7.807264e-01
7.494883e-01
7.182499e-01
6.870112e-01
6.557719e-01
6.245322e-01
5.932921e-01
5.620515e-01
5.312656e-01
5.009612e-01
1.000000e+00
9.682847e-01
9.357274e-01
9.038740e-01
8.629994e-01
8.414709e-01
8.108799e-01
7.807337e-01
7.494950e-01
7.182560e-01
6.870165e-01
6.557767e-01
6.245364e-01
5.932957e-01
5.620546e-01
5.312682e-01
5.009635e-01
1.000000e+00
9.682881e-01
9.375471e-01
9.066004e-01
8.803295e-01
8.440872e-01
8.125474e-01
7.807436e-01
7.495042e-01
7.182643e-01
6.870240e-01
6.557832e-01
6.245421e-01
5.933007e-01
5.620590e-01
5.312719e-01
5.009668e-01
1.000000e+00
9.682910e-01
9.391567e-01
9.090194e-01
8.956836e-01
8.464099e-01
8.140276e-01
7.807525e-01
7.495124e-01
7.182717e-01
6.870306e-01
6.557891e-01
6.245473e-01
5.933052e-01
5.620629e-01
5.312752e-01
5.009698e-01
1.000000e+00
9.682926e-01
9.400167e-01
9.103112e-01
9.038929e-01
8.476508e-01
8.148203e-01
7.807572e-01
7.495167e-01
7.182756e-01
6.870341e-01
6.557922e-01
6.245500e-01
5.933076e-01
5.620650e-01
5.312770e-01
5.009714e-01
1.000000e+00
9.682923e-01
9.398397e-01
9.100380e-01
9.021939e-01
8.473884e-01
8.146568e-01
7.807562e-01
7.495158e-01
7.182748e-01
6.870334e-01
6.557916e-01
6.245495e-01
5.933072e-01
5.620646e-01
5.312766e-01
5.009711e-01
1.000000e+00
9.682901e-01
9.386849e-01
9.082924e-01
8.911590e-01
8.457117e-01
8.135927e-01
7.807499e-01
7.495100e-01
7.182696e-01
6.870287e-01
6.557874e-01
6.245458e-01
5.933040e-01
5.620618e-01
5.312743e-01
5.009690e-01
1.000000e+00
9.682869e-01
9.369390e-01
9.056662e-01
8.745037e-01
8.431905e-01
8.119888e-01
7.807404e-01
7.495012e-01
7.182616e-01
6.870216e-01
6.557811e-01
6.245403e-01
5.932991e-01
5.620576e-01
5.312707e-01
5.009658e-01
1.000000e+00
9.682837e-01
9.351879e-01
9.030498e-01
8.578344e-01
8.406802e-01
8.103862e-01
7.807308e-01
7.494924e-01
7.182536e-01
6.870145e-01
6.557748e-01
6.245348e-01
5.932943e-01
5.620534e-01
5.312670e-01
5.009626e-01
1.000000e+00
9.682815e-01
9.340210e-01
9.013303e-01
8.467609e-01
8.390310e-01
8.093220e-01
7.807245e-01
7.494866e-01
7.182483e-01
6.870097e-01
6.557706e-01
6.245311e-01
5.932910e-01
5.620505e-01
5.312645e-01
5.009604e-01
1.000000e+00
9.682812e-01
9.338316e-01
9.010903e-01
8.450076e-01
8.388008e-01
8.091505e-01
7.807235e-01
7.494856e-01
7.182474e-01
6.870089e-01
6.557699e-01
6.245304e-01
5.932904e-01
5.620500e-01
5.312639e-01
5.009600e-01
1.000000e+00
9.682827e-01
9.346824e-01
9.024105e-01
8.531613e-01
8.400669e-01
8.099277e-01
7.807280e-01
7.494898e-01
7.182512e-01
6.870122e-01
6.557727e-01
6.245329e-01
5.932926e-01
5.620519e-01
5.312654e-01
5.009614e-01
1.000000e+00
9.682856e-01
9.362844e-01
9.048418e-01
8.684753e-01
8.423997e-01
8.113931e-01
7.807366e-01
7.494976e-01
7.182582e-01
6.870184e-01
6.557782e-01
6.245377e-01
5.932967e-01
5.620555e-01
5.312683e-01
5.009641e-01
1.000000e+00
9.682889e-01
9.380969e-01
9.075573e-01
8.857951e-01
8.450070e-01
8.130556e-01
7.807463e-01
7.495065e-01
7.182662e-01
6.870255e-01
6.557845e-01
6.245431e-01
5.933014e-01
5.620595e-01
5.312715e-01
5.009671e-01
1.000000e+00
9.682923e-01
9.395118e-01
9.096354e-01
8.992910e-01
8.470048e-01
8.143565e-01
7.807544e-01