<?xml version="1.0"?>
<VTKFile type="StructuredGrid" version="0.1">
  <StructuredGrid WholeExtent="0 16 0 16 0 16">
    <Piece Extent="0 16 0 16 0 16">
      <PointData Scalars="temperature" Vectors="velocity">
        <DataArray type="Float32" Name="temperature" format="ascii">
1.000000e+00
5.732154e-01
5.730221e-01
5.730485e-01
5.730629e-01
5.730765e-01
5.730878e-01
5.730954e-01
5.730980e-01
5.730953e-01
5.730878e-01
5.730769e-01
5.730634e-01
5.730490e-01
5.730676e-01
5.724309e-01
0.000000e+00
1.000000e+00
5.730303e-01
5.728111e-01
5.727174e-01
5.726080e-01
5.725042e-01
5.724170e-01
5.723581e-01
5.723372e-01
5.723576e-01
5.724157e-01
5.725036e-01
5.726089e-01
5.727132e-01
5.730825e-01
5.712311e-01
0.000000e+00
1.000000e+00
5.728091e-01
5.723584e-01
5.719983e-01
5.716232e-01
5.712675e-01
5.709685e-01
5.707670e-01
5.706952e-01
5.707653e-01
5.709661e-01
5.712703e-01
5.716342e-01
5.720001e-01
5.726559e-01
5.719280e-01
0.000000e+00
1.000000e+00
5.724360e-01
5.716393e-01
5.708644e-01
5.700708e-01
5.693183e-01
5.686860e-01
5.682601e-01
5.681090e-01
5.682598e-01
5.686891e-01
5.693387e-01
5.701099e-01
5.708934e-01
5.717981e-01
5.719988e-01
0.000000e+00
1.000000e+00
5.719264e-01
5.706540e-01
5.693150e-01
5.679498e-01
5.666554e-01
5.655681e-01
5.648365e-01
5.645787e-01
5.648419e-01
5.655856e-01
5.667034e-01
5.680263e-01
5.693817e-01
5.707868e-01
5.715085e-01
0.000000e+00
1.000000e+00
5.712626e-01
5.694202e-01
5.673757e-01
5.652940e-01
5.633208e-01
5.616643e-01
5.605512e-01
5.601624e-01
5.605698e-01
5.617079e-01
5.634045e-01
5.654169e-01
5.674789e-01
5.695572e-01
5.709305e-01
0.000000e+00
1.000000e+00
5.705047e-01
5.679717e-01
5.651035e-01
5.621826e-01
5.594144e-01
5.570921e-01
5.555345e-01
5.549947e-01
5.555731e-01
5.571720e-01
5.595391e-01
5.623561e-01
5.652470e-01
5.681267e-01
5.702296e-01
0.000000e+00
1.000000e+00
5.696746e-01
5.663670e-01
5.625894e-01
5.587402e-01
5.550930e-01
5.520350e-01
5.499868e-01
5.492817e-01
5.500487e-01
5.521555e-01
5.552581e-01
5.589633e-01
5.627714e-01
5.665399e-01
5.694627e-01
0.000000e+00
1.000000e+00
5.688332e-01
5.646831e-01
5.599512e-01
5.551275e-01
5.505581e-01
5.467290e-01
5.441667e-01
5.432887e-01
5.442518e-01
5.468910e-01
5.507622e-01
5.553973e-01
5.601658e-01
5.648738e-01
5.686536e-01
0.000000e+00
1.000000e+00
5.679982e-01
5.630054e-01
5.573209e-01
5.515260e-01
5.460382e-01
5.414411e-01
5.383672e-01
5.373160e-01
5.384727e-01
5.416426e-01
5.462760e-01
5.518421e-01
5.575617e-01
5.632065e-01
5.678535e-01
0.000000e+00
1.000000e+00
5.671972e-01
5.614171e-01
5.548322e-01
5.481193e-01
5.417636e-01
5.364409e-01
5.328830e-01
5.316666e-01
5.330052e-01
5.366749e-01
5.420314e-01
5.484769e-01
5.550932e-01
5.616284e-01
5.670931e-01
0.000000e+00
1.000000e+00
5.664859e-01
5.599955e-01
5.526061e-01
5.450733e-01
5.379423e-01
5.319712e-01
5.279798e-01
5.266146e-01
5.281149e-01
5.322271e-01
5.382378e-01
5.454656e-01
5.528810e-01
5.602115e-01
5.664181e-01
0.000000e+00
1.000000e+00
5.658924e-01
5.588032e-01
5.507394e-01
5.425200e-01
5.347396e-01
5.282249e-01
5.238693e-01
5.223781e-01
5.240126e-01
5.284927e-01
5.350576e-01
5.429381e-01
5.510245e-01
5.590270e-01
5.658480e-01
0.000000e+00
1.000000e+00
5.654361e-01
5.578821e-01
5.492969e-01
5.405474e-01
5.322656e-01
5.253305e-01
5.206926e-01
5.191026e-01
5.208391e-01
5.256019e-01
5.325973e-01
5.409790e-01
5.495900e-01
5.581098e-01
5.654071e-01
0.000000e+00
1.000000e+00
5.651288e-01
5.572533e-01
5.483091e-01
5.391968e-01
5.305719e-01
5.233487e-01
5.185161e-01
5.168570e-01
5.186618e-01
5.236166e-01
5.309099e-01
5.396263e-01
5.486096e-01
5.574863e-01
5.651061e-01
0.000000e+00
1.000000e+00
5.649441e-01
5.569131e-01
5.477737e-01
5.384655e-01
5.296550e-01
5.222753e-01
5.173364e-01
5.156381e-01
5.174778e-01
5.225348e-01
5.299889e-01
5.388806e-01
5.480788e-01
5.571516e-01
5.649594e-01
0.000000e+00
1.000000e+00
5.648445e-01
5.568223e-01
5.476529e-01
5.383042e-01
5.294573e-01
5.220489e-01
5.170920e-01
5.153885e-01
5.172370e-01
5.223162e-01
5.297962e-01
5.387392e-01
5.479845e-01
5.571214e-01
5.649069e-01
0.000000e+00
1.000000e+00
5.732853e-01
5.732275e-01
5.733812e-01
5.735166e-01
5.736450e-01
5.737527e-01
5.738250e-01
5.738501e-01
5.738234e-01
5.737500e-01
5.736427e-01
5.735192e-01
5.733883e-01
5.732346e-01
5.724998e-01
0.000000e+00
1.000000e+00
5.730398e-01
5.727955e-01
5.726893e-01
5.725697e-01
5.724561e-01
5.723605e-01
5.722957e-01
5.722722e-01
5.722938e-01
5.723574e-01
5.724558e-01
5.725812e-01
5.726934e-01
5.729890e-01
5.711772e-01
0.000000e+00
1.000000e+00
5.726180e-01
5.720889e-01
5.715711e-01
5.710377e-01
5.705317e-01
5.701063e-01
5.698193e-01
5.697170e-01
5.698173e-01
5.701049e-01
5.705410e-01
5.710718e-01
5.715965e-01
5.723264e-01
5.715161e-01
0.000000e+00
1.000000e+00
5.721257e-01
5.710878e-01
5.699982e-01
5.688844e-01
5.678282e-01
5.669407e-01
5.663431e-01
5.661322e-01
5.663462e-01
5.669518e-01
5.678639e-01
5.689445e-01
5.700581e-01
5.712578e-01
5.716304e-01
0.000000e+00
1.000000e+00
5.714973e-01
5.698023e-01
5.679821e-01
5.661246e-01
5.643637e-01
5.628853e-01
5.618916e-01
5.615440e-01
5.619066e-01
5.629204e-01
5.644355e-01
5.662199e-01
5.680759e-01
5.699494e-01
5.709831e-01
0.000000e+00
1.000000e+00
5.707064e-01
5.682632e-01
5.655673e-01
5.628179e-01
5.602121e-01
5.580257e-01
5.565583e-01
5.560489e-01
5.565920e-01
5.580922e-01
5.603218e-01
5.629616e-01
5.656953e-01
5.684251e-01
5.702939e-01
0.000000e+00
1.000000e+00
5.697947e-01
5.665161e-01
5.628310e-01
5.590712e-01
5.555091e-01
5.525224e-01
5.505215e-01
5.498317e-01
5.505789e-01
5.526256e-01
5.556573e-01
5.592675e-01
5.630004e-01
5.667009e-01
5.694696e-01
0.000000e+00
1.000000e+00
5.688453e-01
5.646356e-01
5.598907e-01
5.550453e-01
5.504564e-01
5.466116e-01
5.440389e-01
5.431562e-01
5.441217e-01
5.467563e-01
5.506438e-01
5.552952e-01
5.600966e-01
5.648438e-01
5.685874e-01
0.000000e+00
1.000000e+00
5.679006e-01
5.627196e-01
5.568921e-01
5.509390e-01
5.453032e-01
5.405841e-01
5.374292e-01
5.363496e-01
5.375362e-01
5.407751e-01
5.455263e-01
5.512448e-01
5.571298e-01
5.629450e-01
5.676784e-01
0.000000e+00
1.000000e+00
5.669639e-01
5.608658e-01
5.539907e-01
5.469665e-01
5.403193e-01
5.347552e-01
5.310375e-01
5.297663e-01
5.311652e-01
5.349913e-01
5.405738e-01
5.473282e-01
5.542569e-01
5.611087e-01
5.668049e-01
0.000000e+00
1.000000e+00
5.661080e-01
5.591708e-01
5.513393e-01
5.433376e-01
5.357669e-01
5.294315e-01
5.251984e-01
5.237509e-01
5.253428e-01
5.297025e-01
5.360512e-01
5.437502e-01
5.516275e-01
5.594303e-01
5.660032e-01
0.000000e+00
1.000000e+00
5.653882e-01
5.577208e-01
5.490690e-01
5.402311e-01
5.318702e-01
5.248736e-01
5.201981e-01
5.185983e-01
5.203541e-01
5.251665e-01
5.321826e-01
5.406846e-01
5.493739e-01
5.579920e-01
5.653172e-01
0.000000e+00
1.000000e+00
5.648256e-01
5.565775e-01
5.472757e-01
5.377775e-01
5.287923e-01
5.212725e-01
5.162458e-01
5.145243e-01
5.164083e-01
5.215753e-01
5.291266e-01
5.382581e-01
5.475899e-01
5.568531e-01
5.647787e-01
0.000000e+00
1.000000e+00
5.644307e-01
5.557747e-01
5.460130e-01
5.360506e-01
5.266253e-01
5.187359e-01
5.134604e-01
5.116512e-01
5.136242e-01
5.190394e-01
5.269749e-01
5.365392e-01
5.463322e-01
5.560542e-01
5.644043e-01
0.000000e+00
1.000000e+00
5.641942e-01
5.553194e-01
5.452932e-01
5.350670e-01
5.253907e-01
5.172894e-01
5.118701e-01
5.100089e-01
5.120313e-01
5.175869e-01
5.257509e-01
5.355396e-01
5.456101e-01
5.555791e-01
5.641944e-01
0.000000e+00
1.000000e+00
5.640977e-01
5.551937e-01
5.450907e-01
5.347924e-01
5.250466e-01
5.168855e-01
5.114246e-01
5.095473e-01
5.115825e-01
5.171760e-01
5.254075e-01
5.352412e-01
5.454006e-01
5.554660e-01
5.641524e-01
0.000000e+00
1.000000e+00
5.643764e-01
5.553403e-01
5.453619e-01
5.351682e-01
5.255214e-01
5.174416e-01
5.120330e-01
5.101705e-01
5.121816e-01
5.177175e-01
5.258606e-01
5.356256e-01
5.457185e-01
5.556733e-01
5.642359e-01
0.000000e+00
1.000000e+00
5.735547e-01
5.736736e-01
5.740841e-01
5.744801e-01
5.748556e-01
5.751711e-01
5.753833e-01
5.754577e-01
5.753807e-01
5.751662e-01
5.748513e-01
5.744872e-01
5.741203e-01
5.737131e-01
5.732322e-01
0.000000e+00
1.000000e+00
5.731687e-01
5.730138e-01
5.730294e-01
5.730357e-01
5.730416e-01
5.730461e-01
5.730485e-01
5.730480e-01
5.730443e-01
5.730388e-01
5.730380e-01
5.730552e-01
5.730477e-01
5.730961e-01
5.722638e-01
0.000000e+00
1.000000e+00
5.725993e-01
5.720478e-01
5.714995e-01
5.709405e-01
5.704100e-01
5.699637e-01
5.696624e-01
5.695547e-01
5.696597e-01
5.699610e-01
5.704241e-01
5.709984e-01
5.715436e-01
5.721620e-01
5.717716e-01
0.000000e+00
1.000000e+00
5.719070e-01
5.707589e-01
5.694751e-01
5.681672e-01
5.669266e-01
5.658839e-01
5.651817e-01
5.649338e-01
5.651862e-01
5.658988e-01
5.669772e-01
5.682497e-01
5.695559e-01
5.708832e-01
5.714514e-01
0.000000e+00
1.000000e+00
5.711367e-01
5.691592e-01
5.669737e-01
5.647426e-01
5.626276e-01
5.608524e-01
5.596604e-01
5.592456e-01
5.596857e-01
5.609028e-01
5.627254e-01
5.648609e-01
5.670820e-01
5.693028e-01
5.706436e-01
0.000000e+00
1.000000e+00
5.702300e-01
5.672990e-01
5.640626e-01
5.607575e-01
5.576259e-01
5.549998e-01
5.532397e-01
5.526322e-01
5.532897e-01
5.550870e-01
5.577660e-01
5.609228e-01
5.642068e-01
5.674701e-01
5.698055e-01
0.000000e+00
1.000000e+00
5.691917e-01
5.652432e-01
5.608458e-01
5.563536e-01
5.520990e-01
5.485341e-01
5.461479e-01
5.453283e-01
5.462230e-01
5.486565e-01
5.522779e-01
5.565684e-01
5.610339e-01
5.654386e-01
5.688546e-01
0.000000e+00
1.000000e+00
5.681458e-01
5.630842e-01
5.574700e-01
5.517318e-01
5.462998e-01
5.417507e-01
5.387081e-01
5.376647e-01
5.388061e-01
5.419103e-01
5.465157e-01
5.520021e-01
5.576903e-01
5.632999e-01
5.678542e-01
0.000000e+00
1.000000e+00
5.670752e-01
5.609328e-01
5.541068e-01
5.471281e-01
5.405254e-01
5.349986e-01
5.313041e-01
5.300382e-01
5.314251e-01
5.352041e-01
5.407754e-01
5.474642e-01
5.543562e-01
5.611628e-01
5.668427e-01
0.000000e+00
1.000000e+00
5.660834e-01
5.589038e-01
5.509409e-01
5.427961e-01
5.350932e-01
5.286478e-01
5.243395e-01
5.228635e-01
5.244802e-01
5.288988e-01
5.353725e-01
5.431977e-01
5.512245e-01
5.591606e-01
5.658885e-01
0.000000e+00
1.000000e+00
5.651995e-01
5.571112e-01
5.481436e-01
5.389696e-01
5.302958e-01
5.230384e-01
5.181869e-01
5.165244e-01
5.183431e-01
5.233262e-01
5.306018e-01
5.394308e-01
5.484614e-01
5.573920e-01
5.650433e-01
0.000000e+00
1.000000e+00
5.644675e-01
5.556473e-01
5.458553e-01
5.358395e-01
5.263704e-01
5.184471e-01
5.131494e-01
5.113328e-01
5.133161e-01
5.187590e-01
5.266985e-01
5.363449e-01
5.462057e-01
5.559512e-01
5.643507e-01
0.000000e+00
1.000000e+00
5.639184e-01
5.545725e-01
5.441684e-01
5.335314e-01
5.234739e-01
5.150570e-01
5.094281e-01
5.074961e-01
5.096001e-01
5.153800e-01
5.238211e-01
5.340573e-01
5.445432e-01
5.549022e-01
5.638418e-01
0.000000e+00
1.000000e+00
5.635736e-01
5.539118e-01
5.431223e-01
5.320988e-01
5.216739e-01
5.129480e-01
5.071109e-01
5.051056e-01
5.072837e-01
5.132722e-01
5.220403e-01
5.326189e-01
5.435016e-01
5.542989e-01
5.635616e-01
0.000000e+00
1.000000e+00
5.634177e-01
5.536539e-01
5.427054e-01
5.315276e-01
5.209542e-01
5.121022e-01
5.061795e-01
5.041435e-01
5.063511e-01
5.124223e-01
5.213394e-01
5.320116e-01
5.430656e-01
5.540297e-01
5.634783e-01
0.000000e+00
1.000000e+00
5.634343e-01
5.537664e-01
5.428687e-01
5.317515e-01
5.212329e-01
5.124254e-01
5.065319e-01
5.045054e-01
5.067015e-01
5.127392e-01
5.216202e-01
5.322104e-01
5.432422e-01
5.541041e-01
5.635041e-01
0.000000e+00
1.000000e+00
5.638653e-01
5.541770e-01
5.435414e-01
5.326766e-01
5.223958e-01
5.137859e-01
5.080227e-01
5.060385e-01
5.081825e-01
5.140836e-01
5.227639e-01
5.331504e-01
5.439187e-01
5.544671e-01
5.636239e-01
0.000000e+00
1.000000e+00
5.739195e-01
5.743773e-01
5.751912e-01
5.759963e-01
5.767598e-01
5.774014e-01
5.778335e-01
5.779856e-01
5.778303e-01
5.773950e-01
5.767550e-01
5.760219e-01
5.752738e-01
5.744657e-01
5.734419e-01
0.000000e+00
1.000000e+00
5.734083e-01
5.734886e-01
5.737769e-01
5.740591e-01
5.743267e-01
5.745512e-01
5.747016e-01
5.747530e-01
5.746956e-01
5.745402e-01
5.743199e-01
5.740869e-01
5.738314e-01
5.735776e-01
5.727920e-01
0.000000e+00
1.000000e+00
5.727562e-01
5.722643e-01
5.718392e-01
5.714060e-01
5.709948e-01
5.706486e-01
5.704144e-01
5.703298e-01
5.704097e-01
5.706403e-01
5.710073e-01
5.714837e-01
5.718978e-01
5.723524e-01
5.721911e-01
0.000000e+00
1.000000e+00
5.718924e-01
5.706922e-01
5.693629e-01
5.680137e-01
5.667337e-01
5.656578e-01
5.649334e-01
5.646783e-01
5.649401e-01
5.656745e-01
5.667946e-01
5.681332e-01
5.694689e-01
5.707790e-01
5.715921e-01
0.000000e+00
1.000000e+00
5.708981e-01
5.687857e-01
5.663788e-01
5.639264e-01
5.616012e-01
5.596497e-01
5.583399e-01
5.578854e-01
5.583720e-01
5.597106e-01
5.617146e-01
5.640845e-01
5.665231e-01
5.688998e-01
5.705895e-01
0.000000e+00
1.000000e+00
5.698266e-01
5.665989e-01
5.629698e-01
5.592596e-01
5.557448e-01
5.527990e-01
5.508274e-01
5.501509e-01
5.508940e-01
5.529070e-01
5.559062e-01
5.594618e-01
5.631476e-01
5.667569e-01
5.695092e-01
0.000000e+00
1.000000e+00
5.687277e-01
5.642327e-01
5.592736e-01
5.542008e-01
5.493984e-01
5.453771e-01
5.426883e-01
5.417682e-01
5.427811e-01
5.455175e-01
5.496014e-01
5.544482e-01
5.594778e-01
5.644280e-01
5.683656e-01
0.000000e+00
1.000000e+00
5.675628e-01
5.617996e-01
5.554666e-01
5.489908e-01
5.428639e-01
5.377355e-01
5.343070e-01
5.331322e-01
5.344189e-01
5.379057e-01
5.431074e-01
5.492953e-01
5.556903e-01
5.620202e-01
5.672350e-01
0.000000e+00
1.000000e+00
5.664233e-01
5.594244e-01
5.517540e-01
5.439116e-01
5.364940e-01
5.302857e-01
5.261344e-01
5.247102e-01
5.262648e-01
5.304940e-01
5.367735e-01
5.442836e-01
5.520048e-01
5.596693e-01
5.661226e-01
0.000000e+00
1.000000e+00
5.653667e-01
5.572376e-01
5.483423e-01
5.392475e-01
5.306482e-01
5.234509e-01
5.186371e-01
5.169847e-01
5.187847e-01
5.237013e-01
5.309575e-01
5.396869e-01
5.486393e-01
5.575165e-01
5.651017e-01
0.000000e+00
1.000000e+00
5.645141e-01
5.553659e-01
5.454241e-01
5.352609e-01
5.256522e-01
5.176087e-01
5.122274e-01
5.103786e-01
5.123879e-01
5.178939e-01
5.259828e-01
5.357531e-01
5.457714e-01
5.556730e-01
5.642224e-01
0.000000e+00
1.000000e+00
5.637883e-01
5.539031e-01
5.431459e-01
5.321478e-01
5.217490e-01
5.130427e-01
5.072166e-01
5.052135e-01
5.073861e-01
5.133538e-01
5.220967e-01
5.326675e-01
5.435470e-01
5.542382e-01
5.635349e-01
0.000000e+00
1.000000e+00
5.632412e-01
5.529090e-01
5.415953e-01
5.300247e-01
5.190834e-01
5.099222e-01
5.037910e-01
5.016815e-01
5.039657e-01
5.102494e-01
5.194504e-01
5.305352e-01
5.420380e-01
5.533068e-01
5.630535e-01
0.000000e+00
1.000000e+00
5.629141e-01
5.524044e-01
5.407927e-01
5.289208e-01
5.176932e-01
5.082923e-01
5.020004e-01
4.998352e-01
5.021781e-01
5.086269e-01
5.180870e-01
5.293962e-01
5.412220e-01
5.529002e-01
5.628010e-01
0.000000e+00
1.000000e+00
5.628411e-01
5.523566e-01
5.406998e-01
5.287883e-01
5.175219e-01
5.080887e-01
5.017757e-01
4.996037e-01
5.019546e-01
5.084243e-01
5.179390e-01
5.292246e-01
5.410976e-01
5.528486e-01
5.627385e-01
0.000000e+00
1.000000e+00
5.630035e-01
5.527136e-01
5.412410e-01
5.295260e-01
5.184444e-01
5.091659e-01
5.029569e-01
5.008215e-01
5.031350e-01
5.094974e-01
5.188586e-01
5.299727e-01
5.416637e-01
5.530786e-01
5.629097e-01
0.000000e+00
1.000000e+00
5.635361e-01
5.533908e-01
5.423177e-01
5.310032e-01
5.202993e-01
5.113360e-01
5.053372e-01
5.032735e-01
5.055083e-01
5.116547e-01
5.207016e-01
5.314794e-01
5.427210e-01
5.536461e-01
5.632464e-01
0.000000e+00
1.000000e+00
5.744039e-01
5.753404e-01
5.767027e-01
5.780659e-01
5.793590e-01
5.804459e-01
5.811785e-01
5.814376e-01
5.811766e-01
5.804417e-01
5.793667e-01
5.781396e-01
5.768506e-01
5.754665e-01
5.739940e-01
0.000000e+00
1.000000e+00
5.737785e-01
5.742347e-01
5.749481e-01
5.756633e-01
5.763416e-01
5.769116e-01
5.772952e-01
5.774293e-01
5.772892e-01
5.768996e-01
5.763340e-01
5.757093e-01
5.750694e-01
5.743569e-01
5.733315e-01
0.000000e+00
1.000000e+00
5.730083e-01
5.727628e-01
5.726215e-01
5.724773e-01
5.723401e-01
5.722240e-01
5.721444e-01
5.721136e-01
5.721363e-01
5.722093e-01
5.723490e-01
5.725643e-01
5.727172e-01
5.728756e-01
5.726659e-01
0.000000e+00
1.000000e+00
5.720219e-01
5.709186e-01
5.697148e-01
5.684963e-01
5.673403e-01
5.663688e-01
5.657148e-01
5.654840e-01
5.657195e-01
5.663807e-01
5.674099e-01
5.686459e-01
5.698452e-01
5.710111e-01
5.718980e-01
0.000000e+00
1.000000e+00
5.708335e-01
5.687242e-01
5.662694e-01
5.637762e-01
5.614118e-01
5.594271e-01
5.580954e-01
5.576343e-01
5.581314e-01
5.594942e-01
5.615441e-01
5.639657e-01
5.664458e-01
5.688285e-01
5.708180e-01
0.000000e+00
1.000000e+00
5.695853e-01
5.662315e-01
5.623881e-01
5.584612e-01
5.547406e-01
5.516231e-01
5.495386e-01
5.488266e-01
5.496159e-01
5.517457e-01
5.549245e-01
5.586959e-01
5.625920e-01
5.663691e-01
5.695564e-01
0.000000e+00
1.000000e+00
5.683574e-01
5.635674e-01
5.582358e-01
5.527774e-01
5.476119e-01
5.432894e-01
5.404032e-01
5.394200e-01
5.405115e-01
5.434467e-01
5.478440e-01
5.530669e-01
5.584634e-01
5.637461e-01
5.681919e-01
0.000000e+00
1.000000e+00
5.671328e-01
5.608714e-01
5.540230e-01
5.470155e-01
5.403896e-01
5.348468e-01
5.311439e-01
5.298770e-01
5.312673e-01
5.350237e-01
5.406635e-01
5.473716e-01
5.542721e-01
5.610842e-01
5.668504e-01
0.000000e+00
1.000000e+00
5.659667e-01
5.582928e-01
5.499891e-01
5.415026e-01
5.334791e-01
5.267639e-01
5.222728e-01
5.207301e-01
5.224059e-01
5.269669e-01
5.337847e-01
5.419290e-01
5.502663e-01
5.585405e-01
5.655769e-01
0.000000e+00
1.000000e+00
5.649140e-01
5.559818e-01
5.463696e-01
5.365571e-01
5.272773e-01
5.195071e-01
5.143078e-01
5.125201e-01
5.144561e-01
5.197493e-01
5.276078e-01
5.370466e-01
5.466827e-01
5.562545e-01
5.644719e-01
0.000000e+00
1.000000e+00
5.640426e-01
5.540653e-01
5.433669e-01
5.324579e-01
5.221373e-01
5.134931e-01
5.077069e-01
5.057153e-01
5.078674e-01
5.137690e-01
5.224836e-01
5.329895e-01
5.437296e-01
5.543501e-01
5.635618e-01
0.000000e+00
1.000000e+00
5.634796e-01
5.526414e-01
5.411327e-01
5.294057e-01
5.183080e-01
5.090112e-01
5.027866e-01
5.006420e-01
5.029545e-01
5.093128e-01
5.186677e-01
5.299383e-01
5.415614e-01
5.529407e-01
5.628620e-01
0.000000e+00
1.000000e+00
5.628841e-01
5.517290e-01
5.397401e-01
5.274971e-01
5.159113e-01
5.062057e-01
4.997072e-01
4.974678e-01
4.998822e-01
5.065283e-01
5.162967e-01
5.279842e-01
5.402222e-01
5.521035e-01
5.623877e-01
0.000000e+00
1.000000e+00
5.625375e-01
5.513685e-01
5.391898e-01
5.267361e-01
5.149536e-01
5.050848e-01
4.984777e-01
4.962019e-01
4.986583e-01
5.054230e-01
5.153736e-01
5.271644e-01
5.396362e-01
5.518131e-01
5.621864e-01
0.000000e+00
1.000000e+00
5.625490e-01
5.515223e-01
5.394198e-01
5.270444e-01
5.153384e-01
5.055355e-01
4.989737e-01
4.967149e-01
4.991569e-01
5.058817e-01
5.157736e-01
5.274646e-01
5.398527e-01
5.519491e-01
5.623015e-01
0.000000e+00
1.000000e+00
5.628056e-01
5.521182e-01
5.403313e-01
5.282863e-01
5.168943e-01
5.073560e-01
5.009729e-01
4.987778e-01
5.011570e-01
5.077025e-01
5.173145e-01
5.287708e-01
5.407868e-01
5.524601e-01
5.626459e-01
0.000000e+00
1.000000e+00
5.634217e-01
5.530579e-01
5.417996e-01
5.302954e-01
5.194141e-01
5.103037e-01
5.042076e-01
5.021125e-01
5.043877e-01
5.106419e-01
5.198320e-01
5.308104e-01
5.421954e-01
5.533298e-01
5.630353e-01
0.000000e+00
1.000000e+00
5.750508e-01
5.765409e-01
5.785916e-01
5.806524e-01
5.826073e-01
5.842510e-01
5.853597e-01
5.857538e-01
5.853632e-01
5.842609e-01
5.826594e-01
5.808016e-01
5.787957e-01
5.767082e-01
5.745560e-01
0.000000e+00
1.000000e+00
5.743208e-01
5.752421e-01
5.765305e-01
5.778303e-01
5.790636e-01
5.801007e-01
5.807995e-01
5.810463e-01
5.807961e-01
5.800924e-01
5.790711e-01
5.779288e-01
5.767321e-01
5.754123e-01
5.737886e-01
0.000000e+00
1.000000e+00
5.734109e-01
5.735458e-01
5.738491e-01
5.741583e-01
5.744516e-01
5.746977e-01
5.748627e-01
5.749189e-01
5.748551e-01
5.746821e-01
5.744572e-01
5.742565e-01
5.740148e-01
5.737062e-01
5.730545e-01
0.000000e+00
1.000000e+00
5.723108e-01
5.714538e-01
5.705529e-01
5.696443e-01
5.687827e-01
5.680587e-01
5.675714e-01
5.673985e-01
5.675709e-01
5.680615e-01
5.688584e-01
5.698198e-01
5.707118e-01
5.715812e-01
5.721256e-01
0.000000e+00
1.000000e+00
5.709660e-01
5.689984e-01
5.666910e-01
5.643546e-01
5.621391e-01
5.602798e-01
5.590328e-01
5.586020e-01
5.590658e-01
5.603434e-01
5.622952e-01
5.645697e-01
5.669044e-01
5.691271e-01
5.709793e-01
0.000000e+00
1.000000e+00
5.695533e-01
5.662415e-01
5.623883e-01
5.584605e-01
5.547382e-01
5.516188e-01
5.495338e-01
5.488238e-01
5.496136e-01
5.517456e-01
5.549530e-01
5.587157e-01
5.626221e-01
5.663866e-01
5.696540e-01
0.000000e+00
1.000000e+00
5.681690e-01
5.633150e-01
5.578328e-01
5.522223e-01
5.469127e-01
5.424713e-01
5.395087e-01
5.385037e-01
5.396253e-01
5.426386e-01
5.471807e-01
5.525354e-01
5.580818e-01
5.634909e-01
5.681968e-01
0.000000e+00
1.000000e+00
5.668248e-01
5.603841e-01
5.532644e-01
5.459745e-01
5.390847e-01
5.333249e-01
5.294805e-01
5.281684e-01
5.296113e-01
5.335097e-01
5.393950e-01
5.463660e-01
5.535272e-01
5.605900e-01
5.667269e-01
0.000000e+00
1.000000e+00
5.656472e-01
5.576255e-01
5.489541e-01
5.400913e-01
5.317164e-01
5.247089e-01
5.200224e-01
5.184117e-01
5.201535e-01
5.249077e-01
5.320509e-01
5.405659e-01
5.492453e-01
5.578706e-01
5.653031e-01
0.000000e+00
1.000000e+00
5.646865e-01
5.552252e-01
5.451732e-01
5.349315e-01
5.252427e-01
5.171271e-01
5.116938e-01
5.098199e-01
5.118331e-01
5.173553e-01
5.255889e-01
5.354660e-01
5.454987e-01
5.554784e-01
5.641073e-01
0.000000e+00
1.000000e+00
5.640952e-01
5.533420e-01
5.421350e-01
5.307732e-01
5.200181e-01
5.110087e-01
5.049769e-01
5.028960e-01
5.051331e-01
5.112765e-01
5.203786e-01
5.313420e-01
5.425097e-01
5.535336e-01
5.631930e-01
0.000000e+00
1.000000e+00
5.639255e-01
5.520228e-01
5.399782e-01
5.278168e-01
5.163039e-01
5.066596e-01
5.002021e-01
4.979749e-01
5.003691e-01
5.069588e-01
5.166779e-01
5.283756e-01
5.404229e-01
5.521505e-01
5.625246e-01
0.000000e+00
1.000000e+00
5.631271e-01
5.511807e-01
5.387536e-01
5.261406e-01
5.142011e-01
5.041992e-01
4.975021e-01
4.951931e-01
4.976785e-01
5.045242e-01
5.146024e-01
5.266421e-01
5.392463e-01
5.514122e-01
5.621623e-01
0.000000e+00
1.000000e+00
5.625212e-01
5.509093e-01
5.384464e-01
5.257225e-01
5.136803e-01
5.035928e-01
4.968388e-01
4.945116e-01
4.970214e-01
5.039361e-01
5.141089e-01
5.261745e-01
5.389226e-01
5.512779e-01
5.620497e-01
0.000000e+00
1.000000e+00
5.625499e-01
5.512352e-01
5.389809e-01
5.264530e-01
5.146008e-01
5.046740e-01
4.980286e-01
4.957406e-01
4.982134e-01
5.050269e-01
5.150273e-01
5.269366e-01
5.394619e-01
5.516111e-01
5.622313e-01
0.000000e+00
1.000000e+00
5.628891e-01
5.520489e-01
5.402378e-01
5.281637e-01
5.167453e-01
5.071848e-01
5.007872e-01
4.985880e-01
5.009744e-01
5.075418e-01
5.171536e-01
5.287186e-01
5.406845e-01
5.523838e-01
5.626814e-01
0.000000e+00
1.000000e+00
5.634786e-01
5.532244e-01
5.420615e-01
5.306535e-01
5.198657e-01
5.108353e-01
5.047946e-01
5.027212e-01
5.049806e-01
5.111888e-01
5.202825e-01
5.312215e-01
5.424163e-01
5.535414e-01
5.629523e-01
0.000000e+00
1.000000e+00
5.758331e-01
5.779362e-01
5.807982e-01
5.836743e-01
5.864027e-01
5.886975e-01
5.902466e-01
5.907998e-01
5.902609e-01
5.887380e-01
5.865288e-01
5.838927e-01
5.810498e-01
5.781423e-01
5.752626e-01
0.000000e+00
1.000000e+00
5.750274e-01
5.764724e-01
5.784742e-01
5.804923e-01
5.824072e-01
5.840181e-01
5.851050e-01
5.854915e-01
5.851079e-01
5.840228e-01
5.824672e-01
5.806821e-01
5.787496e-01
5.766908e-01
5.743945e-01
0.000000e+00
1.000000e+00
5.739994e-01
5.745884e-01
5.754904e-01
5.764064e-01
5.772757e-01
5.780068e-01
5.784994e-01
5.786726e-01
5.784941e-01
5.779921e-01
5.772850e-01
5.765362e-01
5.757515e-01
5.748019e-01
5.736202e-01
0.000000e+00
1.000000e+00
5.727548e-01
5.722867e-01
5.718600e-01
5.714342e-01
5.710308e-01
5.706924e-01
5.704647e-01
5.703834e-01
5.704626e-01
5.706883e-01
5.711020e-01
5.716175e-01
5.720656e-01
5.724589e-01
5.725296e-01
0.000000e+00
1.000000e+00
5.713092e-01
5.696101e-01
5.676499e-01
5.656689e-01
5.637911e-01
5.622157e-01
5.611588e-01
5.607933e-01
5.611842e-01
5.622673e-01
5.639670e-01
5.659050e-01
5.678993e-01
5.697745e-01
5.711991e-01
0.000000e+00
1.000000e+00
5.697504e-01
5.666404e-01
5.629979e-01
5.592963e-01
5.557880e-01
5.528478e-01
5.508829e-01
5.502149e-01
5.509582e-01
5.529712e-01
5.560317e-01
5.595669e-01
5.632712e-01
5.668071e-01
5.697807e-01
0.000000e+00
1.000000e+00
5.682175e-01
5.635078e-01
5.581176e-01
5.526111e-01
5.473982e-01
5.430371e-01
5.401295e-01
5.391453e-01
5.402458e-01
5.432079e-01
5.476955e-01
5.529310e-01
5.583924e-01
5.636911e-01
5.682794e-01
0.000000e+00
1.000000e+00
5.667552e-01
5.603946e-01
5.532724e-01
5.459811e-01
5.390900e-01
5.333313e-01
5.294907e-01
5.281822e-01
5.296224e-01
5.335228e-01
5.394328e-01
5.463784e-01
5.535469e-01
5.605967e-01
5.667574e-01
0.000000e+00
1.000000e+00
5.654624e-01
5.574920e-01
5.487547e-01
5.398167e-01
5.313740e-01
5.243125e-01
5.195917e-01
5.179691e-01
5.197196e-01
5.245142e-01
5.317426e-01
5.403029e-01
5.490498e-01
5.577373e-01
5.652444e-01
0.000000e+00
1.000000e+00
5.645032e-01
5.550146e-01
5.448619e-01
5.345122e-01
5.247216e-01
5.165205e-01
5.110278e-01
5.091287e-01
5.111569e-01
5.167432e-01
5.250953e-01
5.350577e-01
5.451835e-01
5.552746e-01
5.639698e-01
0.000000e+00
1.000000e+00
5.644246e-01
5.532002e-01
5.418318e-01
5.303556e-01
5.194902e-01
5.103876e-01
5.042893e-01
5.021824e-01
5.044396e-01
5.106507e-01
5.198736e-01
5.309255e-01
5.421742e-01
5.533218e-01
5.630701e-01
0.000000e+00
1.000000e+00
5.648769e-01
5.519842e-01
5.397634e-01
5.275143e-01
5.159218e-01
5.062125e-01
4.997096e-01
4.974675e-01
4.998795e-01
5.065177e-01
5.163287e-01
5.280867e-01
5.401546e-01
5.519925e-01
5.624511e-01
0.000000e+00
1.000000e+00
5.640049e-01
5.512571e-01
5.387161e-01
5.260820e-01
5.141248e-01
5.041091e-01
4.974030e-01
4.950913e-01
4.975807e-01
5.044395e-01
5.145486e-01
5.266012e-01
5.391552e-01
5.513561e-01
5.621554e-01
0.000000e+00
1.000000e+00
5.629338e-01
5.510869e-01
5.386444e-01
5.259957e-01
5.140225e-01
5.039921e-01
4.972760e-01
4.949617e-01
4.974571e-01
5.043361e-01
5.144485e-01
5.264921e-01
5.391220e-01
5.513629e-01
5.620551e-01
0.000000e+00
1.000000e+00
5.628614e-01
5.515476e-01
5.394546e-01
5.271058e-01
5.154228e-01
5.056375e-01
4.990870e-01
4.968321e-01
4.992708e-01
5.059922e-01
5.158362e-01
5.276596e-01
5.399368e-01
5.518678e-01
5.623327e-01
0.000000e+00
1.000000e+00
5.631347e-01
5.525391e-01
5.410110e-01
5.292234e-01
5.180774e-01
5.087463e-01
5.025035e-01
5.003594e-01
5.026913e-01
5.091076e-01
5.184791e-01
5.298152e-01
5.414350e-01
5.528997e-01
5.628751e-01
0.000000e+00
1.000000e+00
5.637126e-01
5.539103e-01
5.431353e-01
5.321204e-01
5.217057e-01
5.129899e-01
5.071623e-01
5.051658e-01
5.073512e-01
5.133511e-01
5.221212e-01
5.327060e-01
5.434737e-01
5.542787e-01
5.630193e-01
0.000000e+00
1.000000e+00
5.766732e-01
5.794740e-01
5.832326e-01
5.870081e-01
5.905900e-01
5.936034e-01
5.956391e-01
5.963695e-01
5.956701e-01
5.936919e-01
5.907987e-01
5.872773e-01
5.835225e-01
5.797268e-01
5.759948e-01
0.000000e+00
1.000000e+00
5.757915e-01
5.778771e-01
5.806952e-01
5.835335e-01
5.862269e-01
5.884934e-01
5.900238e-01
5.905707e-01
5.900370e-01
5.885306e-01
5.863778e-01
5.838121e-01
5.810249e-01
5.781407e-01
5.750723e-01
0.000000e+00
1.000000e+00
5.746720e-01
5.758450e-01
5.774712e-01
5.791195e-01
5.806840e-01
5.820002e-01
5.828880e-01
5.832029e-01
5.828876e-01
5.819932e-01
5.807356e-01
5.793335e-01
5.778302e-01
5.761166e-01
5.742090e-01
0.000000e+00
1.000000e+00
5.733234e-01
5.733792e-01
5.735776e-01
5.737869e-01
5.739864e-01
5.741556e-01
5.742710e-01
5.743114e-01
5.742681e-01
5.741472e-01
5.740459e-01
5.739690e-01
5.738635e-01
5.736074e-01
5.730953e-01
0.000000e+00
1.000000e+00
5.718127e-01
5.705328e-01
5.691010e-01
5.676570e-01
5.662891e-01
5.651422e-01
5.643730e-01
5.641059e-01
5.643905e-01
5.651789e-01
5.664727e-01
5.679125e-01
5.693862e-01
5.707392e-01
5.716669e-01
0.000000e+00
1.000000e+00
5.701594e-01
5.674051e-01
5.641933e-01
5.609355e-01
5.578487e-01
5.552619e-01
5.535318e-01
5.529421e-01
5.535962e-01
5.553750e-01
5.581130e-01
5.612172e-01
5.645135e-01
5.676049e-01
5.701552e-01
0.000000e+00
1.000000e+00
5.685097e-01
5.641354e-01
5.590844e-01
5.539368e-01
5.490622e-01
5.449826e-01
5.422626e-01
5.413417e-01
5.423742e-01
5.451515e-01
5.493774e-01
5.542527e-01
5.593941e-01
5.643269e-01
5.686491e-01
0.000000e+00
1.000000e+00
5.669669e-01
5.609092e-01
5.540596e-01
5.470569e-01
5.404357e-01
5.349018e-01
5.312122e-01
5.299556e-01
5.313436e-01
5.350952e-01
5.407980e-01
5.474326e-01
5.543512e-01
5.611007e-01
5.671171e-01
0.000000e+00
1.000000e+00
5.655845e-01
5.579276e-01
5.494252e-01
5.407275e-01
5.325115e-01
5.256414e-01
5.210503e-01
5.194726e-01
5.211792e-01
5.258467e-01
5.329071e-01
5.411818e-01
5.497177e-01
5.581451e-01
5.655608e-01
0.000000e+00
1.000000e+00
5.644662e-01
5.553950e-01
5.454853e-01
5.353593e-01
5.257838e-01
5.177647e-01
5.123946e-01
5.105394e-01
5.125229e-01
5.179911e-01
5.261908e-01
5.358737e-01
5.457921e-01
5.556474e-01
5.642026e-01
0.000000e+00
1.000000e+00
5.641418e-01
5.535669e-01
5.424868e-01
5.312540e-01
5.206210e-01
5.117122e-01
5.057420e-01
5.036793e-01
5.058883e-01
5.119744e-01
5.210360e-01
5.317917e-01
5.427990e-01
5.537275e-01
5.632847e-01
0.000000e+00
1.000000e+00
5.648621e-01
5.524614e-01
5.405344e-01
5.285710e-01
5.172468e-01
5.077620e-01
5.014092e-01
4.992178e-01
5.015756e-01
5.080648e-01
5.176794e-01
5.291056e-01
5.408702e-01
5.524771e-01
5.626839e-01
0.000000e+00
1.000000e+00
5.642194e-01
5.518597e-01
5.396579e-01
5.273740e-01
5.157453e-01
5.060042e-01
4.994825e-01
4.972346e-01
4.996563e-01
5.063305e-01
5.161800e-01
5.278846e-01
5.400330e-01
5.519274e-01
5.624447e-01
0.000000e+00
1.000000e+00
5.632561e-01
5.518225e-01
5.397961e-01
5.275742e-01
5.160061e-01
5.063150e-01
4.998260e-01
4.975904e-01
5.000027e-01
5.066544e-01
5.164255e-01
5.281127e-01
5.402316e-01
5.520656e-01
5.623632e-01
0.000000e+00
1.000000e+00
5.631915e-01
5.524351e-01
5.408445e-01
5.290050e-01
5.178071e-01
5.084298e-01
5.021537e-01
4.999950e-01
5.023346e-01
5.087816e-01
5.182130e-01
5.295900e-01
5.412676e-01
5.527507e-01
5.626900e-01
0.000000e+00
1.000000e+00
5.635559e-01
5.535823e-01
5.426432e-01
5.314524e-01
5.208727e-01
5.120181e-01
5.060964e-01