<?xml version="1.0"?>
<VTKFile type="StructuredGrid" version="0.1">
  <StructuredGrid WholeExtent="0 16 0 16 0 16">
    <Piece Extent="0 16 0 16 0 16">
      <PointData Scalars="temperature" Vectors="velocity">
        <DataArray type="Float32" Name="temperature" format="ascii">
1.000000e+00
5.726640e-01
5.722945e-01
5.718888e-01
5.714775e-01
5.710877e-01
5.707606e-01
5.705403e-01
5.704620e-01
5.705393e-01
5.707598e-01
5.710904e-01
5.715293e-01
5.719457e-01
5.726767e-01
5.711653e-01
0.000000e+00
1.000000e+00
5.734352e-01
5.738727e-01
5.743611e-01
5.748625e-01
5.753382e-01
5.757379e-01
5.760070e-01
5.761009e-01
5.760024e-01
5.757293e-01
5.753273e-01
5.748942e-01
5.744168e-01
5.741899e-01
5.722434e-01
0.000000e+00
1.000000e+00
5.743436e-01
5.757320e-01
5.772744e-01
5.788514e-01
5.803468e-01
5.816033e-01
5.824491e-01
5.827466e-01
5.824427e-01
5.815921e-01
5.803350e-01
5.788668e-01
5.773322e-01
5.760566e-01
5.727113e-01
0.000000e+00
1.000000e+00
5.753763e-01
5.778358e-01
5.805725e-01
5.833674e-01
5.860177e-01
5.882443e-01
5.897436e-01
5.902724e-01
5.897380e-01
5.882374e-01
5.860173e-01
5.833905e-01
5.806289e-01
5.781922e-01
5.736315e-01
0.000000e+00
1.000000e+00
5.765024e-01
5.801219e-01
5.841586e-01
5.882777e-01
5.921840e-01
5.954665e-01
5.976776e-01
5.984595e-01
5.976758e-01
5.954690e-01
5.921986e-01
5.883137e-01
5.842112e-01
5.804129e-01
5.749303e-01
0.000000e+00
1.000000e+00
5.776743e-01
5.825046e-01
5.878975e-01
5.933967e-01
5.986119e-01
6.029950e-01
6.059489e-01
6.069958e-01
6.059528e-01
6.030080e-01
5.986389e-01
5.934426e-01
5.879506e-01
5.827285e-01
5.761791e-01
0.000000e+00
1.000000e+00
5.788440e-01
5.848759e-01
5.916206e-01
5.984942e-01
6.050129e-01
6.104917e-01
6.141848e-01
6.154958e-01
6.141950e-01
6.105150e-01
6.050516e-01
5.985514e-01
5.916771e-01
5.850133e-01
5.778328e-01
0.000000e+00
1.000000e+00
5.799559e-01
5.871145e-01
5.951391e-01
6.033116e-01
6.110622e-01
6.175771e-01
6.219703e-01
6.235322e-01
6.219888e-01
6.176148e-01
6.111192e-01
6.033890e-01
5.952060e-01
5.872238e-01
5.791978e-01
0.000000e+00
1.000000e+00
5.809513e-01
5.890984e-01
5.982623e-01
6.075876e-01
6.164319e-01
6.238674e-01
6.288834e-01
6.306704e-01
6.289142e-01
6.239269e-01
6.165177e-01
6.076940e-01
5.983433e-01
5.891988e-01
5.803679e-01
0.000000e+00
1.000000e+00
5.817698e-01
5.907191e-01
6.008192e-01
6.110881e-01
6.208279e-01
6.290177e-01
6.345452e-01
6.365188e-01
6.345912e-01
6.291047e-01
6.209479e-01
6.112249e-01
6.009186e-01
5.908310e-01
5.813008e-01
0.000000e+00
1.000000e+00
5.823728e-01
5.918915e-01
6.026757e-01
6.136299e-01
6.240207e-01
6.327594e-01
6.386598e-01
6.407709e-01
6.387212e-01
6.328745e-01
6.241748e-01
6.137921e-01
6.027925e-01
5.920192e-01
5.818574e-01
0.000000e+00
1.000000e+00
5.827316e-01
5.925640e-01
6.037499e-01
6.151012e-01
6.258698e-01
6.349273e-01
6.410448e-01
6.432363e-01
6.411170e-01
6.350633e-01
6.260498e-01
6.152785e-01
6.038692e-01
5.927015e-01
5.821408e-01
0.000000e+00
1.000000e+00
5.828310e-01
5.927251e-01
6.040177e-01
6.154685e-01
6.263320e-01
6.354700e-01
6.416422e-01
6.438541e-01
6.417187e-01
6.356167e-01
6.265282e-01
6.156520e-01
6.041295e-01
5.928702e-01
5.822150e-01
0.000000e+00
1.000000e+00
5.826711e-01
5.924009e-01
6.035095e-01
6.147719e-01
6.254563e-01
6.344432e-01
6.405145e-01
6.426909e-01
6.405903e-01
6.345929e-01
6.256557e-01
6.149483e-01
6.036080e-01
5.925449e-01
5.820967e-01
0.000000e+00
1.000000e+00
5.822874e-01
5.916351e-01
6.022938e-01
6.131058e-01
6.233641e-01
6.319937e-01
6.378246e-01
6.399161e-01
6.378958e-01
6.321415e-01
6.235612e-01
6.132759e-01
6.023903e-01
5.917631e-01
5.817299e-01
0.000000e+00
1.000000e+00
5.817401e-01
5.904671e-01
6.004754e-01
6.106180e-01
6.202413e-01
6.283362e-01
6.338047e-01
6.357655e-01
6.338698e-01
6.284752e-01
6.204300e-01
6.107831e-01
6.005770e-01
5.905958e-01
5.812359e-01
0.000000e+00
1.000000e+00
5.810006e-01
5.890004e-01
5.981783e-01
6.074734e-01
6.162923e-01
6.237099e-01
6.287198e-01
6.305146e-01
6.287795e-01
6.238384e-01
6.164689e-01
6.076329e-01
5.982908e-01
5.891224e-01
5.805395e-01
0.000000e+00
1.000000e+00
5.733518e-01
5.737059e-01
5.741003e-01
5.745054e-01
5.748897e-01
5.752125e-01
5.754297e-01
5.755055e-01
5.754260e-01
5.752055e-01
5.748812e-01
5.745358e-01
5.741470e-01
5.740215e-01
5.715839e-01
0.000000e+00
1.000000e+00
5.741474e-01
5.753280e-01
5.766422e-01
5.779858e-01
5.792597e-01
5.803301e-01
5.810507e-01
5.813042e-01
5.810453e-01
5.803205e-01
5.792486e-01
5.780013e-01
5.766947e-01
5.754628e-01
5.736914e-01
0.000000e+00
1.000000e+00
5.750827e-01
5.772357e-01
5.796327e-01
5.820805e-01
5.844015e-01
5.863515e-01
5.876645e-01
5.881277e-01
5.876594e-01
5.863447e-01
5.843990e-01
5.820983e-01
5.796923e-01
5.773853e-01
5.743478e-01
0.000000e+00
1.000000e+00
5.761422e-01
5.793900e-01
5.830111e-01
5.867065e-01
5.902107e-01
5.931552e-01
5.951385e-01
5.958397e-01
5.951362e-01
5.931556e-01
5.902211e-01
5.867371e-01
5.830688e-01
5.795190e-01
5.754949e-01
0.000000e+00
1.000000e+00
5.772905e-01
5.817238e-01
5.866731e-01
5.917203e-01
5.965067e-01
6.005291e-01
6.032396e-01
6.041998e-01
6.032419e-01
6.005386e-01
5.965283e-01
5.917611e-01
5.867323e-01
5.818350e-01
5.768634e-01
0.000000e+00
1.000000e+00
5.784821e-01
5.841435e-01
5.904713e-01
5.969205e-01
6.030364e-01
6.081766e-01
6.116411e-01
6.128702e-01
6.116488e-01
6.081954e-01
6.030683e-01
5.969733e-01
5.905361e-01
5.842486e-01
5.779188e-01
0.000000e+00
1.000000e+00
5.796645e-01
5.865306e-01
5.942215e-01
6.020550e-01
6.094840e-01
6.157282e-01
6.199382e-01
6.214339e-01
6.199530e-01
6.157591e-01
6.095305e-01
6.021277e-01
5.942980e-01
5.866237e-01
5.792445e-01
0.000000e+00
1.000000e+00
5.807751e-01
5.887537e-01
5.977188e-01
6.068432e-01
6.154966e-01
6.227709e-01
6.276774e-01
6.294239e-01
6.277034e-01
6.228214e-01
6.155687e-01
6.069458e-01
5.978143e-01
5.888600e-01
5.803740e-01
0.000000e+00
1.000000e+00
5.817494e-01
5.906813e-01
6.007582e-01
6.110042e-01
6.207219e-01
6.288925e-01
6.344063e-01
6.363737e-01
6.344487e-01
6.289723e-01
6.208316e-01
6.111403e-01
6.008787e-01
5.908015e-01
5.812963e-01
0.000000e+00
1.000000e+00
5.825284e-01
5.921981e-01
6.031587e-01
6.142904e-01
6.248493e-01
6.337293e-01
6.397252e-01
6.418704e-01
6.397872e-01
6.338436e-01
6.250009e-01
6.144599e-01
6.033025e-01
5.923342e-01
5.820075e-01
0.000000e+00
1.000000e+00
5.830720e-01
5.932166e-01
6.047839e-01
6.165159e-01
6.276461e-01
6.370087e-01
6.433335e-01
6.456011e-01
6.434125e-01
6.371535e-01
6.278351e-01
6.167166e-01
6.049392e-01
5.933720e-01
5.824903e-01
0.000000e+00
1.000000e+00
5.833525e-01
5.936884e-01
6.055580e-01
6.175778e-01
6.289828e-01
6.385775e-01
6.450605e-01
6.473874e-01
6.451495e-01
6.387418e-01
6.291987e-01
6.177979e-01
6.057129e-01
5.938699e-01
5.826983e-01
0.000000e+00
1.000000e+00
5.833571e-01
5.936107e-01
6.054711e-01
6.174614e-01
6.288389e-01
6.384105e-01
6.448779e-01
6.471993e-01
6.449689e-01
6.385826e-01
6.290693e-01
6.176894e-01
6.056173e-01
5.938109e-01
5.826721e-01
0.000000e+00
1.000000e+00
5.830911e-01
5.930274e-01
6.045724e-01
6.162314e-01
6.272940e-01
6.366007e-01
6.428898e-01
6.451467e-01
6.429768e-01
6.367727e-01
6.275253e-01
6.164484e-01
6.047052e-01
5.932305e-01
5.825035e-01
0.000000e+00
1.000000e+00
5.825937e-01
5.919966e-01
6.029530e-01
6.140144e-01
6.245098e-01
6.333390e-01
6.393055e-01
6.414471e-01
6.393852e-01
6.335043e-01
6.247317e-01
6.142174e-01
6.030849e-01
5.921955e-01
5.820256e-01
0.000000e+00
1.000000e+00
5.818893e-01
5.905971e-01
6.007395e-01
6.109831e-01
6.207021e-01
6.288772e-01
6.344004e-01
6.363825e-01
6.344724e-01
6.290286e-01
6.209049e-01
6.111679e-01
6.008728e-01
5.907806e-01
5.813695e-01
0.000000e+00
1.000000e+00
5.809956e-01
5.889205e-01
5.980687e-01
6.073246e-01
6.161058e-01
6.234910e-01
6.284790e-01
6.302672e-01
6.285432e-01
6.236223e-01
6.162785e-01
6.074829e-01
5.981862e-01
5.890762e-01
5.807955e-01
0.000000e+00
1.000000e+00
5.739451e-01
5.749189e-01
5.760017e-01
5.771088e-01
5.781585e-01
5.790404e-01
5.796340e-01
5.798430e-01
5.796297e-01
5.790325e-01
5.781496e-01
5.771226e-01
5.760382e-01
5.751361e-01
5.724004e-01
0.000000e+00
1.000000e+00
5.747567e-01
5.765684e-01
5.785874e-01
5.806492e-01
5.826041e-01
5.842465e-01
5.853525e-01
5.857427e-01
5.853484e-01
5.842406e-01
5.826005e-01
5.806606e-01
5.786339e-01
5.766502e-01
5.744455e-01
0.000000e+00
1.000000e+00
5.757095e-01
5.785066e-01
5.816268e-01
5.848109e-01
5.878301e-01
5.903671e-01
5.920758e-01
5.926799e-01
5.920735e-01
5.903663e-01
5.878365e-01
5.848328e-01
5.816821e-01
5.786143e-01
5.751383e-01
0.000000e+00
1.000000e+00
5.767855e-01
5.806923e-01
5.850560e-01
5.895061e-01
5.937260e-01
5.972723e-01
5.996618e-01
6.005081e-01
5.996633e-01
5.972792e-01
5.937428e-01
5.895402e-01
5.851149e-01
5.807820e-01
5.762706e-01
0.000000e+00
1.000000e+00
5.779479e-01
5.830546e-01
5.887634e-01
5.945821e-01
6.001000e-01
6.047373e-01
6.078627e-01
6.089712e-01
6.078688e-01
6.047524e-01
6.001255e-01
5.946290e-01
5.888319e-01
5.831470e-01
5.775686e-01
0.000000e+00
1.000000e+00
5.791508e-01
5.854915e-01
5.925902e-01
5.998215e-01
6.066792e-01
6.124429e-01
6.163285e-01
6.177084e-01
6.163406e-01
6.124680e-01
6.067161e-01
5.998870e-01
5.926712e-01
5.855896e-01
5.786782e-01
0.000000e+00
1.000000e+00
5.803372e-01
5.878755e-01
5.963384e-01
6.049532e-01
6.131230e-01
6.199905e-01
6.246218e-01
6.262691e-01
6.246429e-01
6.200321e-01
6.131816e-01
6.050475e-01
5.964370e-01
5.879780e-01
5.799259e-01
0.000000e+00
1.000000e+00
5.814387e-01
5.900653e-01
5.997880e-01
6.096758e-01
6.190533e-01
6.269373e-01
6.322564e-01
6.341528e-01
6.322928e-01
6.270065e-01
6.191498e-01
6.098063e-01
5.999113e-01
5.901850e-01
5.809840e-01
0.000000e+00
1.000000e+00
5.823867e-01
5.919210e-01
6.027209e-01
6.136907e-01
6.240956e-01
6.328451e-01
6.387520e-01
6.408641e-01
6.388097e-01
6.329521e-01
6.242410e-01
6.138652e-01
6.028538e-01
5.920577e-01
5.818605e-01
0.000000e+00
1.000000e+00
5.831213e-01
5.933211e-01
6.049476e-01
6.167393e-01
6.279256e-01
6.373350e-01
6.436913e-01
6.459705e-01
6.437709e-01
6.374799e-01
6.281162e-01
6.169481e-01
6.050938e-01
5.934778e-01
5.825273e-01
0.000000e+00
1.000000e+00
5.836016e-01
5.941762e-01
6.063315e-01
6.186359e-01
6.303109e-01
6.401335e-01
6.467714e-01
6.491557e-01
6.468663e-01
6.403058e-01
6.305328e-01
6.188616e-01
6.064966e-01
5.943674e-01
5.829361e-01
0.000000e+00
1.000000e+00
5.838007e-01
5.944413e-01
6.068054e-01
6.192890e-01
6.311351e-01
6.411015e-01
6.478369e-01
6.502572e-01
6.479375e-01
6.412868e-01
6.313772e-01
6.195271e-01
6.069778e-01
5.946738e-01
5.830814e-01
0.000000e+00
1.000000e+00
5.837049e-01
5.941240e-01
6.063751e-01
6.187039e-01
6.304016e-01
6.402421e-01
6.468914e-01
6.492793e-01
6.469893e-01
6.404288e-01
6.306527e-01
6.189513e-01
6.065486e-01
5.943912e-01
5.830169e-01
0.000000e+00
1.000000e+00
5.833210e-01
5.932946e-01
6.051083e-01
6.169689e-01
6.282213e-01
6.376866e-01
6.440826e-01
6.463782e-01
6.441722e-01
6.378678e-01
6.284696e-01
6.172078e-01
6.052707e-01
5.935777e-01
5.827695e-01
0.000000e+00
1.000000e+00
5.826926e-01
5.920346e-01
6.031142e-01
6.142377e-01
6.247904e-01
6.336671e-01
6.396652e-01
6.418181e-01
6.397446e-01
6.338363e-01
6.250242e-01
6.144565e-01
6.032599e-01
5.923079e-01
5.821534e-01
0.000000e+00
1.000000e+00
5.818352e-01
5.904431e-01
6.005390e-01
6.107097e-01
6.203586e-01
6.284743e-01
6.339569e-01
6.359239e-01
6.340274e-01
6.286242e-01
6.205659e-01
6.109015e-01
6.006778e-01
5.906760e-01
5.814337e-01
0.000000e+00
1.000000e+00
5.808220e-01
5.885779e-01
5.975346e-01
6.065937e-01
6.151879e-01
6.224157e-01
6.272969e-01
6.290463e-01
6.273593e-01
6.225429e-01
6.153595e-01
6.067528e-01
5.976578e-01
5.887885e-01
5.807988e-01
0.000000e+00
1.000000e+00
5.744038e-01
5.758531e-01
5.774668e-01
5.791147e-01
5.806772e-01
5.819900e-01
5.828740e-01
5.831859e-01
5.828706e-01
5.819848e-01
5.806733e-01
5.791226e-01
5.775006e-01
5.759799e-01
5.733268e-01
0.000000e+00
1.000000e+00
5.752198e-01
5.775059e-01
5.800582e-01
5.826632e-01
5.851331e-01
5.872084e-01
5.886062e-01
5.891004e-01
5.886042e-01
5.872069e-01
5.851360e-01
5.826771e-01
5.801011e-01
5.775512e-01
5.751189e-01
0.000000e+00
1.000000e+00
5.761769e-01
5.794485e-01
5.831059e-01
5.868359e-01
5.903730e-01
5.933453e-01
5.953479e-01
5.960570e-01
5.953484e-01
5.933495e-01
5.903840e-01
5.868615e-01
5.831603e-01
5.795394e-01
5.757488e-01
0.000000e+00
1.000000e+00
5.772547e-01
5.816393e-01
5.865436e-01
5.915427e-01
5.962834e-01
6.002673e-01
6.029522e-01
6.039042e-01
6.029567e-01
6.002787e-01
5.963023e-01
5.915811e-01
5.866088e-01
5.817190e-01
5.768111e-01
0.000000e+00
1.000000e+00
5.784182e-01
5.840030e-01
5.902540e-01
5.966229e-01
6.026626e-01
6.077386e-01
6.111603e-01
6.123750e-01
6.111696e-01
6.077582e-01
6.026905e-01
5.966778e-01
5.903311e-01
5.840917e-01
5.780471e-01
0.000000e+00
1.000000e+00
5.796205e-01
5.864314e-01
5.940693e-01
6.018464e-01
6.092218e-01
6.154210e-01
6.196010e-01
6.210868e-01
6.196172e-01
6.154530e-01
6.092674e-01
6.019270e-01
5.941619e-01
5.865292e-01
5.791885e-01
0.000000e+00
1.000000e+00
5.807991e-01
5.887896e-01
5.977797e-01
6.069262e-01
6.156005e-01
6.228925e-01
6.278111e-01
6.295625e-01
6.278390e-01
6.229471e-01
6.156793e-01
6.070429e-01
5.978926e-01
5.888985e-01
5.803584e-01
0.000000e+00
1.000000e+00
5.818818e-01
5.909278e-01
6.011526e-01
6.115437e-01
6.213989e-01
6.296852e-01
6.352775e-01
6.372742e-01
6.353249e-01
6.297759e-01
6.215256e-01
6.117000e-01
6.012865e-01
5.910542e-01
5.813786e-01
0.000000e+00
1.000000e+00
5.827971e-01
5.926988e-01
6.039591e-01
6.153857e-01
6.262245e-01
6.353402e-01
6.414965e-01
6.437017e-01
6.415686e-01
6.354741e-01
6.264018e-01
6.155834e-01
6.041038e-01
5.928467e-01
5.822211e-01
0.000000e+00
1.000000e+00
5.834833e-01
5.939762e-01
6.060037e-01
6.181857e-01
6.297435e-01
6.394668e-01
6.460374e-01
6.483974e-01
6.461315e-01
6.396377e-01
6.299622e-01
6.184096e-01
6.061647e-01
5.941552e-01
5.828146e-01
0.000000e+00
1.000000e+00
5.839016e-01
5.946686e-01
6.071511e-01
6.197603e-01
6.317257e-01
6.417932e-01
6.485980e-01
6.510450e-01
6.487041e-01
6.419859e-01
6.319707e-01
6.199946e-01
6.073258e-01
5.949023e-01
5.831825e-01
0.000000e+00
1.000000e+00
5.840280e-01
5.947312e-01
6.073440e-01
6.200305e-01
6.320684e-01
6.421956e-01
6.490402e-01
6.515010e-01
6.491475e-01
6.423947e-01
6.323281e-01
6.202777e-01
6.075322e-01
5.950354e-01
5.833223e-01
0.000000e+00
1.000000e+00
5.838406e-01
5.941786e-01
6.066035e-01
6.190193e-01
6.307978e-01
6.407056e-01
6.474003e-01
6.498045e-01
6.475008e-01
6.409004e-01
6.310616e-01
6.192788e-01
6.067896e-01
5.945644e-01
5.831923e-01
0.000000e+00
1.000000e+00
5.833561e-01
5.931262e-01
6.050123e-01
6.168380e-01
6.280560e-01
6.374923e-01
6.438679e-01
6.461556e-01
6.439558e-01
6.376756e-01
6.283126e-01
6.170871e-01
6.051813e-01
5.935552e-01
5.828309e-01
0.000000e+00
1.000000e+00
5.825848e-01
5.917125e-01
6.026970e-01
6.136665e-01
6.240723e-01
6.328252e-01
6.387389e-01
6.408602e-01
6.388140e-01
6.329905e-01
6.243089e-01
6.138918e-01
6.028495e-01
5.920836e-01
5.821465e-01
0.000000e+00
1.000000e+00
5.815961e-01
5.899865e-01
5.998218e-01
6.097275e-01
6.191245e-01
6.270281e-01
6.323667e-01
6.342802e-01
6.324322e-01
6.271693e-01
6.193291e-01
6.099195e-01
5.999667e-01
5.902654e-01
5.813765e-01
0.000000e+00
1.000000e+00
5.804959e-01
5.879614e-01
5.965508e-01
6.052466e-01
6.134959e-01
6.204335e-01
6.251179e-01
6.267950e-01
6.251747e-01
6.205498e-01
6.136589e-01
6.053982e-01
5.966745e-01
5.881663e-01
5.804848e-01
0.000000e+00
1.000000e+00
5.746897e-01
5.764306e-01
5.783728e-01
5.803553e-01
5.822351e-01
5.838144e-01
5.848781e-01
5.852541e-01
5.848761e-01
5.838119e-01
5.822343e-01
5.803630e-01
5.784055e-01
5.765158e-01
5.739012e-01
0.000000e+00
1.000000e+00
5.754943e-01
5.780551e-01
5.809203e-01
5.838435e-01
5.866153e-01
5.889445e-01
5.905136e-01
5.910689e-01
5.905131e-01
5.889458e-01
5.866210e-01
5.838596e-01
5.809656e-01
5.780901e-01
5.754916e-01
0.000000e+00
1.000000e+00
5.764372e-01
5.799686e-01
5.839230e-01
5.879546e-01
5.917777e-01
5.949904e-01
5.971553e-01
5.979226e-01
5.971577e-01
5.949975e-01
5.917897e-01
5.879815e-01
5.839850e-01
5.800505e-01
5.761529e-01
0.000000e+00
1.000000e+00
5.775000e-01
5.821297e-01
5.873145e-01
5.925982e-01
5.976087e-01
6.018196e-01
6.046578e-01
6.056648e-01
6.046642e-01
6.018333e-01
5.976282e-01
5.926394e-01
5.873871e-01
5.822057e-01
5.771925e-01
0.000000e+00
1.000000e+00
5.786475e-01
5.844608e-01
5.909742e-01
5.976089e-01
6.039006e-01
6.091887e-01
6.127538e-01
6.140201e-01
6.127653e-01
6.092114e-01
6.039335e-01
5.976757e-01
5.910576e-01
5.845517e-01
5.783163e-01
0.000000e+00
1.000000e+00
5.798325e-01
5.868500e-01
5.947286e-01
6.027490e-01
6.103550e-01
6.167484e-01
6.210599e-01
6.225932e-01
6.210791e-01
6.167867e-01
6.104161e-01
6.028491e-01
5.948255e-01
5.869514e-01
5.794428e-01
0.000000e+00
1.000000e+00
5.809893e-01
5.891567e-01
5.983600e-01
6.077205e-01
6.165979e-01
6.240609e-01
6.290955e-01
6.308896e-01
6.291285e-01
6.241277e-01
6.167023e-01
6.078595e-01
5.984705e-01
5.892722e-01
5.805339e-01
0.000000e+00
1.000000e+00
5.820423e-01
5.912257e-01
6.016269e-01
6.121930e-01
6.222144e-01
6.306409e-01
6.363286e-01
6.383615e-01
6.363838e-01
6.307494e-01
6.223681e-01
6.123644e-01
6.017590e-01
5.913539e-01
5.815137e-01
0.000000e+00
1.000000e+00
5.829166e-01
5.929052e-01
6.042933e-01
6.158433e-01
6.267996e-01
6.360148e-01
6.422394e-01
6.444715e-01
6.423205e-01
6.361687e-01
6.269972e-01
6.160402e-01
6.044591e-01
5.930496e-01
5.823198e-01
0.000000e+00
1.000000e+00
5.835504e-01
5.940661e-01
6.061601e-01
6.184005e-01
6.300144e-01
6.397854e-01
6.463889e-01
6.487626e-01
6.464906e-01
6.399733e-01
6.302489e-01
6.186242e-01
6.063606e-01
5.942414e-01
5.828982e-01
0.000000e+00
1.000000e+00
5.839066e-01
5.946170e-01
6.070946e-01
6.196848e-01
6.316322e-01
6.416842e-01
6.484785e-01
6.509225e-01
6.485886e-01
6.418881e-01
6.318932e-01
6.199390e-01
6.072872e-01
5.948678e-01
5.832743e-01
0.000000e+00
1.000000e+00
5.839625e-01
5.945147e-01
6.070486e-01
6.196277e-01
6.315626e-01
6.416028e-01
6.483877e-01
6.508265e-01
6.484950e-01
6.418066e-01
6.318348e-01
6.198921e-01
6.072387e-01
5.948692e-01
5.833693e-01
0.000000e+00
1.000000e+00
5.836701e-01
5.937886e-01
6.060565e-01
6.182690e-01
6.298537e-01
6.395990e-01
6.461833e-01
6.485451e-01
6.462785e-01
6.397920e-01
6.301220e-01
6.185321e-01
6.062407e-01
5.942517e-01
5.831445e-01
0.000000e+00
1.000000e+00
5.830939e-01
5.925900e-01
6.042110e-01
6.157378e-01
6.266726e-01
6.358715e-01
6.420872e-01
6.443142e-01
6.421656e-01
6.360477e-01
6.269278e-01
6.159852e-01
6.043760e-01
5.930830e-01
5.827247e-01
0.000000e+00
1.000000e+00
5.822322e-01
5.910605e-01
6.016546e-01
6.122369e-01
6.222755e-01
6.307200e-01
6.364262e-01
6.384713e-01
6.364924e-01
6.308743e-01
6.225063e-01
6.124582e-01
6.018075e-01
5.914232e-01
5.818764e-01
0.000000e+00
1.000000e+00
5.811650e-01
5.892193e-01
5.985673e-01
6.080073e-01
6.169622e-01
6.244938e-01
6.295816e-01
6.314047e-01
6.296407e-01
6.246211e-01
6.171565e-01
6.081894e-01
5.987091e-01
5.894533e-01
5.809376e-01
0.000000e+00
1.000000e+00
5.800197e-01
5.870679e-01
5.951189e-01
6.032847e-01
6.110304e-01
6.175436e-01
6.219407e-01
6.235138e-01
6.219903e-01
6.176439e-01
6.111789e-01
6.034215e-01
5.952349e-01
5.872083e-01
5.797413e-01
0.000000e+00
1.000000e+00
5.747654e-01
5.765852e-01
5.786152e-01
5.806871e-01
5.826518e-01
5.843025e-01
5.854143e-01
5.858075e-01
5.854127e-01
5.843003e-01
5.826507e-01
5.806936e-01
5.786500e-01
5.766419e-01
5.740540e-01
0.000000e+00
1.000000e+00
5.755401e-01
5.781437e-01
5.810593e-01
5.840337e-01
5.868542e-01
5.892242e-01
5.908209e-01
5.913861e-01
5.908207e-01
5.892259e-01
5.868592e-01
5.840484e-01
5.811104e-01
5.781818e-01
5.754594e-01
0.000000e+00
1.000000e+00
5.764505e-01
5.799882e-01
5.839538e-01
5.879968e-01
5.918306e-01
5.950524e-01
5.972235e-01
5.979931e-01
5.972264e-01
5.950598e-01
5.918416e-01
5.880250e-01
5.840183e-01
5.800669e-01
5.761377e-01
0.000000e+00
1.000000e+00
5.774789e-01
5.820787e-01
5.872346e-01
5.924888e-01
5.974713e-01
6.016587e-01
6.044812e-01
6.054828e-01
6.044880e-01
6.016727e-01
5.974917e-01
5.925397e-01
5.873097e-01
5.821557e-01
5.771641e-01
0.000000e+00
1.000000e+00
5.785911e-01
5.843377e-01
5.907813e-01
5.973447e-01
6.035689e-01
6.088003e-01
6.123273e-01
6.135803e-01
6.123391e-01
6.088238e-01
6.036095e-01
5.974272e-01
5.908649e-01
5.844300e-01
5.782243e-01
0.000000e+00
1.000000e+00
5.797389e-01
5.866529e-01
5.944193e-01
6.023255e-01
6.098232e-01
6.161256e-01
6.203757e-01
6.218875e-01
6.203954e-01
6.161666e-01
6.099001e-01
6.024393e-01
5.945133e-01
5.867544e-01
5.793319e-01
0.000000e+00
1.000000e+00
5.808561e-01
5.888820e-01
5.979280e-01
6.071290e-01
6.158551e-01
6.231909e-01
6.281398e-01
6.299035e-01
6.281735e-01
6.232635e-01
6.159771e-01
6.072731e-01
5.980324e-01
5.889946e-01
5.803853e-01
0.000000e+00
1.000000e+00
5.818661e-01
5.908673e-01
6.010622e-01
6.114199e-01
6.212436e-01
6.295038e-01
6.350793e-01
6.370720e-01
6.351353e-01
6.296198e-01
6.214101e-01
6.115925e-01
6.011927e-01
5.909854e-01
5.813272e-01
0.000000e+00
1.000000e+00
5.826922e-01
5.924556e-01
6.035830e-01
6.148711e-01
6.255789e-01
6.345848e-01
6.406675e-01
6.428484e-01
6.407490e-01
6.347453e-01
6.257845e-01
6.150750e-01
6.037506e-01
5.925863e-01
5.821406e-01
0.000000e+00
1.000000e+00
5.832687e-01
5.935192e-01
6.052907e-01
6.172107e-01
6.285202e-01
6.380344e-01
6.444634e-01
6.467736e-01
6.445638e-01
6.382264e-01
6.287609e-01
6.174399e-01
6.054917e-01
5.936807e-01
5.827354e-01
0.000000e+00
1.000000e+00
5.835541e-01
5.939721e-01
6.060558e-01
6.182624e-01
6.298450e-01
6.395896e-01
6.461748e-01
6.485416e-01
6.462803e-01
6.397932e-01
6.301087e-01
6.185156e-01
6.062500e-01
5.942109e-01
5.830802e-01
0.000000e+00
1.000000e+00
5.835382e-01
5.937738e-01
6.058364e-01
6.179656e-01
6.294733e-01
6.391544e-01
6.456964e-01
6.480438e-01
6.457942e-01
6.393526e-01
6.297438e-01
6.182286e-01
6.060218e-01
5.941100e-01
5.831173e-01
0.000000e+00
1.000000e+00
5.832176e-01
5.929230e-01
6.046698e-01
6.163688e-01
6.274670e-01
6.368039e-01
6.431133e-01
6.453727e-01
6.431955e-01
6.369869e-01
6.277298e-01
6.166263e-01
6.048448e-01
5.933729e-01
5.828279e-01
0.000000e+00
1.000000e+00
5.826077e-01
5.916101e-01
6.026655e-01
6.136214e-01
6.240149e-01
6.327590e-01
6.386684e-01
6.407854e-01
6.387336e-01
6.329207e-01
6.242585e-01
6.138570e-01
6.028270e-01
5.920727e-01
5.822297e-01
0.000000e+00
1.000000e+00
5.816873e-01
5.900175e-01
5.999748e-01
6.099364e-01
6.193865e-01
6.273363e-01
6.327092e-01
6.346364e-01
6.327657e-01
6.274737e-01
6.196025e-01
6.101428e-01
6.001235e-01
5.903100e-01
5.811927e-01
0.000000e+00
1.000000e+00
5.805906e-01
5.881068e-01
5.967843e-01
6.055644e-01
6.138935e-01
6.208988e-01
6.256314e-01
6.273288e-01
6.256847e-01
6.210089e-01
6.140710e-01
6.057296e-01
5.969161e-01
5.882745e-01
5.801689e-01
0.000000e+00
1.000000e+00
5.794165e-01
5.859016e-01
5.932657e-01
6.007458e-01
6.078407e-01
6.138061e-01
6.178329e-01
6.192732e-01
6.178748e-01
6.138904e-01
6.079707e-01
6.008640e-01
5.933673e-01
5.860085e-01
5.790721e-01
0.000000e+00
1.000000e+00
5.746122e-01
5.762710e-01
5.781222e-01
5.800120e-01
5.818039e-01
5.833094e-01
5.843234e-01
5.846817e-01
5.843209e-01
5.833055e-01
5.817993e-01
5.800101e-01
5.781627e-01
5.763098e-01
5.740222e-01
0.000000e+00
1.000000e+00
5.753351e-01
5.777226e-01
5.803985e-01
5.831289e-01
5.857180e-01
5.878937e-01
5.893594e-01
5.898781e-01
5.893585e-01
5.878934e-01
5.857193e-01
5.831397e-01
5.804513e-01
5.777634e-01
5.752614e-01
0.000000e+00
1.000000e+00
5.761901e-01
5.794553e-01
5.831169e-01
5.868510e-01
5.903919e-01
5.933674e-01
5.953724e-01
5.960829e-01
5.953740e-01
5.933723e-01
5.904001e-01
5.868861e-01
5.831826e-01
5.795310e-01
5.758862e-01
0.000000e+00
1.000000e+00
5.771634e-01
5.814318e-01
5.862184e-01
5.910974e-01
5.957242e-01
5.996125e-01
6.022331e-01
6.031628e-01
6.022385e-01
5.996240e-01
5.957446e-01
5.911596e-01
5.862944e-01
5.815077e-01
5.768655e-01
0.000000e+00
1.000000e+00
5.782202e-01
5.835776e-01
5.895868e-01
5.957093e-01
6.015154e-01
6.063952e-01
6.096848e-01
6.108531e-01
6.096948e-01
6.064159e-01
6.015606e-01
5.958005e-01
5.896704e-01
5.836684e-01
5.778678e-01
0.000000e+00
1.000000e+00
5.793118e-01
5.857832e-01
5.930518e-01
6.004532e-01
6.074723e-01
6.133721e-01
6.173504e-01
6.187648e-01
6.173672e-01
6.134097e-01
6.075550e-01
6.005682e-01
5.931444e-01
5.858805e-01
5.789171e-01
0.000000e+00
1.000000e+00
5.803732e-01
5.879090e-01
5.963960e-01
6.050317e-01
6.132215e-01
6.201062e-01
6.247501e-01
6.264038e-01
6.247790e-01
6.201740e-01
6.133450e-01
6.051733e-01
5.964994e-01
5.880119e-01
5.799246e-01
0.000000e+00
1.000000e+00
5.813291e-01
5.897993e-01
5.993767e-01
6.091124e-01
6.183461e-01
6.261096e-01
6.313486e-01
6.332189e-01
6.313972e-01
6.262187e-01
6.185091e-01
6.092860e-01
5.995011e-01
5.899026e-01
5.808660e-01
0.000000e+00
1.000000e+00
5.821020e-01
5.913026e-01
6.017565e-01
6.123708e-01
6.224390e-01
6.309060e-01
6.366227e-01
6.386694e-01
6.366947e-01
6.310567e-01
6.226364e-01
6.125771e-01
6.019068e-01
5.914201e-01
5.816994e-01
0.000000e+00
1.000000e+00
5.826237e-01
5.922940e-01
6.033382e-01
6.145374e-01
6.251622e-01
6.340995e-01
6.401361e-01
6.423015e-01
6.402252e-01
6.342791e-01
6.253887e-01
6.147622e-01
6.035165e-01
5.924432e-01
5.822691e-01
0.000000e+00
1.000000e+00
5.828684e-01
5.926860e-01
6.039939e-01
6.154377e-01
6.262961e-01
6.354309e-01
6.416031e-01
6.438168e-01
6.416951e-01
6.356214e-01
6.265443e-01
6.156734e-01
6.041783e-01
5.929017e-01
5.825645e-01
0.000000e+00
1.000000e+00
5.828408e-01
5.924276e-01
6.036816e-01
6.150132e-01
6.257649e-01
6.348110e-01
6.409254e-01
6.431159e-01
6.410079e-01
6.349959e-01
6.260205e-01
6.152563e-01
6.038588e-01
5.927294e-01
5.825452e-01
0.000000e+00
1.000000e+00
5.825174e-01
5.915430e-01
6.024469e-01
6.133246e-01
6.236442e-01
6.323262e-01
6.381946e-01
6.402974e-01
6.382621e-01
6.324923e-01
6.238872e-01
6.135600e-01
6.026119e-01
5.919181e-01
5.821141e-01
0.000000e+00
1.000000e+00
5.819013e-01
5.902130e-01
6.004024e-01
6.105236e-01
6.201249e-01
6.282018e-01
6.336608e-01
6.356197e-01
6.337152e-01
6.283430e-01
6.203444e-01
6.107330e-01
6.005549e-01
5.905770e-01
5.812646e-01
0.000000e+00
1.000000e+00
5.809789e-01
5.886025e-01
5.977021e-01
6.068243e-01
6.154781e-01
6.227573e-01
6.276764e-01
6.294428e-01
6.277279e-01
6.228723e-01
6.156681e-01
6.070032e-01
5.978358e-01
5.888466e-01
5.803043e-01
0.000000e+00
1.000000e+00
5.798858e-01
5.866817e-01
5.945299e-01
6.024769e-01
6.100156e-01
6.163554e-01
6.206372e-01
6.221732e-01
6.206859e-01
6.164459e-01
6.101680e-01
6.026175e-01
5.946442e-01
5.868213e-01
5.794217e-01
0.000000e+00
1.000000e+00
5.787204e-01
5.844993e-01
5.910553e-01
5.977188e-01
6.040389e-01
6.093523e-01
6.129378e-01
6.142192e-01
6.129719e-01
6.094219e-01
6.041474e-01
5.978172e-01
5.911414e-01
5.845910e-01
5.783156e-01
0.000000e+00
1.000000e+00
5.742214e-01
5.754715e-01
5.768684e-01
5.782952e-01
5.796480e-01
5.807844e-01
5.815495e-01
5.818190e-01
5.815451e-01
5.807765e-01
5.796367e-01
5.782839e-01
5.769092e-01
5.755072e-01
5.736911e-01
0.000000e+00
1.000000e+00
5.748723e-01
5.767765e-01
5.789145e-01
5.810971e-01
5.831667e-01
5.849056e-01
5.860768e-01
5.864908e-01
5.860744e-01
5.849018e-01
5.831615e-01
5.811009e-01
5.789694e-01
5.768218e-01
5.747790e-01
0.000000e+00
1.000000e+00
5.756488e-01
5.783563e-01
5.813921e-01
5.844894e-01
5.874265e-01
5.898948e-01
5.915577e-01
5.921462e-01
5.915570e-01
5.898948e-01
5.874274e-01
5.845249e-01
5.814635e-01
5.784318e-01
5.753645e-01
0.000000e+00
1.000000e+00
5.765464e-01
5.801777e-01
5.842492e-01
5.884014e-01
5.923388e-01
5.956478e-01
5.978778e-01
5.986681e-01
5.978800e-01
5.956535e-01
5.923529e-01
5.884672e-01
5.843301e-01
5.802544e-01
5.762643e-01
0.000000e+00
1.000000e+00
5.775293e-01
5.821720e-01
5.873789e-01
5.926864e-01
5.977196e-01
6.019496e-01
6.048007e-01
6.058123e-01
6.048067e-01
6.019632e-01
5.977607e-01
5.927793e-01
5.874672e-01
5.822613e-01
5.771972e-01
0.000000e+00
1.000000e+00
5.785490e-01
5.842361e-01
5.906203e-01
5.971242e-01
6.032922e-01
6.084764e-01
6.119714e-01
6.132127e-01
6.119825e-01
6.085035e-01
6.033687e-01
5.972380e-01
5.907176e-01
5.843273e-01
5.781716e-01
0.000000e+00
1.000000e+00
5.795430e-01
5.862371e-01
5.937658e-01
6.014308e-01
6.087001e-01
6.148105e-01
6.189310e-01
6.203963e-01
6.189506e-01
6.148631e-01
6.088155e-01
6.015700e-01
5.938710e-01
5.863267e-01
5.791520e-01
0.000000e+00
1.000000e+00
5.804391e-01
5.880253e-01
5.965812e-01
6.052854e-01
6.135407e-01
6.204809e-01
6.251625e-01
6.268303e-01
6.251969e-01
6.205707e-01
6.136936e-01
6.054533e-01
5.967014e-01
5.881169e-01
5.801008e-01
0.000000e+00
1.000000e+00
5.811627e-01
5.894534e-01
5.988357e-01
6.083724e-01
6.174181e-01
6.250240e-01
6.301568e-01
6.319896e-01
6.302106e-01
6.251523e-01
6.175997e-01
6.085677e-01
5.989718e-01
5.895641e-01
5.809111e-01
0.000000e+00
1.000000e+00
5.816597e-01
5.903969e-01
6.003363e-01
6.104272e-01
6.199995e-01
6.280504e-01
6.334869e-01
6.354316e-01
6.335568e-01
6.282066e-01
6.202021e-01
6.106402e-01
6.004937e-01
5.905407e-01
5.814427e-01
0.000000e+00
1.000000e+00
5.818947e-01
5.907704e-01
6.009568e-01
6.112766e-01
6.210677e-01
6.293048e-01
6.348713e-01
6.368645e-01
6.349459e-01
6.294729e-01
6.212849e-01
6.114935e-01
6.011235e-01
5.909636e-01
5.817078e-01
0.000000e+00
1.000000e+00
5.818668e-01
5.905308e-01
6.006521e-01
6.108618e-01
6.205491e-01
6.286998e-01
6.342104e-01
6.361867e-01
6.342789e-01
6.288634e-01
6.207722e-01
6.110730e-01
6.008144e-01
5.907648e-01
5.815497e-01
0.000000e+00
1.000000e+00
5.815431e-01
5.897185e-01
5.994664e-01
6.092411e-01
6.185150e-01
6.263168e-01
6.315908e-01
6.334844e-01
6.316484e-01
6.264607e-01
6.187258e-01
6.094403e-01
5.996153e-01
5.899698e-01
5.809060e-01
0.000000e+00
1.000000e+00
5.809119e-01
5.884755e-01
5.975096e-01
6.065608e-01
6.151474e-01
6.223699e-01
6.272510e-01
6.290042e-01
6.273011e-01
6.224877e-01
6.153336e-01
6.067341e-01
5.976400e-01
5.887167e-01
5.801627e-01
0.000000e+00
1.000000e+00
5.800546e-01
5.868881e-01
5.949286e-01
6.030251e-01
6.107059e-01
6.171658e-01
6.215301e-01
6.230972e-01
6.215787e-01
6.172590e-01
6.108637e-01
6.031703e-01
5.950397e-01
5.870770e-01
5.794435e-01
0.000000e+00
1.000000e+00
5.790391e-01
5.850181e-01
5.918992e-01
5.988742e-01
6.054905e-01
6.110538e-01
6.148096e-01