<?xml version="1.0"?>
<VTKFile type="StructuredGrid" version="0.1">
  <StructuredGrid WholeExtent="0 16 0 16 0 16">
    <Piece Extent="0 16 0 16 0 16">
      <PointData Scalars="temperature" Vectors="velocity">
        <DataArray type="Float32" Name="temperature" format="ascii">
1.000000e+00
5.727740e-01
5.722920e-01
5.718980e-01
5.714883e-01
5.711016e-01
5.707787e-01
5.705629e-01
5.704878e-01
5.705668e-01
5.707898e-01
5.711377e-01
5.715634e-01
5.720143e-01
5.724537e-01
5.721678e-01
0.000000e+00
1.000000e+00
5.719193e-01
5.706245e-01
5.692796e-01
5.679037e-01
5.666020e-01
5.655120e-01
5.647817e-01
5.645276e-01
5.647961e-01
5.655438e-01
5.666759e-01
5.680039e-01
5.694230e-01
5.708058e-01
5.713383e-01
0.000000e+00
1.000000e+00
5.709507e-01
5.686944e-01
5.662538e-01
5.637615e-01
5.614025e-01
5.594266e-01
5.581025e-01
5.576425e-01
5.581293e-01
5.594824e-01
5.615143e-01
5.638831e-01
5.664152e-01
5.688749e-01
5.704334e-01
0.000000e+00
1.000000e+00
5.698928e-01
5.665443e-01
5.628879e-01
5.591536e-01
5.556188e-01
5.526577e-01
5.506734e-01
5.499844e-01
5.507132e-01
5.527389e-01
5.557644e-01
5.592971e-01
5.630541e-01
5.667195e-01
5.694156e-01
0.000000e+00
1.000000e+00
5.687827e-01
5.642425e-01
5.592873e-01
5.542249e-01
5.494331e-01
5.454187e-01
5.427278e-01
5.417932e-01
5.427805e-01
5.455257e-01
5.496111e-01
5.543918e-01
5.594588e-01
5.644240e-01
5.683249e-01
0.000000e+00
1.000000e+00
5.676620e-01
5.618812e-01
5.555953e-01
5.491718e-01
5.430922e-01
5.379978e-01
5.345818e-01
5.333946e-01
5.346475e-01
5.381302e-01
5.433038e-01
5.493658e-01
5.557705e-01
5.620702e-01
5.672227e-01
0.000000e+00
1.000000e+00
5.665825e-01
5.595726e-01
5.519854e-01
5.442321e-01
5.368936e-01
5.307427e-01
5.266168e-01
5.251828e-01
5.266967e-01
5.308998e-01
5.371386e-01
5.444588e-01
5.521633e-01
5.597669e-01
5.661672e-01
0.000000e+00
1.000000e+00
5.655877e-01
5.574389e-01
5.486479e-01
5.396649e-01
5.311613e-01
5.240324e-01
5.192492e-01
5.175880e-01
5.193440e-01
5.242129e-01
5.314360e-01
5.399299e-01
5.488275e-01
5.576429e-01
5.651630e-01
0.000000e+00
1.000000e+00
5.647076e-01
5.555986e-01
5.457686e-01
5.357239e-01
5.262132e-01
5.182397e-01
5.128902e-01
5.110338e-01
5.129986e-01
5.184424e-01
5.265126e-01
5.360300e-01
5.459521e-01
5.558209e-01
5.642802e-01
0.000000e+00
1.000000e+00
5.640037e-01
5.541556e-01
5.435095e-01
5.326304e-01
5.223289e-01
5.136921e-01
5.078993e-01
5.058895e-01
5.080172e-01
5.139119e-01
5.226429e-01
5.329730e-01
5.437009e-01
5.543936e-01
5.635912e-01
0.000000e+00
1.000000e+00
5.635035e-01
5.531852e-01
5.419901e-01
5.305493e-01
5.197163e-01
5.106343e-01
5.045430e-01
5.024293e-01
5.046663e-01
5.108642e-01
5.200362e-01
5.309162e-01
5.422062e-01
5.534208e-01
5.631129e-01
0.000000e+00
1.000000e+00
5.632484e-01
5.527321e-01
5.412787e-01
5.295747e-01
5.184921e-01
5.092007e-01
5.029685e-01
5.008054e-01
5.030933e-01
5.094325e-01
5.188065e-01
5.299444e-01
5.415320e-01
5.529457e-01
5.629212e-01
0.000000e+00
1.000000e+00
5.632466e-01
5.528024e-01
5.413845e-01
5.297190e-01
5.186720e-01
5.094100e-01
5.031970e-01
5.010399e-01
5.033195e-01
5.096364e-01
5.189740e-01
5.300753e-01
5.416657e-01
5.530007e-01
5.629632e-01
0.000000e+00
1.000000e+00
5.634866e-01
5.533686e-01
5.422640e-01
5.309226e-01
5.201817e-01
5.111754e-01
5.051332e-01
5.030344e-01
5.052494e-01
5.113886e-01
5.204639e-01
5.312623e-01
5.425342e-01
5.535613e-01
5.632437e-01
0.000000e+00
1.000000e+00
5.639480e-01
5.543745e-01
5.438311e-01
5.330678e-01
5.228734e-01
5.143246e-01
5.085885e-01
5.065949e-01
5.086954e-01
5.145194e-01
5.231304e-01
5.333956e-01
5.440808e-01
5.545760e-01
5.637369e-01
0.000000e+00
1.000000e+00
5.645837e-01
5.557407e-01
5.459686e-01
5.359942e-01
5.265471e-01
5.186248e-01
5.133088e-01
5.114611e-01
5.134073e-01
5.188024e-01
5.267739e-01
5.363215e-01
5.462217e-01
5.559703e-01
5.643893e-01
0.000000e+00
1.000000e+00
5.652356e-01
5.574056e-01
5.485515e-01
5.395303e-01
5.309861e-01
5.238212e-01
5.190138e-01
5.173435e-01
5.191047e-01
5.239842e-01
5.311882e-01
5.398457e-01
5.487966e-01
5.576023e-01
5.649468e-01
0.000000e+00
1.000000e+00
5.721193e-01
5.710041e-01
5.698796e-01
5.687246e-01
5.676314e-01
5.667150e-01
5.660998e-01
5.658846e-01
5.661088e-01
5.667366e-01
5.676829e-01
5.687952e-01
5.699819e-01
5.711535e-01
5.716155e-01
0.000000e+00
1.000000e+00
5.712599e-01
5.692937e-01
5.671980e-01
5.650540e-01
5.630242e-01
5.613227e-01
5.601807e-01
5.597824e-01
5.602007e-01
5.613666e-01
5.631070e-01
5.651476e-01
5.673293e-01
5.694571e-01
5.707235e-01
0.000000e+00
1.000000e+00
5.702787e-01
5.673166e-01
5.641019e-01
5.608159e-01
5.577049e-01
5.550972e-01
5.533477e-01
5.527382e-01
5.533801e-01
5.551661e-01
5.578191e-01
5.609333e-01
5.642504e-01
5.674892e-01
5.698035e-01
0.000000e+00
1.000000e+00
5.692071e-01
5.651185e-01
5.606629e-01
5.561086e-01
5.517971e-01
5.481831e-01
5.457583e-01
5.449145e-01
5.458041e-01
5.482771e-01
5.519416e-01
5.562499e-01
5.608237e-01
5.652975e-01
5.687517e-01
0.000000e+00
1.000000e+00
5.680842e-01
5.627733e-01
5.569953e-01
5.510891e-01
5.454980e-01
5.408108e-01
5.376656e-01
5.365718e-01
5.377258e-01
5.409307e-01
5.456763e-01
5.512560e-01
5.571691e-01
5.629661e-01
5.676481e-01
0.000000e+00
1.000000e+00
5.669576e-01
5.603819e-01
5.532554e-01
5.459710e-01
5.390748e-01
5.332928e-01
5.294125e-01
5.280643e-01
5.294881e-01
5.334392e-01
5.392896e-01
5.461690e-01
5.534381e-01
5.605853e-01
5.665228e-01
0.000000e+00
1.000000e+00
5.658684e-01
5.580660e-01
5.496318e-01
5.410117e-01
5.328501e-01
5.260063e-01
5.214147e-01
5.198205e-01
5.215062e-01
5.261796e-01
5.331018e-01
5.412475e-01
5.498240e-01
5.582843e-01
5.654640e-01
0.000000e+00
1.000000e+00
5.648515e-01
5.559560e-01
5.463290e-01
5.364899e-01
5.271744e-01
5.193633e-01
5.141237e-01
5.123064e-01
5.142305e-01
5.195622e-01
5.274590e-01
5.367697e-01
5.465313e-01
5.561912e-01
5.644927e-01
0.000000e+00
1.000000e+00
5.639621e-01
5.541776e-01
5.435455e-01
5.326791e-01
5.223905e-01
5.137658e-01
5.079813e-01
5.059752e-01
5.080999e-01
5.139863e-01
5.227009e-01
5.330020e-01
5.437620e-01
5.544497e-01
5.636601e-01
0.000000e+00
1.000000e+00
5.632632e-01
5.528415e-01
5.414528e-01
5.298146e-01
5.187955e-01
5.095581e-01
5.033634e-01
5.012145e-01
5.034898e-01
5.097936e-01
5.191180e-01
5.301735e-01
5.416869e-01
5.531424e-01
5.630410e-01
0.000000e+00
1.000000e+00
5.628526e-01
5.520269e-01
5.401745e-01
5.280631e-01
5.165963e-01
5.069838e-01
5.005373e-01
4.983009e-01
5.006683e-01
5.072271e-01
5.169204e-01
5.284391e-01
5.404398e-01
5.522946e-01
5.625411e-01
0.000000e+00
1.000000e+00
5.627002e-01
5.517709e-01
5.397687e-01
5.275063e-01
5.158958e-01
5.061627e-01
4.996352e-01
4.973703e-01
4.997669e-01
5.064062e-01
5.162101e-01
5.278785e-01
5.400790e-01
5.519851e-01
5.624746e-01
0.000000e+00
1.000000e+00
5.628122e-01
5.520709e-01
5.402304e-01
5.281374e-01
5.166860e-01
5.070857e-01
5.006468e-01
4.984120e-01
5.007747e-01
5.073204e-01
5.169823e-01
5.284956e-01
5.405481e-01
5.522598e-01
5.626432e-01
0.000000e+00
1.000000e+00
5.631762e-01
5.528855e-01
5.414962e-01
5.298699e-01
5.188591e-01
5.096271e-01
5.034344e-01
5.012842e-01
5.035545e-01
5.098456e-01
5.191327e-01
5.302219e-01
5.417656e-01
5.530565e-01
5.630445e-01
0.000000e+00
1.000000e+00
5.637662e-01
5.541454e-01
5.434591e-01
5.325571e-01
5.222313e-01
5.135725e-01
5.077634e-01
5.057453e-01
5.078730e-01
5.137702e-01
5.224812e-01
5.328958e-01
5.436941e-01
5.543115e-01
5.636590e-01
0.000000e+00
1.000000e+00
5.645374e-01
5.557644e-01
5.459861e-01
5.360168e-01
5.265739e-01
5.186547e-01
5.133410e-01
5.114941e-01
5.134390e-01
5.188302e-01
5.267940e-01
5.363348e-01
5.462201e-01
5.559411e-01
5.643999e-01
0.000000e+00
1.000000e+00
5.654952e-01
5.576542e-01
5.489402e-01
5.400609e-01
5.316501e-01
5.245956e-01
5.198606e-01
5.182132e-01
5.199438e-01
5.247443e-01
5.318357e-01
5.403500e-01
5.491689e-01
5.578123e-01
5.652001e-01
0.000000e+00
1.000000e+00
5.716056e-01
5.699393e-01
5.682125e-01
5.664421e-01
5.647652e-01
5.633583e-01
5.624130e-01
5.620826e-01
5.624273e-01
5.633898e-01
5.648216e-01
5.665069e-01
5.683073e-01
5.700732e-01
5.710958e-01
0.000000e+00
1.000000e+00
5.707532e-01
5.682055e-01
5.654973e-01
5.627253e-01
5.601000e-01
5.578979e-01
5.564191e-01
5.559035e-01
5.564445e-01
5.579502e-01
5.601794e-01
5.628098e-01
5.656152e-01
5.683492e-01
5.702246e-01
0.000000e+00
1.000000e+00
5.697730e-01
5.662020e-01
5.623620e-01
5.584339e-01
5.547140e-01
5.515942e-01
5.495000e-01
5.487712e-01
5.495390e-01
5.516716e-01
5.548227e-01
5.585394e-01
5.624918e-01
5.663463e-01
5.692772e-01
0.000000e+00
1.000000e+00
5.687059e-01
5.639773e-01
5.588821e-01
5.536713e-01
5.487369e-01
5.445985e-01
5.418210e-01
5.408555e-01
5.418744e-01
5.447021e-01
5.488779e-01
5.538021e-01
5.590298e-01
5.641388e-01
5.681947e-01
0.000000e+00
1.000000e+00
5.675928e-01
5.616111e-01
5.551800e-01
5.486049e-01
5.423784e-01
5.371561e-01
5.336522e-01
5.324350e-01
5.337207e-01
5.372880e-01
5.425572e-01
5.487621e-01
5.553413e-01
5.617952e-01
5.670821e-01
0.000000e+00
1.000000e+00
5.664734e-01
5.592106e-01
5.514227e-01
5.434624e-01
5.359241e-01
5.296025e-01
5.253613e-01
5.238893e-01
5.254456e-01
5.297632e-01
5.361449e-01
5.436544e-01
5.515942e-01
5.594133e-01
5.659362e-01
0.000000e+00
1.000000e+00
5.653756e-01
5.569027e-01
5.478115e-01
5.385197e-01
5.297208e-01
5.223433e-01
5.173950e-01
5.156781e-01
5.174942e-01
5.225319e-01
5.299843e-01
5.387543e-01
5.479970e-01
5.571369e-01
5.648643e-01
0.000000e+00
1.000000e+00
5.643371e-01
5.548262e-01
5.445648e-01
5.340766e-01
5.241465e-01
5.158207e-01
5.102368e-01
5.082991e-01
5.103488e-01
5.160334e-01
5.244451e-01
5.343587e-01
5.447645e-01
5.550884e-01
5.639271e-01
0.000000e+00
1.000000e+00
5.635006e-01
5.531197e-01
5.418978e-01
5.304259e-01
5.195647e-01
5.104595e-01
5.043526e-01
5.022333e-01
5.044748e-01
5.106913e-01
5.198877e-01
5.307496e-01
5.421126e-01
5.534597e-01
5.631563e-01
0.000000e+00
1.000000e+00
5.628902e-01
5.518970e-01
5.399863e-01
5.278086e-01
5.162798e-01
5.066154e-01
5.001337e-01
4.978842e-01
5.002634e-01
5.068613e-01
5.166158e-01
5.281671e-01
5.402206e-01
5.522975e-01
5.625743e-01
0.000000e+00
1.000000e+00
5.625234e-01
5.512385e-01
5.389528e-01
5.263917e-01
5.145001e-01
5.045320e-01
4.978469e-01
4.955270e-01
4.979810e-01
5.047852e-01
5.148369e-01
5.267609e-01
5.392341e-01
5.515870e-01
5.621159e-01
0.000000e+00
1.000000e+00
5.624418e-01
5.511768e-01
5.388479e-01
5.262458e-01
5.143144e-01
5.043131e-01
4.976058e-01
4.952780e-01
4.977397e-01
5.045640e-01
5.146381e-01
5.266072e-01
5.391640e-01
5.514455e-01
5.621425e-01
0.000000e+00
1.000000e+00
5.626489e-01
5.516966e-01
5.396503e-01
5.273427e-01
5.156885e-01
5.059187e-01
4.993664e-01
4.970919e-01
4.994952e-01
5.061572e-01
5.159898e-01
5.276934e-01
5.399587e-01
5.519174e-01
5.624312e-01
0.000000e+00
1.000000e+00
5.631191e-01
5.527433e-01
5.412768e-01
5.295688e-01
5.184806e-01
5.091841e-01
5.029485e-01
5.007831e-01
5.030682e-01
5.094030e-01
5.187568e-01
5.299103e-01
5.415566e-01
5.529059e-01
5.629638e-01
0.000000e+00
1.000000e+00
5.638163e-01
5.542347e-01
5.436002e-01
5.327495e-01
5.224721e-01
5.138540e-01
5.080725e-01
5.060640e-01
5.081811e-01
5.140500e-01
5.227246e-01
5.330691e-01
5.438564e-01
5.543943e-01
5.636708e-01
0.000000e+00
1.000000e+00
5.646974e-01
5.560752e-01
5.464707e-01
5.366793e-01
5.274044e-01
5.196261e-01
5.144067e-01
5.125928e-01
5.145030e-01
5.197975e-01
5.276248e-01
5.369768e-01
5.467217e-01
5.562165e-01
5.645459e-01
0.000000e+00
1.000000e+00
5.657390e-01
5.581573e-01
5.497299e-01
5.411420e-01
5.330072e-01
5.261848e-01
5.216066e-01
5.200150e-01
5.216913e-01
5.263364e-01
5.332006e-01
5.414290e-01
5.499698e-01
5.582600e-01
5.658240e-01
0.000000e+00
1.000000e+00
5.712428e-01
5.691773e-01
5.670194e-01
5.648088e-01
5.627145e-01
5.609573e-01
5.597767e-01
5.593643e-01
5.597944e-01
5.609939e-01
5.627680e-01
5.648659e-01
5.670963e-01
5.692906e-01
5.707130e-01
0.000000e+00
1.000000e+00
5.704213e-01
5.674479e-01
5.643110e-01
5.611012e-01
5.580608e-01
5.555104e-01
5.537979e-01
5.532009e-01
5.538262e-01
5.555659e-01
5.581348e-01
5.611764e-01
5.644077e-01
5.675766e-01
5.698514e-01
0.000000e+00
1.000000e+00
5.694631e-01
5.654478e-01
5.611801e-01
5.568158e-01
5.526820e-01
5.492149e-01
5.468882e-01
5.460787e-01
5.469303e-01
5.492959e-01
5.527852e-01
5.569118e-01
5.612923e-01
5.655880e-01
5.689284e-01
0.000000e+00
1.000000e+00
5.684207e-01
5.632282e-01
5.577038e-01
5.520580e-01
5.467107e-01
5.422262e-01
5.392174e-01
5.381719e-01
5.392743e-01
5.423352e-01
5.468486e-01
5.521799e-01
5.578353e-01
5.633935e-01
5.678389e-01
0.000000e+00
1.000000e+00
5.673308e-01
5.608723e-01
5.540099e-01
5.470027e-01
5.403664e-01
5.348012e-01
5.310684e-01
5.297718e-01
5.311405e-01
5.349403e-01
5.405461e-01
5.471538e-01
5.541586e-01
5.610670e-01
5.667202e-01
0.000000e+00
1.000000e+00
5.662186e-01
5.584897e-01
5.502738e-01
5.418902e-01
5.339510e-01
5.272938e-01
5.228285e-01
5.212780e-01
5.229157e-01
5.274621e-01
5.341758e-01
5.420797e-01
5.504376e-01
5.587069e-01
5.655729e-01
0.000000e+00
1.000000e+00
5.651604e-01
5.562137e-01
5.467098e-01
5.370134e-01
5.278312e-01
5.201324e-01
5.149681e-01
5.131752e-01
5.150696e-01
5.203274e-01
5.280992e-01
5.372461e-01
5.468914e-01
5.564690e-01
5.644888e-01
0.000000e+00
1.000000e+00
5.642065e-01
5.541881e-01
5.435481e-01
5.326872e-01
5.224031e-01
5.137805e-01
5.079966e-01
5.059886e-01
5.081105e-01
5.139991e-01
5.227070e-01
5.329668e-01
5.437467e-01
5.544764e-01
5.635497e-01
0.000000e+00
1.000000e+00
5.633653e-01
5.525576e-01
5.410109e-01
5.292146e-01
5.180462e-01
5.086827e-01
5.024020e-01
5.002214e-01
5.025259e-01
5.089205e-01
5.183766e-01
5.295369e-01
5.412298e-01
5.529191e-01
5.627855e-01
0.000000e+00
1.000000e+00
5.627466e-01
5.514473e-01
5.392825e-01
5.268468e-01
5.150745e-01
5.052058e-01
4.985865e-01
4.962887e-01
4.987179e-01
5.054579e-01
5.154206e-01
5.272056e-01
5.395236e-01
5.518405e-01
5.622032e-01
0.000000e+00
1.000000e+00
5.624170e-01
5.509360e-01
5.384825e-01
5.257486e-01
5.136942e-01
5.035900e-01
4.968133e-01
4.944611e-01
4.969486e-01
5.038483e-01
5.140418e-01
5.261163e-01
5.387677e-01
5.512508e-01
5.619398e-01
0.000000e+00
1.000000e+00
5.624023e-01
5.510493e-01
5.386524e-01
5.259780e-01
5.139789e-01
5.039211e-01
4.971759e-01
4.948347e-01
4.973101e-01
5.041746e-01
5.143122e-01
5.263324e-01
5.389601e-01
5.512975e-01
5.621151e-01
0.000000e+00
1.000000e+00
5.626932e-01
5.517617e-01
5.397554e-01
5.274860e-01
5.158683e-01
5.061295e-01
4.995981e-01
4.973306e-01
4.997260e-01
5.063676e-01
5.161771e-01
5.278209e-01
5.400660e-01
5.519726e-01
5.625276e-01
0.000000e+00
1.000000e+00
5.632541e-01
5.530061e-01
5.416904e-01
5.301342e-01
5.191900e-01
5.100144e-01
5.038600e-01
5.017227e-01
5.039779e-01
5.102305e-01
5.194706e-01
5.304524e-01
5.419823e-01
5.531551e-01
5.631874e-01
0.000000e+00
1.000000e+00
5.640408e-01
5.546889e-01
5.443123e-01
5.337237e-01
5.236944e-01
5.152844e-01
5.096426e-01
5.076830e-01
5.097489e-01
5.154760e-01
5.239464e-01
5.340238e-01
5.445771e-01
5.548265e-01
5.639916e-01
0.000000e+00
1.000000e+00
5.650054e-01
5.567046e-01
5.474563e-01
5.380279e-01
5.290968e-01
5.216066e-01
5.165808e-01
5.148344e-01
5.166743e-01
5.217727e-01
5.293107e-01
5.383169e-01
5.477086e-01
5.568103e-01
5.650910e-01
0.000000e+00
1.000000e+00
5.661217e-01
5.589384e-01
5.509526e-01
5.428154e-01
5.351072e-01
5.286426e-01
5.243047e-01
5.227971e-01
5.243863e-01
5.287887e-01
5.352921e-01
5.430989e-01
5.511872e-01
5.590314e-01
5.666003e-01
0.000000e+00
1.000000e+00
5.710622e-01
5.687932e-01
5.664189e-01
5.639860e-01
5.616811e-01
5.597468e-01
5.584468e-01
5.579920e-01
5.584640e-01
5.597816e-01
5.617269e-01
5.640337e-01
5.664804e-01
5.688864e-01
5.705440e-01
0.000000e+00
1.000000e+00
5.702796e-01
5.671037e-01
5.637685e-01
5.603584e-01
5.571282e-01
5.544185e-01
5.525987e-01
5.519634e-01
5.526262e-01
5.544722e-01
5.571953e-01
5.604245e-01
5.638505e-01
5.672352e-01
5.696478e-01
0.000000e+00
1.000000e+00
5.693871e-01
5.651470e-01
5.606962e-01
5.561534e-01
5.518506e-01
5.482421e-01
5.458202e-01
5.449766e-01
5.458616e-01
5.483217e-01
5.519479e-01
5.562418e-01
5.607981e-01
5.652944e-01
5.687812e-01
0.000000e+00
1.000000e+00
5.684368e-01
5.629749e-01
5.572791e-01
5.514768e-01
5.459814e-01
5.413731e-01
5.382811e-01
5.372057e-01
5.383376e-01
5.414816e-01
5.461150e-01
5.515915e-01
5.574026e-01
5.631279e-01
5.677245e-01
0.000000e+00
1.000000e+00
5.674521e-01
5.606684e-01
5.536479e-01
5.465075e-01
5.397450e-01
5.340742e-01
5.302701e-01
5.289481e-01
5.303420e-01
5.342134e-01
5.399214e-01
5.466511e-01
5.537892e-01
5.608324e-01
5.665974e-01
0.000000e+00
1.000000e+00
5.664188e-01
5.583334e-01
5.499829e-01
5.414924e-01
5.334513e-01
5.267087e-01
5.221858e-01
5.206149e-01
5.222730e-01
5.268778e-01
5.336739e-01
5.416738e-01
5.501424e-01
5.585045e-01
5.654912e-01
0.000000e+00
1.000000e+00
5.653212e-01
5.561029e-01
5.465040e-01
5.367326e-01
5.274789e-01
5.197197e-01
5.145148e-01
5.127075e-01
5.146164e-01
5.199162e-01
5.277467e-01
5.369562e-01
5.466822e-01
5.562922e-01
5.644760e-01
0.000000e+00
1.000000e+00
5.642737e-01
5.541355e-01
5.434506e-01
5.325550e-01
5.222378e-01
5.135872e-01
5.077843e-01
5.057695e-01
5.078982e-01
5.138074e-01
5.225442e-01
5.328260e-01
5.436459e-01
5.543399e-01
5.635920e-01
0.000000e+00
1.000000e+00
5.634164e-01
5.525883e-01
5.410527e-01
5.292724e-01
5.181195e-01
5.087691e-01
5.024969e-01
5.003192e-01
5.026206e-01
5.090081e-01
5.184547e-01
5.295875e-01
5.412663e-01
5.528256e-01
5.628669e-01
0.000000e+00
1.000000e+00
5.628359e-01
5.515863e-01
5.394970e-01
5.271404e-01
5.154434e-01
5.056379e-01
4.990611e-01
4.967779e-01
4.991917e-01
5.058899e-01
5.157955e-01
5.274923e-01
5.397258e-01
5.518413e-01
5.624073e-01
0.000000e+00
1.000000e+00
5.625647e-01
5.512034e-01
5.389000e-01
5.263196e-01
5.144108e-01
5.044288e-01
4.977342e-01
4.954104e-01
4.978677e-01
5.046846e-01
5.147649e-01
5.266800e-01
5.391670e-01
5.514185e-01
5.623035e-01
0.000000e+00
1.000000e+00
5.626153e-01
5.514593e-01
5.392945e-01
5.268564e-01
5.150810e-01
5.052109e-01
4.985917e-01
4.962941e-01
4.987230e-01
5.054594e-01
5.154199e-01
5.271986e-01
5.396007e-01
5.516442e-01
5.624913e-01
0.000000e+00
1.000000e+00
5.629735e-01
5.523205e-01
5.406314e-01
5.286846e-01
5.173723e-01
5.078895e-01
5.015297e-01
4.993218e-01
5.016539e-01
5.081206e-01
5.176818e-01
5.290088e-01
5.409330e-01
5.524781e-01
5.629177e-01
0.000000e+00
1.000000e+00
5.636024e-01
5.537114e-01
5.427955e-01
5.316463e-01
5.210874e-01
5.122347e-01
5.062969e-01
5.042348e-01
5.064104e-01
5.124427e-01
5.213589e-01
5.319680e-01
5.430704e-01
5.538442e-01
5.636475e-01
0.000000e+00
1.000000e+00
5.644528e-01
5.555289e-01
5.456279e-01
5.355239e-01
5.259534e-01
5.179280e-01
5.125443e-01
5.106741e-01
5.126456e-01
5.181104e-01
5.261866e-01
5.358319e-01
5.458860e-01
5.556562e-01
5.645052e-01
0.000000e+00
1.000000e+00
5.654722e-01
5.576604e-01
5.489529e-01
5.400761e-01
5.316672e-01
5.246147e-01
5.198826e-01
5.182383e-01
5.199706e-01
5.247708e-01
5.318595e-01
5.403649e-01
5.491983e-01
5.577658e-01
5.656877e-01
0.000000e+00
1.000000e+00
5.666332e-01
5.599866e-01
5.525938e-01
5.450616e-01
5.379264e-01
5.319420e-01
5.279263e-01
5.265309e-01
5.280022e-01
5.320781e-01
5.380934e-01
5.453363e-01
5.528158e-01
5.601114e-01
5.668933e-01
0.000000e+00
1.000000e+00
5.711882e-01
5.688506e-01
5.665023e-01
5.641003e-01
5.618244e-01
5.599141e-01
5.586299e-01
5.581800e-01
5.586449e-01
5.599448e-01
5.618636e-01
5.641412e-01
5.665558e-01
5.688987e-01
5.707152e-01
0.000000e+00
1.000000e+00
5.704724e-01
5.672417e-01
5.639725e-01
5.606378e-01
5.574788e-01
5.548286e-01
5.530485e-01
5.524267e-01
5.530742e-01
5.548788e-01
5.575401e-01
5.606974e-01
5.640459e-01
5.673618e-01
5.696413e-01
0.000000e+00
1.000000e+00
5.696228e-01
5.653650e-01
5.610232e-01
5.566011e-01
5.524127e-01
5.489000e-01
5.465424e-01
5.457211e-01
5.465822e-01
5.489765e-01
5.525048e-01
5.566850e-01
5.611225e-01
5.654926e-01
5.689651e-01
0.000000e+00
1.000000e+00
5.686466e-01
5.632668e-01
5.577298e-01
5.520939e-01
5.467562e-01
5.422802e-01
5.392771e-01
5.382329e-01
5.393323e-01
5.423863e-01
5.468851e-01
5.522036e-01
5.578518e-01
5.633828e-01
5.679449e-01
0.000000e+00
1.000000e+00
5.675441e-01
5.610258e-01
5.542217e-01
5.472929e-01
5.407311e-01
5.352291e-01
5.315384e-01
5.302564e-01
5.316095e-01
5.353668e-01
5.409038e-01
5.474311e-01
5.543641e-01
5.611579e-01
5.668815e-01
0.000000e+00
1.000000e+00
5.664020e-01
5.587570e-01
5.506796e-01
5.424458e-01
5.346488e-01
5.281113e-01
5.237263e-01
5.222040e-01
5.238128e-01
5.282793e-01
5.348690e-01
5.426191e-01
5.508396e-01
5.588954e-01
5.658886e-01
0.000000e+00
1.000000e+00
5.653232e-01
5.566061e-01
5.473263e-01
5.378575e-01
5.288916e-01
5.213744e-01
5.163322e-01
5.145822e-01
5.164327e-01
5.215695e-01
5.291589e-01
5.380699e-01
5.475019e-01
5.567567e-01
5.649102e-01
0.000000e+00
1.000000e+00
5.643963e-01
5.547319e-01
5.444050e-01
5.338595e-01
5.238752e-01
5.155045e-01
5.098900e-01
5.079414e-01
5.100024e-01
5.157223e-01
5.241823e-01
5.341152e-01
5.445933e-01
5.548905e-01
5.640216e-01
0.000000e+00
1.000000e+00
5.636690e-01
5.532833e-01
5.421472e-01
5.307680e-01
5.199956e-01
5.109650e-01
5.049080e-01
5.028058e-01
5.050292e-01
5.111993e-01
5.203315e-01
5.310630e-01
5.423470e-01
5.534698e-01
5.633115e-01
0.000000e+00
1.000000e+00
5.631889e-01
5.523808e-01
5.407389e-01
5.288380e-01
5.175723e-01
5.081290e-01
5.017957e-01
4.995975e-01
5.019224e-01
5.083731e-01
5.179236e-01
5.291616e-01
5.409522e-01
5.525701e-01
5.629347e-01
0.000000e+00
1.000000e+00
5.629924e-01
5.520963e-01
5.402938e-01
5.282258e-01
5.168016e-01
5.072260e-01
5.008042e-01
4.985754e-01
5.009324e-01
5.074708e-01
5.171535e-01
5.285563e-01
5.405382e-01
5.522643e-01
5.628652e-01
0.000000e+00
1.000000e+00
5.630999e-01
5.524476e-01
5.408390e-01
5.289698e-01
5.177323e-01
5.083128e-01
5.019959e-01
4.998033e-01
5.021208e-01
5.085485e-01
5.180648e-01
5.292969e-01
5.411089e-01
5.526003e-01
5.630147e-01
0.000000e+00
1.000000e+00
5.635024e-01
5.533983e-01
5.423179e-01
5.309928e-01
5.202685e-01
5.112782e-01
5.052486e-01
5.031553e-01
5.053659e-01
5.114958e-01
5.205633e-01
5.313287e-01
5.425819e-01
5.535423e-01
5.634705e-01
0.000000e+00
1.000000e+00
5.641687e-01
5.548682e-01
5.446066e-01
5.341252e-01
5.241981e-01
5.158747e-01
5.102916e-01
5.083525e-01
5.103978e-01
5.160687e-01
5.244457e-01
5.344636e-01
5.448544e-01
5.550058e-01
5.642182e-01
0.000000e+00
1.000000e+00
5.650495e-01
5.567491e-01
5.475386e-01
5.381390e-01
5.292353e-01
5.217686e-01
5.167593e-01
5.150188e-01
5.168526e-01
5.219363e-01
5.294401e-01
5.384498e-01
5.477783e-01
5.568857e-01
5.650769e-01
0.000000e+00
1.000000e+00
5.660896e-01
5.589248e-01
5.509328e-01
5.427860e-01
5.350680e-01
5.285948e-01
5.242511e-01
5.227412e-01
5.243308e-01
5.287364e-01
5.352359e-01
5.430586e-01
5.511639e-01
5.590507e-01
5.662426e-01
0.000000e+00
1.000000e+00
5.672646e-01
5.612742e-01
5.546103e-01
5.478214e-01
5.413902e-01
5.359959e-01
5.323759e-01
5.311178e-01
5.324437e-01
5.361178e-01
5.415376e-01
5.480766e-01
5.548226e-01
5.614198e-01
5.671627e-01
0.000000e+00
1.000000e+00
5.714260e-01
5.693767e-01
5.673291e-01
5.652323e-01
5.632456e-01
5.615780e-01
5.604566e-01
5.600629e-01
5.604678e-01
5.616025e-01
5.632798e-01
5.652698e-01
5.673893e-01
5.693784e-01
5.712185e-01
0.000000e+00
1.000000e+00
5.706929e-01
5.678818e-01
5.649851e-01
5.620236e-01
5.592186e-01
5.568658e-01
5.552855e-01
5.547334e-01
5.553084e-01
5.569116e-01
5.592770e-01
5.620805e-01
5.650603e-01
5.679809e-01
5.698168e-01
0.000000e+00
1.000000e+00
5.698186e-01
5.661194e-01
5.622259e-01
5.582474e-01
5.544794e-01
5.513198e-01
5.492000e-01
5.484621e-01
5.492376e-01
5.513934e-01
5.545701e-01
5.583307e-01
5.623330e-01
5.662402e-01
5.694399e-01
0.000000e+00
1.000000e+00
5.688574e-01
5.641366e-01
5.591241e-01
5.540024e-01
5.491518e-01
5.450843e-01
5.423565e-01
5.414094e-01
5.424103e-01
5.451875e-01
5.492785e-01
5.541102e-01
5.592545e-01
5.642506e-01
5.684412e-01
0.000000e+00
1.000000e+00
5.678473e-01
5.620134e-01
5.558030e-01
5.494571e-01
5.434477e-01
5.384080e-01
5.350284e-01
5.338564e-01
5.350981e-01
5.385416e-01
5.436155e-01
5.495904e-01
5.559541e-01
5.621500e-01
5.674204e-01
0.000000e+00
1.000000e+00
5.668209e-01
5.598624e-01
5.524383e-01
5.448521e-01
5.376687e-01
5.316446e-01
5.276049e-01
5.262045e-01
5.276893e-01
5.318075e-01
5.378817e-01
5.450141e-01
5.526049e-01
5.600045e-01
5.664640e-01
0.000000e+00
1.000000e+00
5.658366e-01
5.578232e-01
5.492487e-01
5.404864e-01
5.321900e-01
5.252332e-01
5.205686e-01
5.189515e-01
5.206660e-01
5.254219e-01
5.324493e-01
5.406809e-01
5.494276e-01
5.579788e-01
5.654490e-01
0.000000e+00
1.000000e+00
5.649508e-01
5.560486e-01
5.464739e-01
5.366877e-01
5.274226e-01
5.196556e-01
5.144474e-01
5.126415e-01
5.145555e-01
5.198646e-01
5.277221e-01
5.369187e-01
5.466633e-01
5.562183e-01
5.645839e-01
0.000000e+00
1.000000e+00
5.642494e-01
5.546867e-01
5.443437e-01
5.337709e-01
5.237615e-01
5.153714e-01
5.097451e-01
5.077938e-01
5.098608e-01
5.155941e-01
5.240892e-01
5.340325e-01
5.445422e-01
5.548745e-01
5.639272e-01
0.000000e+00
1.000000e+00
5.638402e-01
5.538551e-01
5.430420e-01
5.319874e-01
5.215222e-01
5.127501e-01
5.068676e-01
5.048269e-01
5.069871e-01
5.129788e-01
5.218630e-01
5.322699e-01
5.432559e-01
5.540426e-01
5.636104e-01
0.000000e+00
1.000000e+00
5.637065e-01
5.536242e-01
5.426801e-01
5.314904e-01
5.208965e-01
5.120165e-01
5.060615e-01
5.039951e-01
5.061809e-01
5.122430e-01
5.212337e-01
5.317849e-01
5.429085e-01
5.538040e-01
5.635505e-01
0.000000e+00
1.000000e+00
5.638522e-01
5.540118e-01
5.432831e-01
5.323146e-01
5.219287e-01
5.132224e-01
5.073835e-01
5.053569e-01
5.074986e-01
5.134382e-01
5.222401e-01
5.326308e-01
5.435157e-01
5.541826e-01
5.637202e-01
0.000000e+00
1.000000e+00
5.642722e-01
5.549807e-01
5.447926e-01
5.343801e-01
5.245190e-01
5.162515e-01
5.107063e-01
5.087809e-01
5.108132e-01
5.164491e-01
5.247875e-01
5.347143e-01
5.450201e-01
5.551407e-01
5.642004e-01
0.000000e+00
1.000000e+00
5.649416e-01
5.564508e-01
5.470834e-01
5.375155e-01
5.284528e-01
5.208537e-01
5.157556e-01
5.139844e-01
5.158511e-01
5.210275e-01
5.286734e-01
5.378415e-01
5.473006e-01
5.565994e-01
5.649320e-01
0.000000e+00
1.000000e+00
5.658146e-01
5.583139e-01
5.499887e-01
5.414927e-01
5.334443e-01
5.266943e-01
5.221652e-01
5.205907e-01
5.222477e-01
5.268424e-01
5.336243e-01
5.417814e-01
5.502029e-01
5.584644e-01
5.657999e-01
0.000000e+00
1.000000e+00
5.668374e-01
5.604544e-01
5.533283e-01
5.460648e-01
5.391834e-01
5.334111e-01
5.295372e-01
5.281899e-01
5.296062e-01
5.335342e-01
5.393304e-01
5.463108e-01
5.535396e-01
5.606014e-01
5.668089e-01
0.000000e+00
1.000000e+00
5.679876e-01
5.627526e-01
5.569260e-01
5.509911e-01
5.453685e-01
5.406521e-01
5.374864e-01
5.363859e-01
5.375443e-01
5.407567e-01
5.454968e-01
5.512237e-01
5.571296e-01
5.628977e-01
5.673523e-01
0.000000e+00
1.000000e+00
5.718572e-01
5.703817e-01
5.689096e-01
5.673963e-01
5.659629e-01
5.647599e-01
5.639510e-01
5.636667e-01
5.639580e-01
5.647773e-01
5.659939e-01
5.674308e-01
5.689870e-01
5.703858e-01
5.719606e-01
0.000000e+00
1.000000e+00
5.711949e-01
5.690444e-01
5.668124e-01
5.645253e-01
5.623595e-01
5.605432e-01
5.593239e-01
5.588984e-01
5.593433e-01
5.605836e-01
5.624181e-01
5.645817e-01
5.669055e-01
5.691387e-01
5.701378e-01
0.000000e+00
1.000000e+00
5.704109e-01
5.674450e-01
5.643079e-01
5.610976e-01
5.580575e-01
5.555085e-01
5.537985e-01
5.532042e-01
5.538323e-01
5.555757e-01
5.581495e-01
5.611843e-01
5.644350e-01
5.675685e-01
5.700681e-01
0.000000e+00
1.000000e+00
5.695025e-01
5.656249e-01
5.614600e-01
5.572000e-01
5.531665e-01
5.497844e-01
5.475155e-01
5.467283e-01
5.475637e-01
5.498787e-01
5.532913e-01
5.573109e-01
5.616125e-01
5.657498e-01
5.690307e-01
0.000000e+00
1.000000e+00
5.685449e-01
5.636573e-01
5.583815e-01
5.529868e-01
5.478802e-01
5.435981e-01
5.407249e-01
5.397281e-01
5.407868e-01
5.437195e-01
5.480421e-01
5.531214e-01
5.585557e-01
5.638129e-01
5.681111e-01
0.000000e+00
1.000000e+00
5.675857e-01
5.616488e-01
5.552389e-01
5.486855e-01
5.424829e-01
5.372817e-01
5.337917e-01
5.325804e-01
5.338660e-01
5.374284e-01
5.426850e-01
5.488439e-01
5.554288e-01
5.618135e-01
5.672396e-01
0.000000e+00
1.000000e+00
5.666772e-01
5.597334e-01
5.522412e-01
5.445824e-01
5.373330e-01
5.312538e-01
5.271752e-01
5.257599e-01
5.272613e-01
5.314229e-01
5.375748e-01
5.447632e-01
5.524389e-01
5.599031e-01
5.662455e-01
0.000000e+00
1.000000e+00
5.658760e-01
5.580586e-01
5.496194e-01
5.409927e-01
5.328253e-01
5.259775e-01
5.213833e-01
5.197911e-01
5.214807e-01
5.261648e-01
5.331024e-01
5.411974e-01
5.498218e-01
5.582375e-01
5.654180e-01
0.000000e+00
1.000000e+00
5.652422e-01
5.567660e-01
5.475945e-01
5.382189e-01
5.293413e-01
5.218994e-01
5.169086e-01
5.151790e-01
5.170136e-01
5.220998e-01
5.296450e-01
5.384450e-01
5.478057e-01
5.569543e-01
5.647921e-01
0.000000e+00
1.000000e+00
5.648245e-01
5.559698e-01
5.463457e-01
5.365083e-01
5.271941e-01
5.193856e-01
5.141497e-01
5.123341e-01
5.142575e-01
5.195905e-01
5.275089e-01
5.367536e-01
5.465651e-01
5.561603e-01
5.644534e-01
0.000000e+00
1.000000e+00
5.646926e-01
5.557413e-01
5.459869e-01
5.360159e-01
5.265741e-01
5.186591e-01
5.133510e-01
5.115093e-01
5.134575e-01
5.188597e-01
5.268809e-01
5.362821e-01
5.462012e-01
5.559337e-01
5.643405e-01
0.000000e+00
1.000000e+00
5.648493e-01
5.560984e-01
5.465437e-01
5.367776e-01
5.275287e-01
5.197745e-01
5.145736e-01
5.127681e-01
5.146750e-01
5.199635e-01
5.278067e-01
5.370705e-01
5.467502e-01
5.562940e-01
5.644740e-01
0.000000e+00
1.000000e+00
5.652566e-01
5.570084e-01
5.479631e-01
5.387199e-01
5.299653e-01
5.226244e-01
5.176999e-01
5.159891e-01
5.177927e-01
5.227955e-01
5.302024e-01
5.390219e-01
5.481636e-01
5.571953e-01
5.649695e-01
0.000000e+00
1.000000e+00
5.658924e-01
5.583953e-01
5.501262e-01
5.416807e-01
5.336805e-01
5.269711e-01
5.224693e-01
5.209041e-01
5.225509e-01
5.271199e-01
5.338745e-01
5.419687e-01
5.503172e-01
5.585624e-01
5.657065e-01
0.000000e+00
1.000000e+00
5.667163e-01
5.601565e-01
5.528738e-01
5.454421e-01
5.384013e-01
5.324955e-01
5.285319e-01
5.271529e-01
5.286012e-01
5.326204e-01
5.385586e-01
5.456954e-01
5.530640e-01
5.603205e-01
5.665748e-01
0.000000e+00
1.000000e+00
5.676825e-01
5.621813e-01
5.560335e-01
5.497679e-01
5.438313e-01
5.388510e-01
5.355075e-01