<?xml version="1.0"?>
<VTKFile type="StructuredGrid" version="0.1">
  <StructuredGrid WholeExtent="0 16 0 16 0 16">
    <Piece Extent="0 16 0 16 0 16">
      <PointData Scalars="temperature" Vectors="velocity">
        <DataArray type="Float32" Name="temperature" format="ascii">
1.000000e+00
5.726673e-01
5.722982e-01
5.719016e-01
5.714961e-01
5.711115e-01
5.707883e-01
5.705706e-01
5.704934e-01
5.705706e-01
5.707883e-01
5.711115e-01
5.714961e-01
5.719016e-01
5.722982e-01
5.726673e-01
0.000000e+00
1.000000e+00
5.718751e-01
5.706271e-01
5.692864e-01
5.679152e-01
5.666150e-01
5.655224e-01
5.647861e-01
5.645254e-01
5.647861e-01
5.655224e-01
5.666150e-01
5.679152e-01
5.692864e-01
5.706271e-01
5.718751e-01
0.000000e+00
1.000000e+00
5.709601e-01
5.686970e-01
5.662658e-01
5.637793e-01
5.614215e-01
5.594402e-01
5.581051e-01
5.576322e-01
5.581051e-01
5.594402e-01
5.614215e-01
5.637793e-01
5.662658e-01
5.686970e-01
5.709601e-01
0.000000e+00
1.000000e+00
5.699425e-01
5.665505e-01
5.629066e-01
5.591797e-01
5.556458e-01
5.526761e-01
5.506750e-01
5.499663e-01
5.506750e-01
5.526761e-01
5.556458e-01
5.591797e-01
5.629066e-01
5.665505e-01
5.699425e-01
0.000000e+00
1.000000e+00
5.688543e-01
5.642551e-01
5.593143e-01
5.542610e-01
5.494694e-01
5.454427e-01
5.427294e-01
5.417685e-01
5.427294e-01
5.454427e-01
5.494694e-01
5.542610e-01
5.593143e-01
5.642551e-01
5.688543e-01
0.000000e+00
1.000000e+00
5.677388e-01
5.619021e-01
5.556319e-01
5.492189e-01
5.431380e-01
5.380279e-01
5.345845e-01
5.333650e-01
5.345845e-01
5.380279e-01
5.431380e-01
5.492190e-01
5.556319e-01
5.619021e-01
5.677388e-01
0.000000e+00
1.000000e+00
5.666484e-01
5.596019e-01
5.520321e-01
5.442900e-01
5.369487e-01
5.307795e-01
5.266225e-01
5.251502e-01
5.266225e-01
5.307795e-01
5.369487e-01
5.442900e-01
5.520321e-01
5.596019e-01
5.666484e-01
0.000000e+00
1.000000e+00
5.656401e-01
5.574751e-01
5.487037e-01
5.397326e-01
5.312259e-01
5.240775e-01
5.192605e-01
5.175545e-01
5.192605e-01
5.240775e-01
5.312259e-01
5.397326e-01
5.487037e-01
5.574751e-01
5.656401e-01
0.000000e+00
1.000000e+00
5.647703e-01
5.556403e-01
5.458323e-01
5.358010e-01
5.262890e-01
5.182956e-01
5.129094e-01
5.110018e-01
5.129094e-01
5.182957e-01
5.262890e-01
5.358010e-01
5.458323e-01
5.556403e-01
5.647703e-01
0.000000e+00
1.000000e+00
5.640881e-01
5.542013e-01
5.435802e-01
5.327174e-01
5.224168e-01
5.137609e-01
5.079282e-01
5.058624e-01
5.079282e-01
5.137609e-01
5.224168e-01
5.327174e-01
5.435802e-01
5.542013e-01
5.640881e-01
0.000000e+00
1.000000e+00
5.636301e-01
5.532351e-01
5.420682e-01
5.306470e-01
5.198171e-01
5.107163e-01
5.045838e-01
5.024119e-01
5.045838e-01
5.107163e-01
5.198171e-01
5.306470e-01
5.420682e-01
5.532351e-01
5.636301e-01
0.000000e+00
1.000000e+00
5.634165e-01
5.527846e-01
5.413632e-01
5.296817e-01
5.186050e-01
5.092968e-01
5.030245e-01
5.008031e-01
5.030245e-01
5.092968e-01
5.186050e-01
5.296818e-01
5.413632e-01
5.527846e-01
5.634165e-01
0.000000e+00
1.000000e+00
5.634503e-01
5.528559e-01
5.414747e-01
5.298344e-01
5.187967e-01
5.095213e-01
5.032711e-01
5.010575e-01
5.032711e-01
5.095213e-01
5.187967e-01
5.298344e-01
5.414747e-01
5.528559e-01
5.634503e-01
0.000000e+00
1.000000e+00
5.637182e-01
5.534209e-01
5.423590e-01
5.310452e-01
5.203171e-01
5.113019e-01
5.052270e-01
5.030755e-01
5.052270e-01
5.113019e-01
5.203171e-01
5.310452e-01
5.423590e-01
5.534209e-01
5.637182e-01
0.000000e+00
1.000000e+00
5.641942e-01
5.544250e-01
5.439303e-01
5.331967e-01
5.230188e-01
5.144659e-01
5.087026e-01
5.066614e-01
5.087026e-01
5.144659e-01
5.230188e-01
5.331967e-01
5.439303e-01
5.544250e-01
5.641942e-01
0.000000e+00
1.000000e+00
5.648439e-01
5.557955e-01
5.460751e-01
5.361334e-01
5.267064e-01
5.187845e-01
5.134464e-01
5.115559e-01
5.134464e-01
5.187845e-01
5.267064e-01
5.361334e-01
5.460751e-01
5.557954e-01
5.648439e-01
0.000000e+00
1.000000e+00
5.656289e-01
5.574514e-01
5.486667e-01
5.396819e-01
5.311623e-01
5.240029e-01
5.191786e-01
5.174700e-01
5.191786e-01
5.240029e-01
5.311623e-01
5.396819e-01
5.486667e-01
5.574514e-01
5.656289e-01
0.000000e+00
1.000000e+00
5.720536e-01
5.710037e-01
5.698758e-01
5.687222e-01
5.676283e-01
5.667091e-01
5.660897e-01
5.658703e-01
5.660897e-01
5.667091e-01
5.676283e-01
5.687222e-01
5.698758e-01
5.710037e-01
5.720536e-01
0.000000e+00
1.000000e+00
5.712426e-01
5.692929e-01
5.671984e-01
5.650562e-01
5.630249e-01
5.613180e-01
5.601677e-01
5.597604e-01
5.601677e-01
5.613180e-01
5.630249e-01
5.650562e-01
5.671984e-01
5.692929e-01
5.712426e-01
0.000000e+00
1.000000e+00
5.703066e-01
5.673185e-01
5.641085e-01
5.608255e-01
5.577124e-01
5.550963e-01
5.533335e-01
5.527091e-01
5.533335e-01
5.550963e-01
5.577124e-01
5.608255e-01
5.641085e-01
5.673185e-01
5.703066e-01
0.000000e+00
1.000000e+00
5.692673e-01
5.651263e-01
5.606777e-01
5.561279e-01
5.518135e-01
5.481881e-01
5.457450e-01
5.448798e-01
5.457450e-01
5.481881e-01
5.518135e-01
5.561279e-01
5.606777e-01
5.651263e-01
5.692673e-01
0.000000e+00
1.000000e+00
5.681593e-01
5.627891e-01
5.570200e-01
5.511196e-01
5.455246e-01
5.408230e-01
5.376548e-01
5.365328e-01
5.376548e-01
5.408230e-01
5.455246e-01
5.511196e-01
5.570200e-01
5.627891e-01
5.681593e-01
0.000000e+00
1.000000e+00
5.670296e-01
5.604061e-01
5.532907e-01
5.460133e-01
5.391126e-01
5.333137e-01
5.294062e-01
5.280222e-01
5.294062e-01
5.333137e-01
5.391126e-01
5.460133e-01
5.532907e-01
5.604061e-01
5.670296e-01
0.000000e+00
1.000000e+00
5.659351e-01
5.580974e-01
5.496775e-01
5.410660e-01
5.329003e-01
5.260384e-01
5.214145e-01
5.197768e-01
5.214145e-01
5.260384e-01
5.329003e-01
5.410660e-01
5.496775e-01
5.580973e-01
5.659351e-01
0.000000e+00
1.000000e+00
5.649377e-01
5.559934e-01
5.463849e-01
5.365577e-01
5.272391e-01
5.194084e-01
5.141317e-01
5.122629e-01
5.141317e-01
5.194084e-01
5.272391e-01
5.365577e-01
5.463849e-01
5.559934e-01
5.649377e-01
0.000000e+00
1.000000e+00
5.640978e-01
5.542216e-01
5.436120e-01
5.327609e-01
5.224715e-01
5.138250e-01
5.079986e-01
5.059350e-01
5.079986e-01
5.138250e-01
5.224716e-01
5.327609e-01
5.436120e-01
5.542216e-01
5.640977e-01
0.000000e+00
1.000000e+00
5.634669e-01
5.528909e-01
5.415294e-01
5.299094e-01
5.188908e-01
5.096315e-01
5.033922e-01
5.011824e-01
5.033922e-01
5.096315e-01
5.188908e-01
5.299094e-01
5.415294e-01
5.528908e-01
5.634669e-01
0.000000e+00
1.000000e+00
5.630820e-01
5.520789e-01
5.402586e-01
5.281693e-01
5.167059e-01
5.070727e-01
5.005814e-01
4.982824e-01
5.005814e-01
5.070727e-01
5.167059e-01
5.281693e-01
5.402586e-01
5.520788e-01
5.630819e-01
0.000000e+00
1.000000e+00
5.629610e-01
5.518237e-01
5.398592e-01
5.276225e-01
5.160192e-01
5.062685e-01
4.996980e-01
4.973710e-01
4.996980e-01
5.062685e-01
5.160192e-01
5.276225e-01
5.398593e-01
5.518236e-01
5.629609e-01
0.000000e+00
1.000000e+00
5.631024e-01
5.521220e-01
5.403262e-01
5.282619e-01
5.168220e-01
5.072087e-01
5.007309e-01
4.984366e-01
5.007309e-01
5.072087e-01
5.168220e-01
5.282619e-01
5.403262e-01
5.521220e-01
5.631024e-01
0.000000e+00
1.000000e+00
5.634873e-01
5.529338e-01
5.415966e-01
5.300013e-01
5.190063e-01
5.097668e-01
5.035408e-01
5.013357e-01
5.035408e-01
5.097668e-01
5.190063e-01
5.300013e-01
5.415966e-01
5.529338e-01
5.634872e-01
0.000000e+00
1.000000e+00
5.640831e-01
5.541908e-01
5.435638e-01
5.326948e-01
5.223886e-01
5.137278e-01
5.078918e-01
5.058249e-01
5.078918e-01
5.137278e-01
5.223886e-01
5.326948e-01
5.435638e-01
5.541908e-01
5.640831e-01
0.000000e+00
1.000000e+00
5.648497e-01
5.558078e-01
5.460945e-01
5.361600e-01
5.267397e-01
5.188236e-01
5.134893e-01
5.116001e-01
5.134893e-01
5.188236e-01
5.267397e-01
5.361600e-01
5.460945e-01
5.558078e-01
5.648497e-01
0.000000e+00
1.000000e+00
5.657438e-01
5.576937e-01
5.490458e-01
5.402011e-01
5.318142e-01
5.247664e-01
5.200172e-01
5.183352e-01
5.200172e-01
5.247664e-01
5.318142e-01
5.402011e-01
5.490458e-01
5.576937e-01
5.657438e-01
0.000000e+00
1.000000e+00
5.715467e-01
5.699343e-01
5.682022e-01
5.664307e-01
5.647509e-01
5.633393e-01
5.623881e-01
5.620512e-01
5.623881e-01
5.633393e-01
5.647509e-01
5.664307e-01
5.682022e-01
5.699343e-01
5.715467e-01
0.000000e+00
1.000000e+00
5.707255e-01
5.682022e-01
5.654915e-01
5.627191e-01
5.600902e-01
5.578810e-01
5.563924e-01
5.558652e-01
5.563924e-01
5.578810e-01
5.600902e-01
5.627191e-01
5.654915e-01
5.682022e-01
5.707255e-01
0.000000e+00
1.000000e+00
5.697779e-01
5.662032e-01
5.623631e-01
5.584355e-01
5.547113e-01
5.515817e-01
5.494728e-01
5.487259e-01
5.494728e-01
5.515817e-01
5.547113e-01
5.584355e-01
5.623631e-01
5.662032e-01
5.697778e-01
0.000000e+00
1.000000e+00
5.687265e-01
5.639855e-01
5.588924e-01
5.536833e-01
5.487439e-01
5.445931e-01
5.417962e-01
5.408056e-01
5.417962e-01
5.445931e-01
5.487439e-01
5.536833e-01
5.588924e-01
5.639855e-01
5.687265e-01
0.000000e+00
1.000000e+00
5.676083e-01
5.616267e-01
5.552009e-01
5.486289e-01
5.423970e-01
5.371602e-01
5.336313e-01
5.323816e-01
5.336313e-01
5.371602e-01
5.423970e-01
5.486289e-01
5.552009e-01
5.616267e-01
5.676083e-01
0.000000e+00
1.000000e+00
5.664736e-01
5.592332e-01
5.514551e-01
5.435000e-01
5.359566e-01
5.296177e-01
5.253462e-01
5.238334e-01
5.253462e-01
5.296177e-01
5.359566e-01
5.435000e-01
5.514551e-01
5.592332e-01
5.664736e-01
0.000000e+00
1.000000e+00
5.653835e-01
5.569338e-01
5.478565e-01
5.385726e-01
5.297693e-01
5.223716e-01
5.173867e-01
5.156212e-01
5.173867e-01
5.223716e-01
5.297693e-01
5.385726e-01
5.478565e-01
5.569337e-01
5.653835e-01
0.000000e+00
1.000000e+00
5.644043e-01
5.548681e-01
5.446238e-01
5.341463e-01
5.242112e-01
5.158623e-01
5.102365e-01
5.082440e-01
5.102365e-01
5.158623e-01
5.242112e-01
5.341463e-01
5.446238e-01
5.548681e-01
5.644042e-01
0.000000e+00
1.000000e+00
5.635999e-01
5.531713e-01
5.419684e-01
5.305104e-01
5.196455e-01
5.105153e-01
5.043631e-01
5.021841e-01
5.043631e-01
5.105153e-01
5.196455e-01
5.305104e-01
5.419684e-01
5.531713e-01
5.635998e-01
0.000000e+00
1.000000e+00
5.630240e-01
5.519567e-01
5.400675e-01
5.279076e-01
5.163772e-01
5.066878e-01
5.001586e-01
4.978462e-01
5.001586e-01
5.066878e-01
5.163772e-01
5.279076e-01
5.400675e-01
5.519567e-01
5.630240e-01
0.000000e+00
1.000000e+00
5.627134e-01
5.513015e-01
5.390420e-01
5.265035e-01
5.146140e-01
5.046229e-01
4.978904e-01
4.955060e-01
4.978904e-01
5.046229e-01
5.146141e-01
5.265035e-01
5.390420e-01
5.513014e-01
5.627134e-01
0.000000e+00
1.000000e+00
5.626834e-01
5.512381e-01
5.389429e-01
5.263678e-01
5.144436e-01
5.044233e-01
4.976712e-01
4.952798e-01
4.976712e-01
5.044233e-01
5.144436e-01
5.263678e-01
5.389429e-01
5.512381e-01
5.626834e-01
0.000000e+00
1.000000e+00
5.629278e-01
5.517536e-01
5.397497e-01
5.274724e-01
5.158308e-01
5.060478e-01
4.994556e-01
4.971209e-01
4.994557e-01
5.060478e-01
5.158308e-01
5.274724e-01
5.397497e-01
5.517536e-01
5.629277e-01
0.000000e+00
1.000000e+00
5.634216e-01
5.527954e-01
5.413800e-01
5.297048e-01
5.186339e-01
5.093307e-01
5.030618e-01
5.008415e-01
5.030618e-01
5.093307e-01
5.186339e-01
5.297048e-01
5.413800e-01
5.527954e-01
5.634216e-01
0.000000e+00
1.000000e+00
5.641266e-01
5.542824e-01
5.437071e-01
5.328911e-01
5.226350e-01
5.140164e-01
5.082088e-01
5.061520e-01
5.082088e-01
5.140164e-01
5.226350e-01
5.328911e-01
5.437071e-01
5.542823e-01
5.641265e-01
0.000000e+00
1.000000e+00
5.649967e-01
5.561177e-01
5.465794e-01
5.368240e-01
5.275736e-01
5.198001e-01
5.145620e-01
5.127068e-01
5.145620e-01
5.198001e-01
5.275736e-01
5.368240e-01
5.465794e-01
5.561177e-01
5.649966e-01
0.000000e+00
1.000000e+00
5.659844e-01
5.582012e-01
5.498400e-01
5.412885e-01
5.331797e-01
5.263656e-01
5.217739e-01
5.201477e-01
5.217739e-01
5.263656e-01
5.331797e-01
5.412885e-01
5.498400e-01
5.582012e-01
5.659843e-01
0.000000e+00
1.000000e+00
5.711838e-01
5.691690e-01
5.670045e-01
5.647907e-01
5.626915e-01
5.609275e-01
5.597388e-01
5.593178e-01
5.597388e-01
5.609275e-01
5.626915e-01
5.647907e-01
5.670045e-01
5.691690e-01
5.711838e-01
0.000000e+00
1.000000e+00
5.703649e-01
5.674416e-01
5.643011e-01
5.610892e-01
5.580436e-01
5.554842e-01
5.537595e-01
5.531487e-01
5.537595e-01
5.554842e-01
5.580436e-01
5.610892e-01
5.643011e-01
5.674416e-01
5.703649e-01
0.000000e+00
1.000000e+00
5.694187e-01
5.654455e-01
5.611773e-01
5.568119e-01
5.526725e-01
5.491941e-01
5.468501e-01
5.460199e-01
5.468501e-01
5.491941e-01
5.526725e-01
5.568119e-01
5.611773e-01
5.654455e-01
5.694187e-01
0.000000e+00
1.000000e+00
5.683686e-01
5.632305e-01
5.577108e-01
5.520654e-01
5.467124e-01
5.422139e-01
5.391827e-01
5.381092e-01
5.391827e-01
5.422139e-01
5.467124e-01
5.520655e-01
5.577108e-01
5.632305e-01
5.683686e-01
0.000000e+00
1.000000e+00
5.672532e-01
5.608776e-01
5.540286e-01
5.470237e-01
5.403814e-01
5.347997e-01
5.310384e-01
5.297063e-01
5.310384e-01
5.347997e-01
5.403814e-01
5.470237e-01
5.540286e-01
5.608776e-01
5.672532e-01
0.000000e+00
1.000000e+00
5.661255e-01
5.584989e-01
5.503060e-01
5.419265e-01
5.339808e-01
5.273038e-01
5.228045e-01
5.212110e-01
5.228045e-01
5.273038e-01
5.339808e-01
5.419265e-01
5.503060e-01
5.584989e-01
5.661255e-01
0.000000e+00
1.000000e+00
5.650500e-01
5.562303e-01
5.467556e-01
5.370652e-01
5.278765e-01
5.201548e-01
5.149516e-01
5.131088e-01
5.149516e-01
5.201548e-01
5.278765e-01
5.370652e-01
5.467556e-01
5.562303e-01
5.650500e-01
0.000000e+00
1.000000e+00
5.640966e-01
5.542191e-01
5.436081e-01
5.327556e-01
5.224648e-01
5.138171e-01
5.079899e-01
5.059261e-01
5.079899e-01
5.138171e-01
5.224648e-01
5.327556e-01
5.436081e-01
5.542191e-01
5.640966e-01
0.000000e+00
1.000000e+00
5.633322e-01
5.526067e-01
5.410846e-01
5.293003e-01
5.181261e-01
5.087359e-01
5.024084e-01
5.001674e-01
5.024084e-01
5.087359e-01
5.181261e-01
5.293003e-01
5.410846e-01
5.526066e-01
5.633321e-01
0.000000e+00
1.000000e+00
5.628120e-01
5.515094e-01
5.393674e-01
5.269490e-01
5.151735e-01
5.052781e-01
4.986102e-01
4.962486e-01
4.986102e-01
5.052781e-01
5.151735e-01
5.269490e-01
5.393674e-01
5.515094e-01
5.628120e-01
0.000000e+00
1.000000e+00
5.625720e-01
5.510033e-01
5.385753e-01
5.258645e-01
5.138117e-01
5.036832e-01
4.968582e-01
4.944410e-01
4.968582e-01
5.036832e-01
5.138117e-01
5.258645e-01
5.385753e-01
5.510032e-01
5.625720e-01
0.000000e+00
1.000000e+00
5.626250e-01
5.511150e-01
5.387503e-01
5.261040e-01
5.141124e-01
5.040354e-01
4.972451e-01
4.948402e-01
4.972452e-01
5.040355e-01
5.141124e-01
5.261040e-01
5.387503e-01
5.511150e-01
5.626250e-01
0.000000e+00
1.000000e+00
5.629603e-01
5.518222e-01
5.398569e-01
5.276193e-01
5.160152e-01
5.062638e-01
4.996929e-01
4.973657e-01
4.996929e-01
5.062638e-01
5.160152e-01
5.276193e-01
5.398569e-01
5.518221e-01
5.629602e-01
0.000000e+00
1.000000e+00
5.635474e-01
5.530607e-01
5.417951e-01
5.302732e-01
5.193477e-01
5.101666e-01
5.039799e-01
5.017888e-01
5.039799e-01
5.101666e-01
5.193477e-01
5.302732e-01
5.417951e-01
5.530606e-01
5.635474e-01
0.000000e+00
1.000000e+00
5.643426e-01
5.547380e-01
5.444202e-01
5.338675e-01
5.238611e-01
5.154523e-01
5.097861e-01
5.077793e-01
5.097861e-01
5.154523e-01
5.238611e-01
5.338675e-01
5.444202e-01
5.547380e-01
5.643426e-01
0.000000e+00
1.000000e+00
5.652954e-01
5.567478e-01
5.475655e-01
5.381741e-01
5.292689e-01
5.217856e-01
5.167430e-01
5.149570e-01
5.167430e-01
5.217856e-01
5.292689e-01
5.381741e-01
5.475655e-01
5.567478e-01
5.652953e-01
0.000000e+00
1.000000e+00
5.663548e-01
5.589826e-01
5.510629e-01
5.429629e-01
5.352822e-01
5.288279e-01
5.244786e-01
5.229383e-01
5.244786e-01
5.288279e-01
5.352822e-01
5.429629e-01
5.510629e-01
5.589826e-01
5.663548e-01
0.000000e+00
1.000000e+00
5.710003e-01
5.687819e-01
5.663987e-01
5.639613e-01
5.616501e-01
5.597078e-01
5.583991e-01
5.579356e-01
5.583991e-01
5.597078e-01
5.616501e-01
5.639613e-01
5.663987e-01
5.687819e-01
5.710003e-01
0.000000e+00
1.000000e+00
5.701996e-01
5.670927e-01
5.637552e-01
5.603417e-01
5.571049e-01
5.543848e-01
5.525520e-01
5.519028e-01
5.525520e-01
5.543848e-01
5.571049e-01
5.603417e-01
5.637552e-01
5.670927e-01
5.701996e-01
0.000000e+00
1.000000e+00
5.692714e-01
5.651348e-01
5.606910e-01
5.561461e-01
5.518365e-01
5.482149e-01
5.457746e-01
5.449103e-01
5.457746e-01
5.482149e-01
5.518365e-01
5.561461e-01
5.606910e-01
5.651348e-01
5.692714e-01
0.000000e+00
1.000000e+00
5.682394e-01
5.629581e-01
5.572845e-01
5.514818e-01
5.459794e-01
5.413556e-01
5.382398e-01
5.371363e-01
5.382398e-01
5.413556e-01
5.459794e-01
5.514818e-01
5.572845e-01
5.629581e-01
5.682394e-01
0.000000e+00
1.000000e+00
5.671431e-01
5.606454e-01
5.536652e-01
5.465261e-01
5.397566e-01
5.340679e-01
5.302346e-01
5.288770e-01
5.302346e-01
5.340679e-01
5.397566e-01
5.465261e-01
5.536652e-01
5.606454e-01
5.671431e-01
0.000000e+00
1.000000e+00
5.660369e-01
5.583120e-01
5.500135e-01
5.415260e-01
5.334780e-01
5.267148e-01
5.221576e-01
5.205435e-01
5.221576e-01
5.267148e-01
5.334780e-01
5.415260e-01
5.500135e-01
5.583120e-01
5.660369e-01
0.000000e+00
1.000000e+00
5.649876e-01
5.560986e-01
5.465494e-01
5.367829e-01
5.275220e-01
5.197397e-01
5.144957e-01
5.126384e-01
5.144957e-01
5.197397e-01
5.275220e-01
5.367830e-01
5.465494e-01
5.560986e-01
5.649876e-01
0.000000e+00
1.000000e+00
5.640674e-01
5.541575e-01
5.435117e-01
5.326236e-01
5.222991e-01
5.136230e-01
5.077767e-01
5.057061e-01
5.077767e-01
5.136230e-01
5.222991e-01
5.326236e-01
5.435117e-01
5.541575e-01
5.640674e-01
0.000000e+00
1.000000e+00
5.633453e-01
5.526343e-01
5.411279e-01
5.293596e-01
5.182005e-01
5.088231e-01
5.025042e-01
5.002662e-01
5.025042e-01
5.088231e-01
5.182005e-01
5.293596e-01
5.411280e-01
5.526343e-01
5.633453e-01
0.000000e+00
1.000000e+00
5.628773e-01
5.516472e-01
5.395831e-01
5.272444e-01
5.155444e-01
5.057124e-01
4.990873e-01
4.967408e-01
4.990873e-01
5.057125e-01
5.155444e-01
5.272444e-01
5.395831e-01
5.516472e-01
5.628773e-01
0.000000e+00
1.000000e+00
5.626987e-01
5.512704e-01
5.389934e-01
5.264370e-01
5.145305e-01
5.045251e-01
4.977830e-01
4.953952e-01
4.977830e-01
5.045251e-01
5.145306e-01
5.264370e-01
5.389934e-01
5.512704e-01
5.626987e-01
0.000000e+00
1.000000e+00
5.628196e-01
5.515254e-01
5.393926e-01
5.269835e-01
5.152168e-01
5.053287e-01
4.986658e-01
4.963060e-01
4.986658e-01
5.053288e-01
5.152168e-01
5.269835e-01
5.393926e-01
5.515254e-01
5.628196e-01
0.000000e+00
1.000000e+00
5.632256e-01
5.523818e-01
5.407327e-01
5.288184e-01
5.175209e-01
5.080272e-01
5.016299e-01
4.993642e-01
5.016299e-01
5.080272e-01
5.175209e-01
5.288184e-01
5.407327e-01
5.523817e-01
5.632255e-01
0.000000e+00
1.000000e+00
5.638819e-01
5.537662e-01
5.428993e-01
5.317851e-01
5.212462e-01
5.123899e-01
5.064222e-01
5.043087e-01
5.064222e-01
5.123900e-01
5.212462e-01
5.317851e-01
5.428993e-01
5.537662e-01
5.638819e-01
0.000000e+00
1.000000e+00
5.647406e-01
5.555777e-01
5.457343e-01
5.356668e-01
5.261204e-01
5.180983e-01
5.126926e-01
5.107781e-01
5.126926e-01
5.180983e-01
5.261204e-01
5.356668e-01
5.457343e-01
5.555777e-01
5.647406e-01
0.000000e+00
1.000000e+00
5.657481e-01
5.577028e-01
5.490601e-01
5.402206e-01
5.318387e-01
5.247950e-01
5.200487e-01
5.183677e-01
5.200487e-01
5.247950e-01
5.318387e-01
5.402206e-01
5.490601e-01
5.577028e-01
5.657481e-01
0.000000e+00
1.000000e+00
5.668512e-01
5.600298e-01
5.527017e-01
5.452068e-01
5.381000e-01
5.321278e-01
5.281035e-01
5.266782e-01
5.281035e-01
5.321278e-01
5.381000e-01
5.452068e-01
5.527017e-01
5.600297e-01
5.668512e-01
0.000000e+00
1.000000e+00
5.710250e-01
5.688340e-01
5.664802e-01
5.640729e-01
5.617902e-01
5.598719e-01
5.585793e-01
5.581215e-01
5.585793e-01
5.598719e-01
5.617902e-01
5.640729e-01
5.664802e-01
5.688340e-01
5.710250e-01
0.000000e+00
1.000000e+00
5.702608e-01
5.672220e-01
5.639575e-01
5.606187e-01
5.574527e-01
5.547922e-01
5.529995e-01
5.523645e-01
5.529995e-01
5.547922e-01
5.574527e-01
5.606187e-01
5.639575e-01
5.672220e-01
5.702608e-01
0.000000e+00
1.000000e+00
5.693701e-01
5.653432e-01
5.610171e-01
5.565926e-01
5.523971e-01
5.488715e-01
5.464958e-01
5.456544e-01
5.464958e-01
5.488715e-01
5.523971e-01
5.565926e-01
5.610171e-01
5.653431e-01
5.693701e-01
0.000000e+00
1.000000e+00
5.683759e-01
5.632459e-01
5.577350e-01
5.520986e-01
5.467539e-01
5.422626e-01
5.392362e-01
5.381644e-01
5.392362e-01
5.422626e-01
5.467539e-01
5.520986e-01
5.577350e-01
5.632459e-01
5.683759e-01
0.000000e+00
1.000000e+00
5.673171e-01
5.610124e-01
5.542396e-01
5.473125e-01
5.407441e-01
5.352244e-01
5.315050e-01
5.301877e-01
5.315050e-01
5.352244e-01
5.407441e-01
5.473125e-01
5.542396e-01
5.610124e-01
5.673171e-01
0.000000e+00
1.000000e+00
5.662484e-01
5.587581e-01
5.507116e-01
5.424820e-01
5.346783e-01
5.281206e-01
5.237018e-01
5.221367e-01
5.237018e-01
5.281206e-01
5.346783e-01
5.424820e-01
5.507116e-01
5.587581e-01
5.662484e-01
0.000000e+00
1.000000e+00
5.652372e-01
5.566251e-01
5.473734e-01
5.379112e-01
5.289387e-01
5.213988e-01
5.163182e-01
5.145187e-01
5.163182e-01
5.213988e-01
5.289387e-01
5.379112e-01
5.473734e-01
5.566251e-01
5.652372e-01
0.000000e+00
1.000000e+00
5.643566e-01
5.547676e-01
5.444665e-01
5.339309e-01
5.239407e-01
5.155456e-01
5.098886e-01
5.078850e-01
5.098886e-01
5.155456e-01
5.239407e-01
5.339309e-01
5.444665e-01
5.547676e-01
5.643566e-01
0.000000e+00
1.000000e+00
5.636764e-01
5.533328e-01
5.422211e-01
5.308564e-01
5.200800e-01
5.110242e-01
5.049220e-01
5.027608e-01
5.049220e-01
5.110242e-01
5.200800e-01
5.308564e-01
5.422211e-01
5.533328e-01
5.636764e-01
0.000000e+00
1.000000e+00
5.632527e-01
5.524391e-01
5.408225e-01
5.289413e-01
5.176753e-01
5.082080e-01
5.018285e-01
4.995691e-01
5.018285e-01
5.082080e-01
5.176753e-01
5.289414e-01
5.408225e-01
5.524391e-01
5.632527e-01
0.000000e+00
1.000000e+00
5.631200e-01
5.521591e-01
5.403842e-01
5.283413e-01
5.169218e-01
5.073256e-01
5.008592e-01
4.985691e-01
5.008592e-01
5.073256e-01
5.169218e-01
5.283413e-01
5.403842e-01
5.521591e-01
5.631200e-01
0.000000e+00
1.000000e+00
5.632866e-01
5.525105e-01
5.409341e-01
5.290942e-01
5.178672e-01
5.084327e-01
5.020754e-01
4.998238e-01
5.020754e-01
5.084327e-01
5.178672e-01
5.290942e-01
5.409341e-01
5.525104e-01
5.632865e-01
0.000000e+00
1.000000e+00
5.637355e-01
5.534574e-01
5.424160e-01
5.311233e-01
5.204152e-01
5.114167e-01
5.053532e-01
5.032057e-01
5.053532e-01
5.114167e-01
5.204152e-01
5.311233e-01
5.424160e-01
5.534574e-01
5.637354e-01
0.000000e+00
1.000000e+00
5.644294e-01
5.549212e-01
5.447068e-01
5.342600e-01
5.243539e-01
5.160294e-01
5.104201e-01
5.084334e-01
5.104201e-01
5.160294e-01
5.243539e-01
5.342600e-01
5.447068e-01
5.549211e-01
5.644294e-01
0.000000e+00
1.000000e+00
5.653181e-01
5.567958e-01
5.476407e-01
5.382771e-01
5.293982e-01
5.219370e-01
5.169093e-01
5.151286e-01
5.169093e-01
5.219370e-01
5.293982e-01
5.382771e-01
5.476407e-01
5.567958e-01
5.653181e-01
0.000000e+00
1.000000e+00
5.663464e-01
5.589648e-01
5.510351e-01
5.429248e-01
5.352344e-01
5.287719e-01
5.244171e-01
5.228748e-01
5.244171e-01
5.287719e-01
5.352344e-01
5.429248e-01
5.510351e-01
5.589648e-01
5.663463e-01
0.000000e+00
1.000000e+00
5.674604e-01
5.613149e-01
5.547129e-01
5.479606e-01
5.415579e-01
5.361774e-01
5.325518e-01
5.312678e-01
5.325518e-01
5.361774e-01
5.415579e-01
5.479606e-01
5.547129e-01
5.613148e-01
5.674604e-01
0.000000e+00
1.000000e+00
5.712758e-01
5.693629e-01
5.673080e-01
5.652063e-01
5.632134e-01
5.615387e-01
5.604103e-01
5.600106e-01
5.604103e-01
5.615387e-01
5.632134e-01
5.652063e-01
5.673080e-01
5.693629e-01
5.712758e-01
0.000000e+00
1.000000e+00
5.705678e-01
5.678694e-01
5.649707e-01
5.620060e-01
5.591948e-01
5.568324e-01
5.552405e-01
5.546767e-01
5.552405e-01
5.568324e-01
5.591948e-01
5.620060e-01
5.649707e-01
5.678694e-01
5.705678e-01
0.000000e+00
1.000000e+00
5.697350e-01
5.661127e-01
5.622215e-01
5.582417e-01
5.544679e-01
5.512966e-01
5.491597e-01
5.484029e-01
5.491597e-01
5.512966e-01
5.544679e-01
5.582417e-01
5.622215e-01
5.661127e-01
5.697350e-01
0.000000e+00
1.000000e+00
5.687988e-01
5.641379e-01
5.591309e-01
5.540100e-01
5.491541e-01
5.450736e-01
5.423239e-01
5.413501e-01
5.423239e-01
5.450736e-01
5.491541e-01
5.540100e-01
5.591309e-01
5.641379e-01
5.687988e-01
0.000000e+00
1.000000e+00
5.677964e-01
5.620236e-01
5.558220e-01
5.494793e-01
5.434649e-01
5.384108e-01
5.350051e-01
5.337989e-01
5.350051e-01
5.384108e-01
5.434649e-01
5.494793e-01
5.558220e-01
5.620236e-01
5.677964e-01
0.000000e+00
1.000000e+00
5.667812e-01
5.598820e-01
5.524705e-01
5.448902e-01
5.377024e-01
5.316621e-01
5.275920e-01
5.261505e-01
5.275920e-01
5.316621e-01
5.377024e-01
5.448902e-01
5.524705e-01
5.598820e-01
5.667812e-01
0.000000e+00
1.000000e+00
5.658191e-01
5.578526e-01
5.492944e-01
5.405415e-01
5.322416e-01
5.252670e-01
5.205671e-01
5.189026e-01
5.205671e-01
5.252670e-01
5.322417e-01
5.405415e-01
5.492944e-01
5.578526e-01
5.658191e-01
0.000000e+00
1.000000e+00
5.649825e-01
5.560879e-01
5.465327e-01
5.367600e-01
5.274932e-01
5.197060e-01
5.144586e-01
5.126002e-01
5.144586e-01
5.197060e-01
5.274932e-01
5.367600e-01
5.465327e-01
5.560879e-01
5.649825e-01
0.000000e+00
1.000000e+00
5.643405e-01
5.547337e-01
5.444134e-01
5.338582e-01
5.238493e-01
5.154385e-01
5.097710e-01
5.077637e-01
5.097710e-01
5.154386e-01
5.238493e-01
5.338582e-01
5.444134e-01
5.547336e-01
5.643405e-01
0.000000e+00
1.000000e+00
5.639488e-01
5.539073e-01
5.431201e-01
5.320874e-01
5.216258e-01
5.128345e-01
5.069105e-01
5.048125e-01
5.069105e-01
5.128345e-01
5.216258e-01
5.320874e-01
5.431201e-01
5.539073e-01
5.639487e-01
0.000000e+00
1.000000e+00
5.638411e-01
5.536801e-01
5.427646e-01
5.316005e-01
5.210144e-01
5.121185e-01
5.061241e-01
5.040011e-01
5.061241e-01
5.121185e-01
5.210144e-01
5.316006e-01
5.427646e-01
5.536801e-01
5.638410e-01
0.000000e+00
1.000000e+00
5.640251e-01
5.540683e-01
5.433721e-01
5.324324e-01
5.220590e-01
5.133419e-01
5.074679e-01
5.053875e-01
5.074679e-01
5.133419e-01
5.220590e-01
5.324324e-01
5.433721e-01
5.540683e-01
5.640251e-01
0.000000e+00
1.000000e+00
5.644832e-01
5.550347e-01
5.448845e-01
5.345033e-01
5.246594e-01
5.163873e-01
5.108131e-01
5.088389e-01
5.108131e-01
5.163873e-01
5.246594e-01
5.345033e-01
5.448845e-01
5.550347e-01
5.644832e-01
0.000000e+00
1.000000e+00
5.651777e-01
5.564996e-01
5.471770e-01
5.376423e-01
5.286011e-01
5.210034e-01
5.158838e-01
5.140706e-01
5.158838e-01
5.210034e-01
5.286011e-01
5.376423e-01
5.471770e-01
5.564996e-01
5.651777e-01
0.000000e+00
1.000000e+00
5.660581e-01
5.583568e-01
5.500835e-01
5.416219e-01
5.335984e-01
5.268558e-01
5.223125e-01
5.207033e-01
5.223125e-01
5.268558e-01
5.335984e-01
5.416219e-01
5.500835e-01
5.583568e-01
5.660581e-01
0.000000e+00
1.000000e+00
5.670697e-01
5.604905e-01
5.534228e-01
5.461942e-01
5.393398e-01
5.335797e-01
5.296984e-01
5.283237e-01
5.296984e-01
5.335797e-01
5.393398e-01
5.461942e-01
5.534228e-01
5.604905e-01
5.670696e-01
0.000000e+00
1.000000e+00
5.681595e-01
5.627894e-01
5.570206e-01
5.511204e-01
5.455256e-01
5.408241e-01
5.376561e-01
5.365341e-01
5.376561e-01
5.408241e-01
5.455256e-01
5.511204e-01
5.570206e-01
5.627894e-01
5.681595e-01
0.000000e+00
1.000000e+00
5.717558e-01
5.703756e-01
5.688928e-01
5.673762e-01
5.659382e-01
5.647298e-01
5.639155e-01
5.636271e-01
5.639155e-01
5.647298e-01
5.659382e-01
5.673762e-01
5.688928e-01
5.703756e-01
5.717558e-01
0.000000e+00
1.000000e+00
5.711224e-01
5.690394e-01
5.668018e-01
5.645132e-01
5.623430e-01
5.605194e-01
5.592905e-01
5.588553e-01
5.592905e-01
5.605194e-01
5.623430e-01
5.645132e-01
5.668018e-01
5.690394e-01
5.711224e-01
0.000000e+00
1.000000e+00
5.703666e-01
5.674451e-01
5.643066e-01
5.610967e-01
5.580530e-01
5.554952e-01
5.537717e-01
5.531612e-01
5.537717e-01
5.554952e-01
5.580530e-01
5.610967e-01
5.643066e-01
5.674451e-01
5.703666e-01
0.000000e+00
1.000000e+00
5.695072e-01
5.656322e-01
5.614695e-01
5.572120e-01
5.531749e-01
5.497824e-01
5.474964e-01
5.466867e-01
5.474964e-01
5.497824e-01
5.531749e-01
5.572120e-01
5.614695e-01
5.656322e-01
5.695072e-01
0.000000e+00
1.000000e+00
5.685784e-01
5.636730e-01
5.584034e-01
5.530138e-01
5.479032e-01
5.436086e-01
5.407147e-01
5.396898e-01
5.407147e-01
5.436086e-01
5.479032e-01
5.530138e-01
5.584034e-01
5.636730e-01
5.685784e-01
0.000000e+00
1.000000e+00
5.676302e-01
5.616730e-01
5.552734e-01
5.487281e-01
5.425216e-01
5.373060e-01
5.337916e-01
5.325469e-01
5.337916e-01
5.373060e-01
5.425216e-01
5.487281e-01
5.552734e-01
5.616730e-01
5.676302e-01
0.000000e+00
1.000000e+00
5.667257e-01
5.597650e-01
5.522873e-01
5.446395e-01
5.373875e-01
5.312934e-01
5.271869e-01
5.257326e-01
5.271869e-01
5.312934e-01
5.373875e-01
5.446395e-01
5.522873e-01
5.597650e-01
5.667257e-01
0.000000e+00
1.000000e+00
5.659344e-01
5.580958e-01
5.496752e-01
5.410628e-01
5.328962e-01
5.260336e-01
5.214092e-01
5.197714e-01
5.214092e-01
5.260336e-01
5.328962e-01
5.410628e-01
5.496752e-01
5.580958e-01
5.659344e-01
0.000000e+00
1.000000e+00
5.653235e-01
5.568072e-01
5.476585e-01
5.383015e-01
5.294289e-01
5.219729e-01
5.169487e-01
5.151693e-01
5.169487e-01
5.219729e-01
5.294289e-01
5.383015e-01
5.476585e-01
5.568072e-01
5.653235e-01
0.000000e+00
1.000000e+00
5.649476e-01
5.560143e-01
5.464176e-01
5.366024e-01
5.272953e-01
5.194742e-01
5.142041e-01
5.123375e-01
5.142041e-01
5.194743e-01
5.272953e-01
5.366024e-01
5.464176e-01
5.560143e-01
5.649476e-01
0.000000e+00
1.000000e+00
5.648404e-01
5.557881e-01
5.460636e-01
5.361177e-01
5.266867e-01
5.187614e-01
5.134210e-01
5.115297e-01
5.134210e-01
5.187614e-01
5.266867e-01
5.361177e-01
5.460636e-01
5.557881e-01
5.648404e-01
0.000000e+00
1.000000e+00
5.650102e-01
5.561463e-01
5.466242e-01
5.368853e-01
5.276506e-01
5.198902e-01
5.146610e-01
5.128090e-01
5.146610e-01
5.198903e-01
5.276506e-01
5.368853e-01
5.466242e-01
5.561463e-01
5.650102e-01
0.000000e+00
1.000000e+00
5.654409e-01
5.570548e-01
5.480459e-01
5.388319e-01
5.300950e-01
5.227529e-01
5.178056e-01
5.160534e-01
5.178056e-01
5.227529e-01
5.300950e-01
5.388320e-01
5.480459e-01
5.570548e-01
5.654409e-01
0.000000e+00
1.000000e+00
5.660965e-01
5.584378e-01
5.502103e-01
5.417955e-01
5.338163e-01
5.271110e-01
5.225928e-01
5.209926e-01
5.225928e-01
5.271110e-01
5.338163e-01
5.417955e-01
5.502103e-01
5.584377e-01
5.660965e-01
0.000000e+00
1.000000e+00
5.669290e-01
5.601939e-01
5.529586e-01
5.455585e-01
5.385416e-01
5.326450e-01
5.286716e-01
5.272643e-01
5.286716e-01
5.326450e-01
5.385416e-01
5.455585e-01
5.529586e-01
5.601939e-01
5.669290e-01
0.000000e+00
1.000000e+00
5.678859e-01
5.622124e-01
5.561175e-01
5.498838e-01
5.439729e-01
5.390057e-01
5.356585e-01