<?xml version="1.0"?>
<VTKFile type="StructuredGrid" version="0.1">
  <StructuredGrid WholeExtent="0 16 0 16 0 16">
    <Piece Extent="0 16 0 16 0 16">
      <PointData Scalars="temperature" Vectors="velocity">
        <DataArray type="Float32" Name="temperature" format="ascii">
1.000000e+00
5.730668e-01
5.730254e-01
5.730416e-01
5.730557e-01
5.730691e-01
5.730804e-01
5.730879e-01
5.730906e-01
5.730881e-01
5.730806e-01
5.730695e-01
5.730566e-01
5.730421e-01
5.730444e-01
5.728214e-01
0.000000e+00
1.000000e+00
5.731531e-01
5.732372e-01
5.733755e-01
5.735123e-01
5.736421e-01
5.737511e-01
5.738244e-01
5.738503e-01
5.738240e-01
5.737504e-01
5.736415e-01
5.735136e-01
5.733777e-01
5.732385e-01
5.729048e-01
0.000000e+00
1.000000e+00
5.733894e-01
5.736898e-01
5.740852e-01
5.744845e-01
5.748632e-01
5.751813e-01
5.753955e-01
5.754710e-01
5.753944e-01
5.751793e-01
5.748613e-01
5.744865e-01
5.740959e-01
5.737000e-01
5.732956e-01
0.000000e+00
1.000000e+00
5.737381e-01
5.743999e-01
5.751990e-01
5.760097e-01
5.767785e-01
5.774245e-01
5.778596e-01
5.780133e-01
5.778582e-01
5.774218e-01
5.767762e-01
5.760163e-01
5.752239e-01
5.744258e-01
5.735921e-01
0.000000e+00
1.000000e+00
5.742096e-01
5.753697e-01
5.767185e-01
5.780904e-01
5.793914e-01
5.804848e-01
5.812215e-01
5.814822e-01
5.812206e-01
5.804828e-01
5.793920e-01
5.781108e-01
5.767643e-01
5.754077e-01
5.740831e-01
0.000000e+00
1.000000e+00
5.748141e-01
5.765799e-01
5.786167e-01
5.806896e-01
5.826555e-01
5.843078e-01
5.854215e-01
5.858162e-01
5.854222e-01
5.843098e-01
5.826687e-01
5.807343e-01
5.786805e-01
5.766318e-01
5.746551e-01
0.000000e+00
1.000000e+00
5.755307e-01
5.779906e-01
5.808338e-01
5.837255e-01
5.864681e-01
5.887734e-01
5.903277e-01
5.908795e-01
5.903318e-01
5.887847e-01
5.865041e-01
5.837937e-01
5.809124e-01
5.780561e-01
5.753395e-01
0.000000e+00
1.000000e+00
5.763117e-01
5.795453e-01
5.832788e-01
5.870735e-01
5.906726e-01
5.936983e-01
5.957387e-01
5.964642e-01
5.957481e-01
5.937242e-01
5.907350e-01
5.871582e-01
5.833696e-01
5.796277e-01
5.760782e-01
0.000000e+00
1.000000e+00
5.771240e-01
5.811716e-01
5.858355e-01
5.905742e-01
5.950690e-01
5.988478e-01
6.013968e-01
6.023043e-01
6.014130e-01
5.988913e-01
5.951564e-01
5.906715e-01
5.859386e-01
5.812687e-01
5.768195e-01
0.000000e+00
1.000000e+00
5.779219e-01
5.827860e-01
5.883732e-01
5.940486e-01
5.994321e-01
6.039585e-01
6.070123e-01
6.081009e-01
6.070372e-01
6.040227e-01
5.995437e-01
5.941596e-01
5.884851e-01
5.828959e-01
5.775419e-01
0.000000e+00
1.000000e+00
5.786738e-01
5.843042e-01
5.907602e-01
5.973165e-01
6.035358e-01
6.087653e-01
6.122943e-01
6.135541e-01
6.123303e-01
6.088521e-01
6.036685e-01
5.974407e-01
5.908807e-01
5.844227e-01
5.782606e-01
0.000000e+00
1.000000e+00
5.793562e-01
5.856483e-01
5.928782e-01
6.002161e-01
6.071771e-01
6.130306e-01
6.169819e-01
6.183948e-01
6.170308e-01
6.131391e-01
6.073276e-01
6.003538e-01
5.930046e-01
5.857792e-01
5.788999e-01
0.000000e+00
1.000000e+00
5.799189e-01
5.867611e-01
5.946343e-01
6.026200e-01
6.101958e-01
6.165673e-01
6.208694e-01
6.224108e-01
6.209315e-01
6.166936e-01
6.103614e-01
6.027692e-01
5.947657e-01
5.869026e-01
5.794146e-01
0.000000e+00
1.000000e+00
5.803558e-01
5.876022e-01
5.959665e-01
6.044439e-01
6.124869e-01
6.192521e-01
6.238216e-01
6.254615e-01
6.238934e-01
6.193903e-01
6.126632e-01
6.046020e-01
5.960988e-01
5.877555e-01
5.797969e-01
0.000000e+00
1.000000e+00
5.806782e-01
5.881478e-01
5.968464e-01
6.056501e-01
6.140031e-01
6.210295e-01
6.257764e-01
6.274818e-01
6.258527e-01
6.211733e-01
6.141872e-01
6.058147e-01
5.969786e-01
5.883167e-01
5.800784e-01
0.000000e+00
1.000000e+00
5.808530e-01
5.884050e-01
5.972783e-01
6.062431e-01
6.147492e-01
6.219047e-01
6.267394e-01
6.284768e-01
6.268151e-01
6.220476e-01
6.149377e-01
6.064125e-01
5.974103e-01
5.885942e-01
5.801989e-01
0.000000e+00
1.000000e+00
5.808754e-01
5.884059e-01
5.972928e-01
6.062621e-01
6.147726e-01
6.219315e-01
6.267686e-01
6.285076e-01
6.268436e-01
6.220623e-01
6.149599e-01
6.064328e-01
5.974222e-01
5.886048e-01
5.801148e-01
0.000000e+00
1.000000e+00
5.730512e-01
5.730181e-01
5.730299e-01
5.730396e-01
5.730488e-01
5.730564e-01
5.730616e-01
5.730633e-01
5.730615e-01
5.730564e-01
5.730488e-01
5.730417e-01
5.730329e-01
5.730367e-01
5.727954e-01
0.000000e+00
1.000000e+00
5.732617e-01
5.734619e-01
5.737262e-01
5.739927e-01
5.742453e-01
5.744575e-01
5.746004e-01
5.746508e-01
5.745997e-01
5.744562e-01
5.742435e-01
5.739929e-01
5.737328e-01
5.734806e-01
5.729792e-01
0.000000e+00
1.000000e+00
5.736299e-01
5.741709e-01
5.748391e-01
5.755169e-01
5.761596e-01
5.766996e-01
5.770634e-01
5.771919e-01
5.770623e-01
5.766975e-01
5.761566e-01
5.755186e-01
5.748561e-01
5.741941e-01
5.734763e-01
0.000000e+00
1.000000e+00
5.741172e-01
5.751581e-01
5.763891e-01
5.776393e-01
5.788248e-01
5.798211e-01
5.804924e-01
5.807300e-01
5.804916e-01
5.798192e-01
5.788229e-01
5.776537e-01
5.764274e-01
5.751949e-01
5.739167e-01
0.000000e+00
1.000000e+00
5.747403e-01
5.764185e-01
5.783664e-01
5.803468e-01
5.822249e-01
5.838034e-01
5.848672e-01
5.852443e-01
5.848681e-01
5.838048e-01
5.822337e-01
5.803858e-01
5.784265e-01
5.764669e-01
5.745531e-01
0.000000e+00
1.000000e+00
5.754924e-01
5.779224e-01
5.807273e-01
5.835797e-01
5.862847e-01
5.885584e-01
5.900911e-01
5.906352e-01
5.900952e-01
5.885682e-01
5.863156e-01
5.836414e-01
5.807997e-01
5.779847e-01
5.752580e-01
0.000000e+00
1.000000e+00
5.763439e-01
5.796157e-01
5.833892e-01
5.872245e-01
5.908620e-01
5.939198e-01
5.959819e-01
5.967152e-01
5.959915e-01
5.939433e-01
5.909201e-01
5.873037e-01
5.834744e-01
5.796942e-01
5.760629e-01
0.000000e+00
1.000000e+00
5.772479e-01
5.814260e-01
5.862353e-01
5.911216e-01
5.957561e-01
5.996524e-01
6.022806e-01
6.032166e-01
6.022974e-01
5.996939e-01
5.958439e-01
5.912187e-01
5.863326e-01
5.815217e-01
5.769040e-01
0.000000e+00
1.000000e+00
5.781596e-01
5.832628e-01
5.891234e-01
5.950757e-01
6.007216e-01
6.054686e-01
6.086714e-01
6.098137e-01
6.086975e-01
6.055322e-01
6.008389e-01
5.951902e-01
5.892323e-01
5.833725e-01
5.777596e-01
0.000000e+00
1.000000e+00
5.790389e-01
5.850270e-01
5.918989e-01
5.988754e-01
6.054930e-01
6.110575e-01
6.148130e-01
6.161545e-01
6.148512e-01
6.111468e-01
6.056371e-01
5.990083e-01
5.920171e-01
5.851494e-01
5.785872e-01
0.000000e+00
1.000000e+00
5.798460e-01
5.866226e-01
5.944132e-01
6.023175e-01
6.098155e-01
6.161209e-01
6.203778e-01
6.219016e-01
6.204311e-01
6.162367e-01
6.099841e-01
6.024685e-01
5.945413e-01
5.867582e-01
5.793493e-01
0.000000e+00
1.000000e+00
5.805438e-01
5.879676e-01
5.965405e-01
6.052299e-01
6.134730e-01
6.204060e-01
6.250885e-01
6.267685e-01
6.251574e-01
6.205463e-01
6.136629e-01
6.053974e-01
5.966762e-01
5.881208e-01
5.799895e-01
0.000000e+00
1.000000e+00
5.810896e-01
5.890059e-01
5.981902e-01
6.074885e-01
6.163102e-01
6.237309e-01
6.287449e-01
6.305476e-01
6.288266e-01
6.238900e-01
6.165175e-01
6.076678e-01
5.983319e-01
5.891771e-01
5.804668e-01
0.000000e+00
1.000000e+00
5.814827e-01
5.897018e-01
5.993119e-01
6.090253e-01
6.182419e-01
6.259957e-01
6.312365e-01
6.331230e-01
6.313254e-01
6.261653e-01
6.184609e-01
6.092144e-01
5.994539e-01
5.898954e-01
5.807959e-01
0.000000e+00
1.000000e+00
5.817291e-01
5.900431e-01
5.998965e-01
6.098284e-01
6.192525e-01
6.271812e-01
6.325409e-01
6.344708e-01
6.326310e-01
6.273532e-01
6.194775e-01
6.100240e-01
6.000392e-01
5.902676e-01
5.809894e-01
0.000000e+00
1.000000e+00
5.817996e-01
5.900534e-01
5.999709e-01
6.099326e-01
6.193847e-01
6.273370e-01
6.327126e-01
6.346470e-01
6.327981e-01
6.275028e-01
6.196060e-01
6.101253e-01
6.001120e-01
5.903152e-01
5.810019e-01
0.000000e+00
1.000000e+00
5.817239e-01
5.897743e-01
5.995844e-01
6.094040e-01
6.187215e-01
6.265607e-01
6.318598e-01
6.337665e-01
6.319394e-01
6.267039e-01
6.189300e-01
6.095887e-01
5.997117e-01
5.900548e-01
5.808816e-01
0.000000e+00
1.000000e+00
5.729276e-01
5.727745e-01
5.726451e-01
5.725130e-01
5.723877e-01
5.722823e-01
5.722113e-01
5.721860e-01
5.722109e-01
5.722818e-01
5.723871e-01
5.725181e-01
5.726526e-01
5.728007e-01
5.727693e-01
0.000000e+00
1.000000e+00
5.732549e-01
5.734560e-01
5.737136e-01
5.739754e-01
5.742236e-01
5.744321e-01
5.745725e-01
5.746218e-01
5.745712e-01
5.744297e-01
5.742200e-01
5.739767e-01
5.737266e-01
5.734876e-01
5.730950e-01
0.000000e+00
1.000000e+00
5.737466e-01
5.744297e-01
5.752426e-01
5.760692e-01
5.768530e-01
5.775116e-01
5.779551e-01
5.781117e-01
5.779533e-01
5.775076e-01
5.768461e-01
5.760713e-01
5.752691e-01
5.744648e-01
5.735096e-01
0.000000e+00
1.000000e+00
5.743709e-01
5.757064e-01
5.772463e-01
5.788129e-01
5.802985e-01
5.815468e-01
5.823879e-01
5.826855e-01
5.823866e-01
5.815432e-01
5.802948e-01
5.788381e-01
5.772993e-01
5.757508e-01
5.740951e-01
0.000000e+00
1.000000e+00
5.751493e-01
5.772714e-01
5.797018e-01
5.821751e-01
5.845206e-01
5.864919e-01
5.878205e-01
5.882916e-01
5.878218e-01
5.864947e-01
5.845396e-01
5.822294e-01
5.797664e-01
5.773255e-01
5.748519e-01
0.000000e+00
1.000000e+00
5.760680e-01
5.790808e-01
5.825450e-01
5.860684e-01
5.894099e-01
5.922186e-01
5.941123e-01
5.947851e-01
5.941187e-01
5.922343e-01
5.894584e-01
5.861405e-01
5.826193e-01
5.791500e-01
5.757226e-01
0.000000e+00
1.000000e+00
5.770657e-01
5.810660e-01
5.856679e-01
5.903445e-01
5.947801e-01
5.985091e-01
6.010245e-01
6.019200e-01
6.010385e-01
5.985433e-01
5.948601e-01
5.904363e-01
5.857557e-01
5.811537e-01
5.766741e-01
0.000000e+00
1.000000e+00
5.780928e-01
5.831375e-01
5.889254e-01
5.948046e-01
6.003813e-01
6.050702e-01
6.082343e-01
6.093627e-01
6.082581e-01
6.051283e-01
6.004937e-01
5.949196e-01
5.890252e-01
5.832413e-01
5.776593e-01
0.000000e+00
1.000000e+00
5.791133e-01
5.851843e-01
5.921460e-01
5.992141e-01
6.059187e-01
6.115565e-01
6.153622e-01
6.167218e-01
6.153984e-01
6.116430e-01
6.060624e-01
5.993531e-01
5.922566e-01
5.853034e-01
5.786377e-01
0.000000e+00
1.000000e+00
5.800831e-01
5.870900e-01
5.951503e-01
6.033272e-01
6.110836e-01
6.176067e-01
6.220115e-01
6.235885e-01
6.220638e-01
6.177242e-01
6.112569e-01
6.034912e-01
5.952719e-01
5.872246e-01
5.795480e-01
0.000000e+00
1.000000e+00
5.809348e-01
5.887483e-01
5.977719e-01
6.069162e-01
6.155909e-01
6.228876e-01
6.278170e-01
6.295871e-01
6.278883e-01
6.230366e-01
6.157930e-01
6.071046e-01
5.979056e-01
5.889012e-01
5.803404e-01
0.000000e+00
1.000000e+00
5.816339e-01
5.900735e-01
5.998800e-01
6.098024e-01
6.192164e-01
6.271364e-01
6.324898e-01
6.344172e-01
6.325776e-01
6.273120e-01
6.194445e-01
6.100090e-01
6.000253e-01
5.902495e-01
5.809710e-01
0.000000e+00
1.000000e+00
5.821512e-01
5.910101e-01
6.013890e-01
6.118694e-01
6.218141e-01
6.301821e-01
6.358407e-01
6.378814e-01
6.359389e-01
6.303747e-01
6.220635e-01
6.120869e-01
6.015405e-01
5.912166e-01
5.814068e-01
0.000000e+00
1.000000e+00
5.824888e-01
5.915275e-01
6.022644e-01
6.130710e-01
6.233258e-01
6.319555e-01
6.377920e-01
6.398975e-01
6.378930e-01
6.321534e-01
6.235867e-01
6.132983e-01
6.024146e-01
5.917773e-01
5.816619e-01
0.000000e+00
1.000000e+00
5.826504e-01
5.916227e-01
6.025211e-01
6.134261e-01
6.237734e-01
6.324806e-01
6.383692e-01
6.404923e-01
6.384668e-01
6.326750e-01
6.240358e-01
6.136552e-01
6.026712e-01
5.919427e-01
5.817579e-01
0.000000e+00
1.000000e+00
5.825908e-01
5.913442e-01
6.022117e-01
6.130031e-01
6.232420e-01
6.318575e-01
6.376831e-01
6.397808e-01
6.377723e-01
6.320404e-01
6.234928e-01
6.132203e-01
6.023533e-01
5.917425e-01
5.816651e-01
0.000000e+00
1.000000e+00
5.823576e-01
5.907843e-01
6.014087e-01
6.119019e-01
6.218581e-01
6.302357e-01
6.359003e-01
6.379385e-01
6.359767e-01
6.303951e-01
6.220894e-01
6.121040e-01
6.015351e-01
5.912139e-01
5.814446e-01
0.000000e+00
1.000000e+00
5.726697e-01
5.722684e-01
5.718508e-01
5.714253e-01
5.710218e-01
5.706827e-01
5.704542e-01
5.703732e-01
5.704540e-01
5.706828e-01
5.710224e-01
5.714390e-01
5.718662e-01
5.722868e-01
5.725679e-01
0.000000e+00
1.000000e+00
5.731231e-01
5.731844e-01
5.732868e-01
5.733913e-01
5.734904e-01
5.735735e-01
5.736293e-01
5.736486e-01
5.736278e-01
5.735705e-01
5.734857e-01
5.733992e-01
5.733064e-01
5.732106e-01
5.730758e-01
0.000000e+00
1.000000e+00
5.737298e-01
5.744243e-01
5.752306e-01
5.760528e-01
5.768324e-01
5.774874e-01
5.779285e-01
5.780840e-01
5.779260e-01
5.774816e-01
5.768216e-01
5.760562e-01
5.752702e-01
5.744667e-01
5.736067e-01
0.000000e+00
1.000000e+00
5.744972e-01
5.759920e-01
5.776889e-01
5.794188e-01
5.810592e-01
5.824377e-01
5.833665e-01
5.836948e-01
5.833640e-01
5.824313e-01
5.810517e-01
5.794494e-01
5.777585e-01
5.760430e-01
5.743294e-01
0.000000e+00
1.000000e+00
5.754342e-01
5.778623e-01
5.806241e-01
5.834377e-01
5.861059e-01
5.883483e-01
5.898597e-01
5.903955e-01
5.898606e-01
5.883512e-01
5.861333e-01
5.835037e-01
5.806994e-01
5.779191e-01
5.752300e-01
0.000000e+00
1.000000e+00
5.765165e-01
5.799764e-01
5.839507e-01
5.879930e-01
5.918266e-01
5.950490e-01
5.972219e-01
5.979943e-01
5.972301e-01
5.950704e-01
5.918893e-01
5.880788e-01
5.840351e-01
5.800513e-01
5.762230e-01
0.000000e+00
1.000000e+00
5.776597e-01
5.822531e-01
5.875347e-01
5.929003e-01
5.979894e-01
6.022679e-01
6.051542e-01
6.061823e-01
6.051718e-01
6.023127e-01
5.980857e-01
5.930107e-01
5.876281e-01
5.823493e-01
5.772992e-01
0.000000e+00
1.000000e+00
5.788120e-01
5.845827e-01
5.911994e-01
5.979177e-01
6.042902e-01
6.096485e-01
6.132646e-01
6.145548e-01
6.132945e-01
6.097227e-01
6.044201e-01
5.980552e-01
5.913016e-01
5.846947e-01
5.783912e-01
0.000000e+00
1.000000e+00
5.799382e-01
5.868328e-01
5.947416e-01
6.027673e-01
6.103800e-01
6.167820e-01
6.211043e-01
6.226497e-01
6.211512e-01
6.168907e-01
6.105417e-01
6.029348e-01
5.948564e-01
5.869607e-01
5.794560e-01
0.000000e+00
1.000000e+00
5.809789e-01
5.888692e-01
5.979556e-01
6.071673e-01
6.159056e-01
6.232556e-01
6.282205e-01
6.300005e-01
6.282891e-01
6.234008e-01
6.160979e-01
6.073687e-01
5.980849e-01
5.890149e-01
5.804215e-01
0.000000e+00
1.000000e+00
5.818626e-01
5.905744e-01
6.006594e-01
6.108689e-01
6.205554e-01
6.287052e-01
6.342137e-01
6.361949e-01
6.343043e-01
6.288850e-01
6.207795e-01
6.111021e-01
6.008092e-01
5.907407e-01
5.812296e-01
0.000000e+00
1.000000e+00
5.825518e-01
5.918607e-01
6.027190e-01
6.136898e-01
6.241006e-01
6.328617e-01
6.387864e-01
6.409217e-01
6.388920e-01
6.330672e-01
6.243568e-01
6.139395e-01
6.028895e-01
5.920583e-01
5.818436e-01
0.000000e+00
1.000000e+00
5.830270e-01
5.926735e-01
6.040578e-01
6.155265e-01
6.264105e-01
6.355703e-01
6.417667e-01
6.440014e-01
6.418780e-01
6.357885e-01
6.266916e-01
6.157861e-01
6.042335e-01
5.929160e-01
5.822311e-01
0.000000e+00
1.000000e+00
5.833021e-01
5.929851e-01
6.046621e-01
6.163589e-01
6.274572e-01
6.367975e-01
6.431168e-01
6.453947e-01
6.432261e-01
6.370154e-01
6.277493e-01
6.166299e-01
6.048303e-01
5.933000e-01
5.824015e-01
0.000000e+00
1.000000e+00
5.833599e-01
5.928154e-01
6.045730e-01
6.162379e-01
6.273044e-01
6.366181e-01
6.429183e-01
6.451873e-01
6.430206e-01
6.368273e-01
6.275945e-01
6.165033e-01
6.047301e-01
5.932402e-01
5.823800e-01
0.000000e+00
1.000000e+00
5.831359e-01
5.922949e-01
6.038673e-01
6.152685e-01
6.260849e-01
6.351879e-01
6.413449e-01
6.435592e-01
6.414357e-01
6.353829e-01
6.263603e-01
6.155124e-01
6.040105e-01
5.927852e-01
5.821821e-01
0.000000e+00
1.000000e+00
5.827376e-01
5.915213e-01
6.026405e-01
6.135855e-01
6.239705e-01
6.327101e-01
6.386216e-01
6.407461e-01
6.386958e-01
6.328841e-01
6.242240e-01
6.138048e-01
6.027658e-01
5.919904e-01
5.818240e-01
0.000000e+00
1.000000e+00
5.722916e-01
5.714902e-01
5.706306e-01
5.697544e-01
5.689237e-01
5.682258e-01
5.677557e-01
5.675894e-01
5.677567e-01
5.682289e-01
5.689286e-01
5.697822e-01
5.706591e-01
5.715182e-01
5.721522e-01
0.000000e+00
1.000000e+00
5.728584e-01
5.726282e-01
5.724158e-01
5.721989e-01
5.719933e-01
5.718205e-01
5.717039e-01
5.716622e-01
5.717027e-01
5.718184e-01
5.719899e-01
5.722223e-01
5.724429e-01
5.726574e-01
5.727686e-01
0.000000e+00
1.000000e+00
5.735758e-01
5.741220e-01
5.747556e-01
5.754024e-01
5.760157e-01
5.765311e-01
5.768780e-01
5.770002e-01
5.768755e-01
5.765251e-01
5.760043e-01
5.754121e-01
5.748041e-01
5.741729e-01
5.734229e-01
0.000000e+00
1.000000e+00
5.744857e-01
5.759689e-01
5.776495e-01
5.793649e-01
5.809917e-01
5.823587e-01
5.832795e-01
5.836050e-01
5.832767e-01
5.823512e-01
5.809791e-01
5.793954e-01
5.777348e-01
5.760312e-01
5.742761e-01
0.000000e+00
1.000000e+00
5.755720e-01
5.781330e-01
5.810451e-01
5.840141e-01
5.868295e-01
5.891957e-01
5.907903e-01
5.913552e-01
5.907900e-01
5.891958e-01
5.868558e-01
5.840881e-01
5.811383e-01
5.782009e-01
5.753114e-01
0.000000e+00
1.000000e+00
5.767949e-01
5.805426e-01
5.848351e-01
5.892036e-01
5.933465e-01
5.968287e-01
5.991766e-01
6.000107e-01
5.991844e-01
5.968505e-01
5.934149e-01
5.893002e-01
5.849322e-01
5.806262e-01
5.764595e-01
0.000000e+00
1.000000e+00
5.780786e-01
5.830971e-01
5.888571e-01
5.947105e-01
6.002620e-01
6.049292e-01
6.080775e-01
6.091988e-01
6.080973e-01
6.049802e-01
6.003690e-01
5.948376e-01
5.889594e-01
5.831995e-01
5.776776e-01
0.000000e+00
1.000000e+00
5.793661e-01
5.856651e-01
5.929023e-01
6.002488e-01
6.072169e-01
6.130759e-01
6.170303e-01
6.184419e-01
6.170671e-01
6.131647e-01
6.073609e-01
6.004099e-01
5.930144e-01
5.857856e-01
5.789015e-01
0.000000e+00
1.000000e+00
5.805941e-01
5.880963e-01
5.967368e-01
6.054981e-01
6.138088e-01
6.207984e-01
6.255184e-01
6.272086e-01
6.255800e-01
6.209305e-01
6.139854e-01
6.056974e-01
5.968621e-01
5.882372e-01
5.800628e-01
0.000000e+00
1.000000e+00
5.816978e-01
5.902399e-01
6.001300e-01
6.101436e-01
6.196434e-01
6.276353e-01
6.330360e-01
6.349769e-01
6.331265e-01
6.278098e-01
6.198496e-01
6.103849e-01
6.002777e-01
5.904026e-01
5.810844e-01
0.000000e+00
1.000000e+00
5.826197e-01
5.919675e-01
6.028868e-01
6.139188e-01
6.243871e-01
6.331963e-01
6.391532e-01
6.413005e-01
6.392677e-01
6.334059e-01
6.246238e-01
6.141867e-01
6.030774e-01
5.921621e-01
5.818983e-01
0.000000e+00
1.000000e+00
5.832970e-01
5.931928e-01
6.048717e-01
6.166392e-01
6.278076e-01
6.372078e-01
6.435669e-01
6.458620e-01
6.436938e-01
6.374401e-01
6.280827e-01
6.169101e-01
6.050989e-01
5.934403e-01
5.824849e-01
0.000000e+00
1.000000e+00
5.837337e-01
5.938617e-01
6.060200e-01
6.182179e-01
6.297942e-01
6.395371e-01
6.461285e-01
6.485069e-01
6.462565e-01
6.397746e-01
6.300943e-01
6.185086e-01
6.062400e-01
5.941805e-01
5.828212e-01
0.000000e+00
1.000000e+00
5.839438e-01
5.939623e-01
6.063411e-01
6.186634e-01
6.303535e-01
6.401915e-01
6.468470e-01
6.492459e-01
6.469683e-01
6.404213e-01
6.306605e-01
6.189730e-01
6.065432e-01
5.943689e-01
5.829263e-01
0.000000e+00
1.000000e+00
5.838237e-01
5.935983e-01
6.059033e-01
6.180617e-01
6.295948e-01
6.393009e-01
6.458664e-01
6.482291e-01
6.459753e-01
6.395166e-01
6.298988e-01
6.183616e-01
6.060843e-01
5.940698e-01
5.827595e-01
0.000000e+00
1.000000e+00
5.834087e-01
5.929081e-01
6.048052e-01
6.165534e-01
6.276979e-01
6.370772e-01
6.434217e-01
6.457034e-01
6.435159e-01
6.372773e-01
6.279902e-01
6.168249e-01
6.049597e-01
5.933736e-01
5.824629e-01
0.000000e+00
1.000000e+00
5.828738e-01
5.918828e-01
6.031669e-01
6.143101e-01
6.248818e-01
6.337780e-01
6.397951e-01
6.419582e-01
6.398732e-01
6.339590e-01
6.251525e-01
6.145468e-01
6.033000e-01
5.923260e-01
5.819903e-01
0.000000e+00
1.000000e+00
5.717807e-01
5.704487e-01
5.689974e-01
5.675183e-01
5.661160e-01
5.649380e-01
5.641448e-01
5.638650e-01
5.641484e-01
5.649464e-01
5.661279e-01
5.675613e-01
5.690415e-01
5.704909e-01
5.716268e-01
0.000000e+00
1.000000e+00
5.724443e-01
5.717880e-01
5.710984e-01
5.703953e-01
5.697288e-01
5.691692e-01
5.687924e-01
5.686595e-01
5.687936e-01
5.691716e-01
5.697312e-01
5.704424e-01
5.711403e-01
5.718285e-01
5.723380e-01
0.000000e+00
1.000000e+00
5.732795e-01
5.735119e-01
5.737988e-01
5.740925e-01
5.743711e-01
5.746052e-01
5.747628e-01
5.748181e-01
5.747611e-01
5.746012e-01
5.743626e-01
5.741197e-01
5.738528e-01
5.735707e-01
5.731106e-01
0.000000e+00
1.000000e+00
5.743114e-01
5.756118e-01
5.770885e-01
5.785970e-01
5.800274e-01
5.812295e-01
5.820392e-01
5.823253e-01
5.820367e-01
5.812233e-01
5.800137e-01
5.786233e-01
5.771812e-01
5.756857e-01
5.740938e-01
0.000000e+00
1.000000e+00
5.755186e-01
5.780437e-01
5.809018e-01
5.838180e-01
5.865835e-01
5.889078e-01
5.904742e-01
5.910289e-01
5.904733e-01
5.889052e-01
5.865988e-01
5.838970e-01
5.810127e-01
5.781242e-01
5.752622e-01
0.000000e+00
1.000000e+00
5.768628e-01
5.807224e-01
5.851097e-01
5.895792e-01
5.938178e-01
5.973803e-01
5.997819e-01
6.006344e-01
5.997878e-01
5.973979e-01
5.938842e-01
5.896884e-01
5.852240e-01
5.808142e-01
5.765307e-01
0.000000e+00
1.000000e+00
5.782736e-01
5.835270e-01
5.895224e-01
5.956207e-01
6.014043e-01
6.062663e-01
6.095455e-01
6.107127e-01
6.095646e-01
6.063176e-01
6.015170e-01
5.957569e-01
5.896410e-01
5.836341e-01
5.778758e-01
0.000000e+00
1.000000e+00
5.796757e-01
5.863058e-01
5.939007e-01
6.016148e-01
6.089313e-01
6.150830e-01
6.192346e-01
6.207169e-01
6.192747e-01
6.151800e-01
6.090843e-01
6.017853e-01
5.940268e-01
5.864310e-01
5.792018e-01
0.000000e+00
1.000000e+00
5.809947e-01
5.888906e-01
5.979821e-01
6.072020e-01
6.159475e-01
6.233027e-01
6.282701e-01
6.300508e-01
6.283413e-01
6.234517e-01
6.161338e-01
6.074156e-01
5.981227e-01
5.890357e-01
5.804358e-01
0.000000e+00
1.000000e+00
5.821619e-01
5.911157e-01
6.015138e-01
6.120371e-01
6.220208e-01
6.304204e-01
6.360983e-01
6.381431e-01
6.362046e-01
6.306184e-01
6.222363e-01
6.122929e-01
6.016897e-01
5.912875e-01
5.814934e-01
0.000000e+00
1.000000e+00
5.831132e-01
5.928453e-01
6.042894e-01
6.158390e-01
6.267992e-01
6.360239e-01
6.422647e-01
6.445195e-01
6.423970e-01
6.362588e-01
6.270506e-01
6.161018e-01
6.045256e-01
5.930659e-01
5.823068e-01
0.000000e+00
1.000000e+00
5.837676e-01
5.939988e-01
6.061766e-01
6.184266e-01
6.300546e-01
6.398435e-01
6.464680e-01
6.488635e-01
6.466103e-01
6.400959e-01
6.303459e-01
6.186853e-01
6.064313e-01
5.942960e-01
5.828570e-01
0.000000e+00
1.000000e+00
5.841375e-01
5.945368e-01
6.071245e-01
6.197320e-01
6.316992e-01
6.417721e-01
6.485877e-01
6.510503e-01
6.487267e-01
6.420208e-01
6.320065e-01
6.200281e-01
6.073562e-01
5.949152e-01
5.831432e-01
0.000000e+00
1.000000e+00
5.842179e-01
5.944910e-01
6.071653e-01
6.197938e-01
6.317771e-01
6.418614e-01
6.486830e-01
6.511435e-01
6.488104e-01
6.420941e-01
6.320849e-01
6.201192e-01
6.073927e-01
5.948915e-01
5.831901e-01
0.000000e+00
1.000000e+00
5.839377e-01
5.939863e-01
6.063923e-01
6.187331e-01
6.304411e-01
6.402935e-01
6.469577e-01
6.493591e-01
6.470689e-01
6.405079e-01
6.307495e-01
6.190568e-01
6.065976e-01
5.943590e-01
5.829323e-01
0.000000e+00
1.000000e+00
5.834035e-01
5.930890e-01
6.049279e-01
6.167237e-01
6.279157e-01
6.373343e-01
6.437056e-01
6.460020e-01
6.438042e-01
6.375326e-01
6.282192e-01
6.170185e-01
6.051002e-01
5.934630e-01
5.825224e-01
0.000000e+00
1.000000e+00
5.827911e-01
5.918281e-01
6.029223e-01
6.139775e-01
6.244670e-01
6.332935e-01
6.392626e-01
6.414122e-01
6.393491e-01
6.334733e-01
6.247445e-01
6.142184e-01
6.030592e-01
5.921837e-01
5.819274e-01
0.000000e+00
1.000000e+00
5.711552e-01
5.691727e-01
5.669973e-01
5.647800e-01
5.626779e-01
5.609124e-01
5.597240e-01
5.593053e-01
5.597313e-01
5.609275e-01
5.626988e-01
5.648379e-01
5.670553e-01
5.692238e-01
5.710204e-01
0.000000e+00
1.000000e+00
5.718978e-01
5.706850e-01
5.693690e-01
5.680276e-01
5.667562e-01
5.656887e-01
5.649706e-01
5.647181e-01
5.649762e-01
5.656992e-01
5.667688e-01
5.680957e-01
5.694322e-01
5.707413e-01
5.718083e-01
0.000000e+00
1.000000e+00
5.728354e-01
5.726062e-01
5.723789e-01
5.721487e-01
5.719306e-01
5.717476e-01
5.716246e-01
5.715811e-01
5.716248e-01
5.717482e-01
5.719284e-01
5.722064e-01
5.724421e-01
5.726713e-01
5.726807e-01
0.000000e+00
1.000000e+00
5.739668e-01
5.749214e-01
5.760053e-01
5.771140e-01
5.781653e-01
5.790491e-01
5.796445e-01
5.798550e-01
5.796431e-01
5.790454e-01
5.781559e-01
5.771446e-01
5.761010e-01
5.750047e-01
5.737740e-01
0.000000e+00
1.000000e+00
5.752792e-01
5.775797e-01
5.801714e-01
5.828183e-01
5.853285e-01
5.874382e-01
5.888599e-01
5.893633e-01
5.888593e-01
5.874358e-01
5.853294e-01
5.828915e-01
5.802981e-01
5.776713e-01
5.750479e-01
0.000000e+00
1.000000e+00
5.767294e-01
5.804823e-01
5.847273e-01
5.890555e-01
5.931602e-01
5.966102e-01
5.989358e-01
5.997608e-01
5.989399e-01
5.966219e-01
5.932185e-01
5.891741e-01
5.848580e-01
5.805807e-01
5.764250e-01
0.000000e+00
1.000000e+00
5.782401e-01
5.834920e-01
5.894590e-01
5.955336e-01
6.012945e-01
6.061370e-01
6.094024e-01
6.105636e-01
6.094184e-01
6.061823e-01
6.014091e-01
5.956723e-01
5.895943e-01
5.836033e-01
5.778573e-01
0.000000e+00
1.000000e+00
5.797191e-01
5.864412e-01
5.941016e-01
6.018891e-01
6.092747e-01
6.154841e-01
6.196737e-01
6.211686e-01
6.197112e-01
6.155790e-01
6.094347e-01
6.020549e-01
5.942446e-01
5.865668e-01
5.792576e-01
0.000000e+00
1.000000e+00
5.811008e-01
5.891449e-01
5.983677e-01
6.077289e-01
6.166079e-01
6.240748e-01
6.291172e-01
6.309245e-01
6.291882e-01
6.242294e-01
6.168040e-01
6.079262e-01
5.985302e-01
5.892867e-01
5.805294e-01
0.000000e+00
1.000000e+00
5.823034e-01
5.914261e-01
6.019876e-01
6.126846e-01
6.228325e-01
6.313701e-01
6.371415e-01
6.392207e-01
6.372509e-01
6.315800e-01
6.230622e-01
6.129025e-01
6.021974e-01
5.915942e-01
5.816047e-01
0.000000e+00
1.000000e+00
5.832425e-01
5.931495e-01
6.047488e-01
6.164660e-01
6.275851e-01
6.369440e-01
6.432765e-01
6.455657e-01
6.434132e-01
6.371911e-01
6.278561e-01
6.166870e-01
6.050078e-01
5.933690e-01
5.824134e-01
0.000000e+00
1.000000e+00
5.838545e-01
5.942391e-01
6.065225e-01
6.188980e-01
6.306454e-01
6.405355e-01
6.472295e-01
6.496511e-01
6.473746e-01
6.407929e-01
6.309440e-01
6.191634e-01
6.067608e-01
5.945289e-01
5.829389e-01
0.000000e+00
1.000000e+00
5.841366e-01
5.946763e-01
6.072734e-01
6.199326e-01
6.319500e-01
6.420661e-01
6.489116e-01
6.513850e-01
6.490503e-01
6.423120e-01
6.322518e-01
6.202332e-01
6.074840e-01
5.950272e-01
5.831914e-01
0.000000e+00
1.000000e+00
5.840711e-01
5.945153e-01
6.070544e-01
6.196367e-01
6.315787e-01
6.416297e-01
6.484298e-01
6.508840e-01
6.485538e-01
6.418559e-01
6.318829e-01
6.199611e-01
6.072913e-01
5.948579e-01
5.831688e-01
0.000000e+00
1.000000e+00
5.837001e-01
5.938410e-01
6.059804e-01
6.181635e-01
6.297256e-01
6.394569e-01
6.460406e-01
6.484174e-01
6.461516e-01
6.396639e-01
6.300367e-01
6.184956e-01
6.061860e-01
5.941311e-01
5.828410e-01
0.000000e+00
1.000000e+00
5.831242e-01
5.927132e-01
6.041996e-01
6.157237e-01
6.266603e-01
6.358644e-01
6.420912e-01
6.443392e-01
6.421958e-01
6.360532e-01
6.269643e-01
6.160170e-01
6.043684e-01
5.930051e-01
5.823198e-01
0.000000e+00
1.000000e+00
5.823774e-01
5.912676e-01
6.018869e-01
6.125555e-01
6.226800e-01
6.311998e-01
6.369615e-01
6.390383e-01
6.370546e-01
6.313713e-01
6.229529e-01
6.127871e-01
6.020204e-01
5.915245e-01
5.816128e-01
0.000000e+00
1.000000e+00
5.704431e-01
5.677122e-01
5.647095e-01
5.616477e-01
5.587453e-01
5.563079e-01
5.546680e-01
5.540912e-01
5.546804e-01
5.563315e-01
5.587764e-01
5.617207e-01
5.647803e-01
5.677707e-01
5.703322e-01
0.000000e+00
1.000000e+00
5.712472e-01
5.693650e-01
5.672999e-01
5.651948e-01
5.631997e-01
5.615248e-01
5.603984e-01
5.600028e-01
5.604091e-01
5.615446e-01
5.632240e-01
5.652802e-01
5.673828e-01
5.694342e-01
5.711765e-01
0.000000e+00
1.000000e+00
5.722652e-01
5.714432e-01
5.705564e-01
5.696536e-01
5.687980e-01
5.680801e-01
5.675972e-01
5.674273e-01
5.676010e-01
5.680877e-01
5.688056e-01
5.697430e-01
5.706370e-01
5.715189e-01
5.721237e-01
0.000000e+00
1.000000e+00
5.734728e-01
5.739269e-01
5.744461e-01
5.749792e-01
5.754850e-01
5.759108e-01
5.761983e-01
5.763007e-01
5.761994e-01
5.759115e-01
5.754808e-01
5.750352e-01
5.745446e-01
5.740160e-01
5.732968e-01
0.000000e+00
1.000000e+00
5.748688e-01
5.767582e-01
5.788820e-01
5.810530e-01
5.831119e-01
5.848423e-01
5.860085e-01
5.864215e-01
5.860086e-01
5.848421e-01
5.831049e-01
5.811126e-01
5.790223e-01
5.768612e-01
5.746564e-01
0.000000e+00
1.000000e+00
5.764032e-01
5.798266e-01
5.836960e-01
5.876439e-01
5.913882e-01
5.945356e-01
5.966573e-01
5.974099e-01
5.966608e-01
5.945434e-01
5.914299e-01
5.877661e-01
5.838418e-01
5.799335e-01
5.761121e-01
0.000000e+00
1.000000e+00
5.779859e-01
5.829823e-01
5.886548e-01
5.944330e-01
5.999128e-01
6.045187e-01
6.076241e-01
6.087274e-01
6.076363e-01
6.045536e-01
6.000198e-01
5.945731e-01
5.888027e-01
5.831007e-01
5.776177e-01
0.000000e+00
1.000000e+00
5.795098e-01
5.860466e-01
5.934742e-01
6.010304e-01
6.081964e-01
6.142206e-01
6.182842e-01
6.197324e-01
6.183147e-01
6.143018e-01
6.083568e-01
6.011887e-01
5.936258e-01
5.861759e-01
5.790583e-01
0.000000e+00
1.000000e+00
5.809150e-01
5.888234e-01
5.978495e-01
6.070194e-01
6.157164e-01
6.230295e-01
6.279665e-01
6.297335e-01
6.280271e-01
6.231717e-01
6.159206e-01
6.071949e-01
5.980166e-01
5.889626e-01
5.803494e-01
0.000000e+00
1.000000e+00
5.821211e-01
5.911287e-01
6.014999e-01
6.120168e-01
6.219928e-01
6.303845e-01
6.360554e-01
6.380952e-01
6.361525e-01
6.305847e-01
6.222377e-01
6.121979e-01
6.017086e-01
5.912865e-01
5.814246e-01
0.000000e+00
1.000000e+00
5.830219e-01
5.928305e-01
6.042116e-01
6.157297e-01
6.266581e-01
6.358550e-01
6.420758e-01
6.443213e-01
6.422003e-01
6.360900e-01
6.269309e-01
6.159326e-01
6.044576e-01
5.930203e-01
5.822234e-01
0.000000e+00
1.000000e+00
5.835736e-01
5.938565e-01
6.058622e-01
6.179915e-01
6.295029e-01
6.391932e-01
6.457503e-01
6.481194e-01
6.458838e-01
6.394343e-01
6.297865e-01
6.182531e-01
6.061057e-01
5.940897e-01
5.827154e-01
0.000000e+00
1.000000e+00
5.837724e-01
5.941988e-01
6.064301e-01
6.187726e-01
6.304875e-01
6.403493e-01
6.470228e-01
6.494323e-01
6.471500e-01
6.405786e-01
6.307790e-01
6.190772e-01
6.066554e-01
5.944609e-01
5.829255e-01
0.000000e+00
1.000000e+00
5.836384e-01
5.939095e-01
6.059870e-01
6.181664e-01
6.297258e-01
6.394560e-01
6.460405e-01
6.484189e-01
6.461574e-01
6.396676e-01
6.300289e-01
6.184960e-01
6.062001e-01
5.941572e-01
5.828444e-01
0.000000e+00
1.000000e+00
5.832226e-01
5.930571e-01
6.046605e-01
6.163509e-01
6.274462e-01
6.367851e-01
6.431046e-01
6.453882e-01
6.432160e-01
6.369789e-01
6.277545e-01
6.166650e-01
6.048363e-01
5.932920e-01
5.824601e-01
0.000000e+00
1.000000e+00
5.825834e-01
5.917721e-01
6.026317e-01
6.135722e-01
6.239550e-01
6.326929e-01
6.386035e-01