<?xml version="1.0"?>
<VTKFile type="StructuredGrid" version="0.1">
  <StructuredGrid WholeExtent="0 16 0 16 0 16">
    <Piece Extent="0 16 0 16 0 16">
      <PointData Scalars="temperature" Vectors="velocity">
        <DataArray type="Float32" Name="temperature" format="ascii">
1.000000e+00
5.807648e-01
5.884301e-01
5.973066e-01
6.062806e-01
6.147940e-01
6.219535e-01
6.267886e-01
6.285209e-01
6.268416e-01
6.220558e-01
6.149326e-01
6.064093e-01
5.974036e-01
5.885990e-01
5.801152e-01
0.000000e+00
1.000000e+00
5.798549e-01
5.866127e-01
5.944313e-01
6.023430e-01
6.098481e-01
6.161591e-01
6.204200e-01
6.219453e-01
6.204651e-01
6.162468e-01
6.099744e-01
6.024635e-01
5.945275e-01
5.867602e-01
5.793063e-01
0.000000e+00
1.000000e+00
5.788104e-01
5.845716e-01
5.911988e-01
5.979160e-01
6.042877e-01
6.096448e-01
6.132598e-01
6.145517e-01
6.132959e-01
6.097121e-01
6.043855e-01
5.980059e-01
5.912748e-01
5.846824e-01
5.783493e-01
0.000000e+00
1.000000e+00
5.776857e-01
5.823507e-01
5.876923e-01
5.931147e-01
5.982577e-01
6.025810e-01
6.054968e-01
6.065360e-01
6.055224e-01
6.026302e-01
5.983321e-01
5.931864e-01
5.877616e-01
5.824394e-01
5.773081e-01
0.000000e+00
1.000000e+00
5.765209e-01
5.800266e-01
5.840321e-01
5.881033e-01
5.919644e-01
5.952097e-01
5.973971e-01
5.981737e-01
5.974092e-01
5.952413e-01
5.920172e-01
5.881595e-01
5.840963e-01
5.800988e-01
5.762017e-01
0.000000e+00
1.000000e+00
5.753587e-01
5.776980e-01
5.803699e-01
5.830893e-01
5.856683e-01
5.878356e-01
5.892958e-01
5.898122e-01
5.892961e-01
5.878469e-01
5.856980e-01
5.831280e-01
5.804282e-01
5.777574e-01
5.750978e-01
0.000000e+00
1.000000e+00
5.742569e-01
5.754741e-01
5.768778e-01
5.783083e-01
5.796649e-01
5.808049e-01
5.815726e-01
5.818433e-01
5.815691e-01
5.808015e-01
5.796720e-01
5.783276e-01
5.769266e-01
5.755252e-01
5.740360e-01
0.000000e+00
1.000000e+00
5.732807e-01
5.734695e-01
5.737351e-01
5.740053e-01
5.742617e-01
5.744773e-01
5.746224e-01
5.746727e-01
5.746192e-01
5.744715e-01
5.742620e-01
5.740156e-01
5.737689e-01
5.735149e-01
5.730785e-01
0.000000e+00
1.000000e+00
5.724622e-01
5.717911e-01
5.711077e-01
5.704073e-01
5.697435e-01
5.691858e-01
5.688102e-01
5.686768e-01
5.688092e-01
5.691844e-01
5.697505e-01
5.704170e-01
5.711349e-01
5.718374e-01
5.722626e-01
0.000000e+00
1.000000e+00
5.718518e-01
5.705243e-01
5.691247e-01
5.676923e-01
5.663343e-01
5.651937e-01
5.644257e-01
5.641545e-01
5.644281e-01
5.651998e-01
5.663467e-01
5.677056e-01
5.691504e-01
5.705640e-01
5.716773e-01
0.000000e+00
1.000000e+00
5.714641e-01
5.697235e-01
5.678716e-01
5.659766e-01
5.641800e-01
5.626709e-01
5.616548e-01
5.612964e-01
5.616598e-01
5.626820e-01
5.641962e-01
5.659947e-01
5.678948e-01
5.697437e-01
5.714192e-01
0.000000e+00
1.000000e+00
5.713023e-01
5.694081e-01
5.673775e-01
5.653001e-01
5.633306e-01
5.616761e-01
5.605622e-01
5.601695e-01
5.605680e-01
5.616890e-01
5.633487e-01
5.653219e-01
5.674004e-01
5.694264e-01
5.712786e-01
0.000000e+00
1.000000e+00
5.713708e-01
5.695622e-01
5.676174e-01
5.656288e-01
5.637434e-01
5.621596e-01
5.610933e-01
5.607173e-01
5.610989e-01
5.621723e-01
5.637625e-01
5.656546e-01
5.676436e-01
5.695857e-01
5.712651e-01
0.000000e+00
1.000000e+00
5.716475e-01
5.701396e-01
5.685202e-01
5.668650e-01
5.652958e-01
5.639776e-01
5.630901e-01
5.627771e-01
5.630947e-01
5.639886e-01
5.653150e-01
5.668964e-01
5.685525e-01
5.701665e-01
5.715815e-01
0.000000e+00
1.000000e+00
5.720978e-01
5.710733e-01
5.699815e-01
5.688658e-01
5.678082e-01
5.669198e-01
5.663217e-01
5.661105e-01
5.663242e-01
5.669268e-01
5.678246e-01
5.689041e-01
5.700209e-01
5.711092e-01
5.720251e-01
0.000000e+00
1.000000e+00
5.726857e-01
5.722851e-01
5.718788e-01
5.714637e-01
5.710704e-01
5.707401e-01
5.705177e-01
5.704390e-01
5.705177e-01
5.707412e-01
5.710789e-01
5.715036e-01
5.719226e-01
5.723319e-01
5.725754e-01
0.000000e+00
1.000000e+00
5.733757e-01
5.736940e-01
5.740862e-01
5.744862e-01
5.748656e-01
5.751847e-01
5.753997e-01
5.754752e-01
5.753978e-01
5.751811e-01
5.748650e-01
5.745173e-01
5.741387e-01
5.737535e-01
5.731756e-01
0.000000e+00
1.000000e+00
5.815459e-01
5.898371e-01
5.996017e-01
6.094256e-01
6.187455e-01
6.265843e-01
6.318794e-01
6.337774e-01
6.319336e-01
6.266974e-01
6.188974e-01
6.095600e-01
5.996932e-01
5.900492e-01
5.808817e-01
0.000000e+00
1.000000e+00
5.806998e-01
5.881100e-01
5.968888e-01
6.057108e-01
6.140798e-01
6.211184e-01
6.258722e-01
6.275752e-01
6.259168e-01
6.212177e-01
6.142282e-01
6.058522e-01
5.970016e-01
5.883279e-01
5.800980e-01
0.000000e+00
1.000000e+00
5.796977e-01
5.861501e-01
5.937725e-01
6.014426e-01
6.087187e-01
6.148373e-01
6.189682e-01
6.204464e-01
6.190063e-01
6.149192e-01
6.088416e-01
6.015567e-01
5.938699e-01
5.863293e-01
5.791398e-01
0.000000e+00
1.000000e+00
5.785763e-01
5.839900e-01
5.903305e-01
5.967285e-01
6.027976e-01
6.079005e-01
6.113443e-01
6.125750e-01
6.113754e-01
6.079640e-01
6.028951e-01
5.968208e-01
5.904163e-01
5.841261e-01
5.781024e-01
0.000000e+00
1.000000e+00
5.773975e-01
5.816896e-01
5.866819e-01
5.917320e-01
5.965221e-01
6.005490e-01
6.032654e-01
6.042343e-01
6.032872e-01
6.005955e-01
5.965956e-01
5.918062e-01
5.867599e-01
5.817927e-01
5.769915e-01
0.000000e+00
1.000000e+00
5.762102e-01
5.793495e-01
5.829831e-01
5.866672e-01
5.901613e-01
5.930982e-01
5.950782e-01
5.957825e-01
5.950904e-01
5.931277e-01
5.902111e-01
5.867235e-01
5.830522e-01
5.794257e-01
5.758749e-01
0.000000e+00
1.000000e+00
5.750687e-01
5.770869e-01
5.794162e-01
5.817835e-01
5.840286e-01
5.859153e-01
5.871868e-01
5.876378e-01
5.871911e-01
5.859265e-01
5.840553e-01
5.818205e-01
5.794773e-01
5.771446e-01
5.747929e-01
0.000000e+00
1.000000e+00
5.740477e-01
5.750233e-01
5.761741e-01
5.773449e-01
5.784554e-01
5.793886e-01
5.800174e-01
5.802399e-01
5.800169e-01
5.793884e-01
5.784621e-01
5.773607e-01
5.762192e-01
5.750689e-01
5.738113e-01
0.000000e+00
1.000000e+00
5.731939e-01
5.732793e-01
5.734408e-01
5.736020e-01
5.737551e-01
5.738837e-01
5.739703e-01
5.740004e-01
5.739682e-01
5.738797e-01
5.737535e-01
5.736065e-01
5.734666e-01
5.733176e-01
5.729645e-01
0.000000e+00
1.000000e+00
5.725529e-01
5.719512e-01
5.713611e-01
5.707546e-01
5.701798e-01
5.696968e-01
5.693716e-01
5.692563e-01
5.693711e-01
5.696966e-01
5.701830e-01
5.707597e-01
5.713780e-01
5.719866e-01
5.723477e-01
0.000000e+00
1.000000e+00
5.721256e-01
5.711015e-01
5.700311e-01
5.689333e-01
5.678925e-01
5.670180e-01
5.664292e-01
5.662214e-01
5.664315e-01
5.670234e-01
5.679020e-01
5.689431e-01
5.700447e-01
5.711226e-01
5.720770e-01
0.000000e+00
1.000000e+00
5.719504e-01
5.707536e-01
5.694852e-01
5.681861e-01
5.669543e-01
5.659196e-01
5.652228e-01
5.649770e-01
5.652261e-01
5.659274e-01
5.669672e-01
5.682010e-01
5.695005e-01
5.707732e-01
5.719206e-01
0.000000e+00
1.000000e+00
5.720134e-01
5.708914e-01
5.696995e-01
5.684796e-01
5.673230e-01
5.663514e-01
5.656971e-01
5.654663e-01
5.657001e-01
5.663588e-01
5.673363e-01
5.685000e-01
5.697195e-01
5.709154e-01
5.719106e-01
0.000000e+00
1.000000e+00
5.722902e-01
5.714657e-01
5.705977e-01
5.697095e-01
5.688674e-01
5.681600e-01
5.676836e-01
5.675153e-01
5.676853e-01
5.681648e-01
5.688787e-01
5.697356e-01
5.706240e-01
5.714939e-01
5.722217e-01
0.000000e+00
1.000000e+00
5.727461e-01
5.724046e-01
5.720677e-01
5.717223e-01
5.713949e-01
5.711199e-01
5.709346e-01
5.708689e-01
5.709344e-01
5.711205e-01
5.714009e-01
5.717507e-01
5.721007e-01
5.724409e-01
5.726584e-01
0.000000e+00
1.000000e+00
5.733410e-01
5.736247e-01
5.739790e-01
5.743393e-01
5.746811e-01
5.749684e-01
5.751618e-01
5.752299e-01
5.751601e-01
5.749654e-01
5.746809e-01
5.743618e-01
5.740212e-01
5.736703e-01
5.732365e-01
0.000000e+00
1.000000e+00
5.740372e-01
5.750405e-01
5.761980e-01
5.773779e-01
5.784967e-01
5.794370e-01
5.800705e-01
5.802943e-01
5.800687e-01
5.794336e-01
5.784948e-01
5.773989e-01
5.762564e-01
5.750991e-01
5.738311e-01
0.000000e+00
1.000000e+00
5.821370e-01
5.909270e-01
6.014251e-01
6.119232e-01
6.218818e-01
6.302584e-01
6.359172e-01
6.379427e-01
6.359731e-01
6.303856e-01
6.220500e-01
6.120674e-01
6.015144e-01
5.912055e-01
5.814460e-01
0.000000e+00
1.000000e+00
5.813287e-01
5.893086e-01
5.988846e-01
6.084436e-01
6.175113e-01
6.251383e-01
6.302898e-01
6.321321e-01
6.303338e-01
6.252546e-01
6.176751e-01
6.085939e-01
5.989955e-01
5.895997e-01
5.807138e-01
0.000000e+00
1.000000e+00
5.803700e-01
5.874181e-01
5.958949e-01
6.043495e-01
6.123693e-01
6.191142e-01
6.236691e-01
6.252969e-01
6.237054e-01
6.192158e-01
6.125098e-01
6.044767e-01
5.959939e-01
5.876835e-01
5.797933e-01
0.000000e+00
1.000000e+00
5.793017e-01
5.853076e-01
5.925295e-01
5.997407e-01
6.065808e-01
6.123328e-01
6.162165e-01
6.176034e-01
6.162457e-01
6.124165e-01
6.066942e-01
5.998441e-01
5.926158e-01
5.855293e-01
5.787726e-01
0.000000e+00
1.000000e+00
5.781389e-01
5.830413e-01
5.889055e-01
5.947779e-01
6.003478e-01
6.050311e-01
6.081922e-01
6.093200e-01
6.082150e-01
6.050957e-01
6.004363e-01
5.948622e-01
5.889835e-01
5.832120e-01
5.776696e-01
0.000000e+00
1.000000e+00
5.769431e-01
5.807031e-01
5.851830e-01
5.896801e-01
5.939455e-01
5.975315e-01
5.999511e-01
6.008129e-01
5.999672e-01
5.975761e-01
5.940106e-01
5.897454e-01
5.852503e-01
5.808293e-01
5.765437e-01
0.000000e+00
1.000000e+00
5.757672e-01
5.784205e-01
5.815543e-01
5.847112e-01
5.877054e-01
5.902223e-01
5.919197e-01
5.925226e-01
5.919282e-01
5.902465e-01
5.877478e-01
5.847571e-01
5.816106e-01
5.785062e-01
5.754389e-01
0.000000e+00
1.000000e+00
5.747027e-01
5.763161e-01
5.782242e-01
5.801519e-01
5.819801e-01
5.835169e-01
5.845529e-01
5.849205e-01
5.845566e-01
5.835271e-01
5.820016e-01
5.801778e-01
5.782707e-01
5.763761e-01
5.744342e-01
0.000000e+00
1.000000e+00
5.738033e-01
5.745172e-01
5.753948e-01
5.762774e-01
5.771146e-01
5.778181e-01
5.782921e-01
5.784596e-01
5.782910e-01
5.778175e-01
5.771157e-01
5.762820e-01
5.754202e-01
5.745610e-01
5.735662e-01
0.000000e+00
1.000000e+00
5.731154e-01
5.731367e-01
5.732256e-01
5.733072e-01
5.733846e-01
5.734496e-01
5.734933e-01
5.735085e-01
5.734917e-01
5.734462e-01
5.733800e-01
5.733047e-01
5.732362e-01
5.731691e-01
5.729191e-01
0.000000e+00
1.000000e+00
5.726732e-01
5.722435e-01
5.718230e-01
5.713869e-01
5.709733e-01
5.706259e-01
5.703919e-01
5.703091e-01
5.703922e-01
5.706270e-01
5.709758e-01
5.713890e-01
5.718288e-01
5.722650e-01
5.726019e-01
0.000000e+00
1.000000e+00
5.724876e-01
5.718669e-01
5.712305e-01
5.705757e-01
5.699550e-01
5.694335e-01
5.690823e-01
5.689583e-01
5.690837e-01
5.694371e-01
5.699620e-01
5.705836e-01
5.712364e-01
5.718865e-01
5.724222e-01
0.000000e+00
1.000000e+00
5.725459e-01
5.719910e-01
5.714230e-01
5.708394e-01
5.702860e-01
5.698212e-01
5.695081e-01
5.693976e-01
5.695093e-01
5.698243e-01
5.702931e-01
5.708528e-01
5.714338e-01
5.720134e-01
5.724315e-01
0.000000e+00
1.000000e+00
5.728241e-01
5.725642e-01
5.723195e-01
5.720669e-01
5.718274e-01
5.716263e-01
5.714908e-01
5.714427e-01
5.714906e-01
5.716268e-01
5.718314e-01
5.720822e-01
5.723361e-01
5.725911e-01
5.727130e-01
0.000000e+00
1.000000e+00
5.732858e-01
5.735099e-01
5.738006e-01
5.740949e-01
5.743740e-01
5.746086e-01
5.747665e-01
5.748220e-01
5.747651e-01
5.746062e-01
5.743734e-01
5.741080e-01
5.738280e-01
5.735449e-01
5.731431e-01
0.000000e+00
1.000000e+00
5.738875e-01
5.747396e-01
5.757277e-01
5.767337e-01
5.776876e-01
5.784893e-01
5.790293e-01
5.792202e-01
5.790277e-01
5.784862e-01
5.776852e-01
5.767478e-01
5.757735e-01
5.747861e-01
5.737363e-01
0.000000e+00
1.000000e+00
5.745902e-01
5.761636e-01
5.779603e-01
5.797908e-01
5.815267e-01
5.829855e-01
5.839685e-01
5.843164e-01
5.839679e-01
5.829845e-01
5.815299e-01
5.798201e-01
5.780217e-01
5.762220e-01
5.743701e-01
0.000000e+00
1.000000e+00
5.825587e-01
5.916811e-01
6.026538e-01
6.136060e-01
6.239950e-01
6.327337e-01
6.386364e-01
6.407461e-01
6.386972e-01
6.328716e-01
6.241789e-01
6.137610e-01
6.027434e-01
5.919803e-01
5.818208e-01
0.000000e+00
1.000000e+00
5.817986e-01
5.901614e-01
6.002798e-01
6.103537e-01
6.199098e-01
6.279473e-01
6.333762e-01
6.353138e-01
6.334256e-01
6.280763e-01
6.200842e-01
6.105090e-01
6.003874e-01
5.904788e-01
5.811327e-01
0.000000e+00
1.000000e+00
5.808801e-01
5.883458e-01
5.974173e-01
6.064336e-01
6.149857e-01
6.221790e-01
6.270372e-01
6.287699e-01
6.270771e-01
6.222943e-01
6.151387e-01
6.065700e-01
5.975184e-01
5.886504e-01
5.802558e-01
0.000000e+00
1.000000e+00
5.798361e-01
5.862887e-01
5.941325e-01
6.019352e-01
6.093361e-01
6.155608e-01
6.197644e-01
6.212628e-01
6.197958e-01
6.156583e-01
6.094611e-01
6.020460e-01
5.942186e-01
5.865465e-01
5.792536e-01
0.000000e+00
1.000000e+00
5.786688e-01
5.840512e-01
5.905402e-01
5.970160e-01
6.031584e-01
6.083238e-01
6.118111e-01
6.130536e-01
6.118355e-01
6.084016e-01
6.032566e-01
5.971068e-01
5.906182e-01
5.842499e-01
5.781655e-01
0.000000e+00
1.000000e+00
5.774730e-01
5.817051e-01
5.868028e-01
5.918986e-01
5.967317e-01
6.007952e-01
6.035374e-01
6.045138e-01
6.035556e-01
6.008525e-01
5.968049e-01
5.919695e-01
5.868705e-01
5.818583e-01
5.770354e-01
0.000000e+00
1.000000e+00
5.762920e-01
5.793915e-01
5.831216e-01
5.868577e-01
5.904011e-01
5.933798e-01
5.953889e-01
5.961031e-01
5.954006e-01
5.934162e-01
5.904516e-01
5.869091e-01
5.831771e-01
5.795013e-01
5.759129e-01
0.000000e+00
1.000000e+00
5.751922e-01
5.772494e-01
5.797152e-01
5.821933e-01
5.845436e-01
5.865191e-01
5.878511e-01
5.883243e-01
5.878579e-01
5.865383e-01
5.845742e-01
5.822262e-01
5.797598e-01
5.773201e-01
5.748862e-01
0.000000e+00
1.000000e+00
5.742459e-01
5.754046e-01
5.768002e-01
5.782016e-01
5.795307e-01
5.806476e-01
5.814002e-01
5.816669e-01
5.814012e-01
5.806516e-01
5.795398e-01
5.782121e-01
5.768278e-01
5.754518e-01
5.740040e-01
0.000000e+00
1.000000e+00
5.735305e-01
5.739792e-01
5.745511e-01
5.751222e-01
5.756636e-01
5.761186e-01
5.764250e-01
5.765332e-01
5.764237e-01
5.761162e-01
5.756601e-01
5.751191e-01
5.745607e-01
5.740094e-01
5.733363e-01
0.000000e+00
1.000000e+00
5.730687e-01
5.730490e-01
5.730875e-01
5.731183e-01
5.731474e-01
5.731719e-01
5.731883e-01
5.731940e-01
5.731878e-01
5.731708e-01
5.731452e-01
5.731155e-01
5.730888e-01
5.730678e-01
5.729740e-01
0.000000e+00
1.000000e+00
5.728698e-01
5.726492e-01
5.724578e-01
5.722562e-01
5.720650e-01
5.719044e-01
5.717963e-01
5.717581e-01
5.717967e-01
5.719055e-01
5.720670e-01
5.722574e-01
5.724568e-01
5.726649e-01
5.727641e-01
0.000000e+00
1.000000e+00
5.729237e-01
5.727653e-01
5.726373e-01
5.725020e-01
5.723737e-01
5.722659e-01
5.721933e-01
5.721677e-01
5.721935e-01
5.722667e-01
5.723761e-01
5.725063e-01
5.726394e-01
5.727819e-01
5.728010e-01
0.000000e+00
1.000000e+00
5.732048e-01
5.733429e-01
5.735406e-01
5.737389e-01
5.739269e-01
5.740849e-01
5.741912e-01
5.742286e-01
5.741903e-01
5.740835e-01
5.739266e-01
5.737436e-01
5.735510e-01
5.733655e-01
5.730570e-01
0.000000e+00
1.000000e+00
5.736737e-01
5.743009e-01
5.750413e-01
5.757937e-01
5.765072e-01
5.771067e-01
5.775105e-01
5.776531e-01
5.775090e-01
5.771037e-01
5.765036e-01
5.757992e-01
5.750683e-01
5.743331e-01
5.735097e-01
0.000000e+00
1.000000e+00
5.742845e-01
5.755460e-01
5.769928e-01
5.784659e-01
5.798628e-01
5.810367e-01
5.818276e-01
5.821075e-01
5.818267e-01
5.810346e-01
5.798613e-01
5.784843e-01
5.770399e-01
5.755904e-01
5.741078e-01
0.000000e+00
1.000000e+00
5.749958e-01
5.769841e-01
5.792481e-01
5.815540e-01
5.837407e-01
5.855785e-01
5.868169e-01
5.872558e-01
5.868176e-01
5.855805e-01
5.837519e-01
5.815932e-01
5.793045e-01
5.770387e-01
5.747565e-01
0.000000e+00
1.000000e+00
5.826688e-01
5.920801e-01
6.031813e-01
6.143293e-01
6.249053e-01
6.338012e-01
6.398102e-01
6.419594e-01
6.398730e-01
6.339458e-01
6.251032e-01
6.144974e-01
6.032762e-01
5.923166e-01
5.819834e-01
0.000000e+00
1.000000e+00
5.820182e-01
5.906061e-01
6.009501e-01
6.112752e-01
6.210695e-01
6.293070e-01
6.348707e-01
6.368585e-01
6.349248e-01
6.294442e-01
6.212536e-01
6.114377e-01
6.010614e-01
5.909038e-01
5.813303e-01
0.000000e+00
1.000000e+00
5.811398e-01
5.888586e-01
5.982011e-01
6.075100e-01
6.163395e-01
6.237655e-01
6.287806e-01
6.305710e-01
6.288259e-01
6.238886e-01
6.165020e-01
6.076557e-01
5.983095e-01
5.891519e-01
5.804884e-01
0.000000e+00
1.000000e+00
5.800884e-01
5.868629e-01
5.949904e-01
6.031121e-01
6.108155e-01
6.172940e-01
6.216686e-01
6.232294e-01
6.217066e-01
6.173985e-01
6.109486e-01
6.032300e-01
5.950809e-01
5.870930e-01
5.795118e-01
0.000000e+00
1.000000e+00
5.789320e-01
5.846436e-01
5.914289e-01
5.982340e-01
6.046888e-01
6.101167e-01
6.137810e-01
6.150880e-01
6.138127e-01
6.102006e-01
6.047942e-01
5.983309e-01
5.915105e-01
5.848157e-01
5.784361e-01
0.000000e+00
1.000000e+00
5.777356e-01
5.822894e-01
5.876806e-01
5.931007e-01
5.982418e-01
6.025646e-01
6.054817e-01
6.065224e-01
6.055070e-01
6.026270e-01
5.983218e-01
5.931771e-01
5.877509e-01
5.824167e-01
5.772966e-01
0.000000e+00
1.000000e+00
5.765467e-01
5.799427e-01
5.839546e-01
5.879981e-01
5.918334e-01
5.950577e-01
5.972327e-01
5.980085e-01
5.972502e-01
5.950984e-01
5.918896e-01
5.880542e-01
5.840121e-01
5.800316e-01
5.761622e-01
0.000000e+00
1.000000e+00
5.754306e-01
5.777509e-01
5.804813e-01
5.832425e-01
5.858613e-01
5.880627e-01
5.895477e-01
5.900766e-01
5.895570e-01
5.880846e-01
5.858974e-01
5.832803e-01
5.805266e-01
5.778065e-01
5.751370e-01
0.000000e+00
1.000000e+00
5.744742e-01
5.758536e-01
5.774917e-01
5.791487e-01
5.807202e-01
5.820411e-01
5.829317e-01
5.832477e-01
5.829341e-01
5.820483e-01
5.807362e-01
5.791672e-01
5.775250e-01
5.758902e-01
5.742567e-01
0.000000e+00
1.000000e+00
5.737378e-01
5.743817e-01
5.751777e-01
5.759800e-01
5.767409e-01
5.773802e-01
5.778109e-01
5.779631e-01
5.778100e-01
5.773794e-01
5.767411e-01
5.759804e-01
5.751903e-01
5.744034e-01
5.735643e-01
0.000000e+00
1.000000e+00
5.732596e-01
5.734205e-01
5.736679e-01
5.739128e-01
5.741450e-01
5.743400e-01
5.744714e-01
5.745177e-01
5.744706e-01
5.743384e-01
5.741419e-01
5.739091e-01
5.736690e-01
5.734306e-01
5.731493e-01
0.000000e+00
1.000000e+00
5.730479e-01
5.730057e-01
5.730159e-01
5.730202e-01
5.730242e-01
5.730276e-01
5.730300e-01
5.730309e-01
5.730301e-01
5.730278e-01
5.730238e-01
5.730187e-01
5.730134e-01
5.730160e-01
5.729556e-01
0.000000e+00
1.000000e+00
5.730995e-01
5.731226e-01
5.731970e-01
5.732682e-01
5.733358e-01
5.733925e-01
5.734307e-01
5.734442e-01
5.734306e-01
5.733924e-01
5.733358e-01
5.732677e-01
5.731963e-01
5.731340e-01
5.729992e-01
0.000000e+00
1.000000e+00
5.733865e-01
5.737138e-01
5.741219e-01
5.745347e-01
5.749262e-01
5.752550e-01
5.754765e-01
5.755546e-01
5.754755e-01
5.752531e-01
5.749239e-01
5.745336e-01
5.741315e-01
5.737343e-01
5.732191e-01
0.000000e+00
1.000000e+00
5.738665e-01
5.746938e-01
5.756571e-01
5.766369e-01
5.775660e-01
5.783467e-01
5.788726e-01
5.790584e-01
5.788711e-01
5.783434e-01
5.775609e-01
5.766409e-01
5.756865e-01
5.747258e-01
5.736774e-01
0.000000e+00
1.000000e+00
5.744905e-01
5.759643e-01
5.776488e-01
5.793640e-01
5.809905e-01
5.823573e-01
5.832782e-01
5.836042e-01
5.832776e-01
5.823557e-01
5.809897e-01
5.793877e-01
5.776990e-01
5.760073e-01
5.742890e-01
0.000000e+00
1.000000e+00
5.752144e-01
5.774271e-01
5.799432e-01
5.825057e-01
5.849358e-01
5.869780e-01
5.883544e-01
5.888425e-01
5.883563e-01
5.869826e-01
5.849517e-01
5.825502e-01
5.799992e-01
5.774788e-01
5.749651e-01
0.000000e+00
1.000000e+00
5.825512e-01
5.919804e-01
6.029406e-01
6.139982e-01
6.244902e-01
6.333161e-01
6.392793e-01
6.414158e-01
6.393428e-01
6.334610e-01
6.246933e-01
6.141687e-01
6.030364e-01
5.921786e-01
5.819224e-01
0.000000e+00
1.000000e+00
5.819412e-01
5.906022e-01
6.008189e-01
6.110942e-01
6.208430e-01
6.290428e-01
6.345813e-01
6.365651e-01
6.346402e-01
6.291812e-01
6.210299e-01
6.112572e-01
6.009298e-01
5.908303e-01
5.812934e-01
0.000000e+00
1.000000e+00
5.810966e-01
5.889129e-01
5.981535e-01
6.074436e-01
6.162574e-01
6.236701e-01
6.286761e-01
6.304687e-01
6.287287e-01
6.237955e-01
6.164256e-01
6.075957e-01
5.982664e-01
5.891303e-01
5.804797e-01
0.000000e+00
1.000000e+00
5.800741e-01
5.869310e-01
5.949952e-01
6.031175e-01
6.108232e-01
6.173036e-01
6.216789e-01
6.232449e-01
6.217253e-01
6.174100e-01
6.109619e-01
6.032414e-01
5.950907e-01
5.871045e-01
5.795188e-01
0.000000e+00
1.000000e+00
5.789281e-01
5.847035e-01
5.914517e-01
5.982640e-01
6.047268e-01
6.101613e-01
6.138295e-01
6.151420e-01
6.138694e-01
6.102464e-01
6.048374e-01
5.983664e-01
5.915385e-01
5.848383e-01
5.784447e-01
0.000000e+00
1.000000e+00
5.777195e-01
5.823287e-01
5.876885e-01
5.931103e-01
5.982534e-01
6.025775e-01
6.054955e-01
6.065391e-01
6.055274e-01
6.026403e-01
5.983376e-01
5.931910e-01
5.877629e-01
5.824293e-01
5.772968e-01
0.000000e+00
1.000000e+00
5.765118e-01
5.799434e-01
5.839197e-01
5.879499e-01
5.917722e-01
5.949854e-01
5.971530e-01
5.979274e-01
5.971744e-01
5.950263e-01
5.918317e-01
5.880098e-01
5.839816e-01
5.800176e-01
5.761503e-01
0.000000e+00
1.000000e+00
5.753838e-01
5.777024e-01
5.803877e-01
5.831142e-01
5.857001e-01
5.878736e-01
5.893397e-01
5.898624e-01
5.893510e-01
5.878962e-01
5.857375e-01
5.831556e-01
5.804387e-01
5.777560e-01
5.751243e-01
0.000000e+00
1.000000e+00
5.744207e-01
5.757612e-01
5.773373e-01
5.789375e-01
5.804551e-01
5.817307e-01
5.825908e-01
5.828963e-01
5.825939e-01
5.817379e-01
5.804704e-01
5.789580e-01
5.773755e-01
5.757986e-01
5.742565e-01
0.000000e+00
1.000000e+00
5.736736e-01
5.742547e-01
5.749741e-01
5.757013e-01
5.763908e-01
5.769702e-01
5.773606e-01
5.774985e-01
5.773596e-01
5.769689e-01
5.763906e-01
5.757035e-01
5.749901e-01
5.742743e-01
5.735520e-01
0.000000e+00
1.000000e+00
5.731878e-01
5.732739e-01
5.734352e-01
5.735941e-01
5.737449e-01
5.738714e-01
5.739566e-01
5.739865e-01
5.739556e-01
5.738691e-01
5.737415e-01
5.735926e-01
5.734392e-01
5.732801e-01
5.730771e-01
0.000000e+00
1.000000e+00
5.729788e-01
5.728563e-01
5.727797e-01
5.726968e-01
5.726180e-01
5.725519e-01
5.725073e-01
5.724915e-01
5.725071e-01
5.725512e-01
5.726166e-01
5.726966e-01
5.727798e-01
5.728501e-01
5.729039e-01
0.000000e+00
1.000000e+00
5.730341e-01
5.729864e-01
5.729823e-01
5.729741e-01
5.729663e-01
5.729597e-01
5.729552e-01
5.729536e-01
5.729549e-01
5.729588e-01
5.729648e-01
5.729743e-01
5.729842e-01
5.729863e-01
5.729472e-01
0.000000e+00
1.000000e+00
5.733326e-01
5.736040e-01
5.739487e-01
5.742974e-01
5.746281e-01
5.749059e-01
5.750929e-01
5.751587e-01
5.750916e-01
5.749033e-01
5.746241e-01
5.742924e-01
5.739673e-01
5.736169e-01
5.732177e-01
0.000000e+00
1.000000e+00
5.738290e-01
5.746191e-01
5.755390e-01
5.764751e-01
5.773627e-01
5.781086e-01
5.786109e-01
5.787884e-01
5.786092e-01
5.781046e-01
5.773559e-01
5.764700e-01
5.755672e-01
5.746450e-01
5.736663e-01
0.000000e+00
1.000000e+00
5.744719e-01
5.759288e-01
5.775921e-01
5.792863e-01
5.808929e-01
5.822430e-01
5.831526e-01
5.834745e-01
5.831516e-01
5.822408e-01
5.808897e-01
5.793027e-01
5.776462e-01
5.759647e-01
5.742717e-01
0.000000e+00
1.000000e+00
5.752150e-01
5.774308e-01
5.799483e-01
5.825127e-01
5.849445e-01
5.869882e-01
5.883655e-01
5.888538e-01
5.883672e-01
5.869925e-01
5.849581e-01
5.825543e-01
5.800085e-01
5.774774e-01
5.749627e-01
0.000000e+00
1.000000e+00
5.821992e-01
5.913548e-01
6.019061e-01
6.125780e-01
6.227044e-01
6.312235e-01
6.369798e-01
6.390447e-01
6.370456e-01
6.313605e-01
6.229025e-01
6.127421e-01
6.019996e-01
5.915168e-01
5.816092e-01
0.000000e+00
1.000000e+00
5.815742e-01
5.900390e-01
5.998480e-01
6.097603e-01
6.191655e-01
6.270767e-01
6.324207e-01
6.343369e-01
6.324842e-01
6.272094e-01
6.193477e-01
6.099175e-01
5.999562e-01
5.902115e-01
5.809916e-01
0.000000e+00
1.000000e+00
5.807424e-01
5.883789e-01
5.972267e-01
6.061706e-01
6.146565e-01
6.217936e-01
6.266135e-01
6.283417e-01
6.266723e-01
6.219149e-01
6.148225e-01
6.063201e-01
5.973388e-01
5.885431e-01
5.801972e-01
0.000000e+00
1.000000e+00
5.797360e-01
5.863975e-01
5.940896e-01
6.018745e-01
6.092601e-01
6.154711e-01
6.196642e-01
6.211669e-01
6.197162e-01
6.155733e-01
6.093977e-01
6.019982e-01
5.941878e-01
5.865337e-01
5.792429e-01
0.000000e+00
1.000000e+00
5.786013e-01
5.841537e-01
5.905424e-01
5.970172e-01
6.031592e-01
6.083235e-01
6.118086e-01
6.130565e-01
6.118518e-01
6.084039e-01
6.032691e-01
5.971204e-01
5.906330e-01
5.842652e-01
5.781672e-01
0.000000e+00
1.000000e+00
5.773936e-01
5.817512e-01
5.867523e-01
5.918278e-01
5.966418e-01
6.006887e-01
6.034184e-01
6.043943e-01
6.034499e-01
6.007466e-01
5.967247e-01
5.919103e-01
5.868326e-01
5.818402e-01
5.770147e-01
0.000000e+00
1.000000e+00
5.761809e-01
5.793305e-01
5.829395e-01
5.866079e-01
5.900868e-01
5.930107e-01
5.949822e-01
5.956852e-01
5.950003e-01
5.930472e-01
5.901440e-01
5.866707e-01
5.830092e-01
5.794002e-01
5.758542e-01
0.000000e+00
1.000000e+00
5.750461e-01
5.770517e-01
5.793571e-01
5.817031e-01
5.839279e-01
5.857978e-01
5.870585e-01
5.875068e-01
5.870656e-01
5.858148e-01
5.839598e-01
5.817446e-01
5.794172e-01
5.771065e-01
5.748103e-01
0.000000e+00
1.000000e+00
5.740750e-01
5.750780e-01
5.762599e-01
5.774622e-01
5.786025e-01
5.795609e-01
5.802070e-01
5.804360e-01
5.802077e-01
5.795639e-01
5.786114e-01
5.774793e-01
5.763009e-01
5.751153e-01
5.739370e-01
0.000000e+00
1.000000e+00
5.733247e-01
5.735494e-01
5.738644e-01
5.741820e-01
5.744831e-01
5.747361e-01
5.749065e-01
5.749663e-01
5.749047e-01
5.747330e-01
5.744809e-01
5.741876e-01
5.738849e-01
5.735707e-01
5.732230e-01
0.000000e+00
1.000000e+00
5.728355e-01
5.725615e-01
5.723165e-01
5.720624e-01
5.718214e-01
5.716188e-01
5.714822e-01
5.714335e-01
5.714810e-01
5.716163e-01
5.718196e-01
5.720680e-01
5.723273e-01
5.725736e-01
5.727322e-01
0.000000e+00
1.000000e+00
5.726352e-01
5.721542e-01
5.716777e-01
5.711878e-01
5.707232e-01
5.703329e-01
5.700698e-01
5.699766e-01
5.700696e-01
5.703322e-01
5.707234e-01
5.711954e-01
5.716842e-01
5.721564e-01
5.725410e-01
0.000000e+00
1.000000e+00
5.727053e-01
5.723110e-01
5.719225e-01
5.715230e-01
5.711442e-01
5.708259e-01
5.706113e-01
5.705352e-01
5.706109e-01
5.708249e-01
5.711434e-01
5.715307e-01
5.719308e-01
5.723170e-01
5.725812e-01
0.000000e+00
1.000000e+00
5.730215e-01
5.729689e-01
5.729522e-01
5.729329e-01
5.729146e-01
5.728991e-01
5.728885e-01
5.728843e-01
5.728870e-01
5.728961e-01
5.729098e-01
5.729348e-01
5.729743e-01
5.729765e-01
5.729428e-01
0.000000e+00
1.000000e+00
5.735407e-01
5.740338e-01
5.746201e-01
5.752169e-01
5.757827e-01
5.762581e-01
5.765782e-01
5.766908e-01
5.765759e-01
5.762533e-01
5.757746e-01
5.752088e-01
5.746476e-01
5.740549e-01
5.734429e-01
0.000000e+00
1.000000e+00
5.742096e-01
5.753983e-01
5.767585e-01
5.781450e-01
5.794598e-01
5.805646e-01
5.813089e-01
5.815720e-01
5.813071e-01
5.805609e-01
5.794529e-01
5.781475e-01
5.768109e-01
5.754310e-01
5.740690e-01
0.000000e+00
1.000000e+00
5.749786e-01
5.769561e-01
5.792021e-01
5.814909e-01
5.836614e-01
5.854855e-01
5.867147e-01
5.871501e-01
5.867149e-01
5.854865e-01
5.836663e-01
5.815218e-01
5.792687e-01
5.769993e-01
5.747592e-01
0.000000e+00
1.000000e+00
5.815996e-01
5.902286e-01
6.001005e-01
6.101038e-01
6.195943e-01
6.275773e-01
6.329704e-01
6.349047e-01
6.330352e-01
6.276991e-01
6.197741e-01
6.102504e-01
6.001902e-01
5.903652e-01
5.810634e-01
0.000000e+00
1.000000e+00
5.809644e-01
5.889273e-01
5.980539e-01
6.073017e-01
6.160749e-01
6.234534e-01
6.284360e-01
6.302223e-01
6.284980e-01
6.235709e-01
6.162410e-01
6.074459e-01
5.981593e-01
5.890672e-01
5.804467e-01
0.000000e+00
1.000000e+00
5.801338e-01
5.872645e-01
5.954319e-01
6.037115e-01
6.115656e-01
6.181704e-01
6.226290e-01
6.242269e-01
6.226864e-01
6.182784e-01
6.117196e-01
6.038519e-01
5.955427e-01
5.873961e-01
5.796518e-01
0.000000e+00
1.000000e+00
5.791303e-01
5.852672e-01
5.922803e-01
5.993963e-01
6.061462e-01
6.118214e-01
6.156510e-01
6.170217e-01
6.156991e-01
6.119113e-01
6.062740e-01
5.995152e-01
5.923822e-01
5.853800e-01
5.786936e-01
0.000000e+00
1.000000e+00
5.779964e-01
5.829986e-01
5.887048e-01
5.945012e-01
5.999987e-01
6.046202e-01
6.077372e-01
6.088505e-01
6.077731e-01
6.046894e-01
6.001001e-01
5.946025e-01
5.888017e-01
5.830964e-01
5.776086e-01
0.000000e+00
1.000000e+00
5.767832e-01
5.805658e-01
5.848754e-01
5.892584e-01
5.934151e-01
5.969088e-01
5.992642e-01
6.001030e-01
5.992850e-01
5.969552e-01
5.934893e-01
5.893412e-01
5.849647e-01
5.806478e-01
5.764464e-01
0.000000e+00
1.000000e+00
5.755618e-01
5.781122e-01
5.810179e-01
5.839770e-01
5.867832e-01
5.891417e-01
5.907312e-01
5.912957e-01
5.907392e-01
5.891648e-01
5.868289e-01
5.840383e-01
5.810989e-01
5.781804e-01
5.752736e-01
0.000000e+00
1.000000e+00
5.744204e-01
5.758027e-01
5.773929e-01
5.790137e-01
5.805508e-01
5.818427e-01
5.827134e-01
5.830219e-01
5.827146e-01
5.818486e-01
5.805688e-01
5.790480e-01
5.774614e-01
5.758596e-01
5.742115e-01
0.000000e+00
1.000000e+00
5.734445e-01
5.738059e-01
5.742629e-01
5.747279e-01
5.751690e-01
5.755399e-01
5.757898e-01
5.758780e-01
5.757888e-01
5.755388e-01
5.751725e-01
5.747466e-01
5.743063e-01
5.738441e-01
5.733216e-01
0.000000e+00
1.000000e+00
5.726956e-01
5.722669e-01
5.718525e-01
5.714273e-01
5.710242e-01
5.706855e-01
5.704573e-01
5.703762e-01
5.704565e-01
5.706845e-01
5.710279e-01
5.714459e-01
5.718824e-01
5.722924e-01
5.725995e-01
0.000000e+00
1.000000e+00
5.722121e-01
5.712844e-01
5.703142e-01
5.693209e-01
5.683790e-01
5.675875e-01
5.670544e-01
5.668656e-01
5.670548e-01
5.675887e-01
5.683855e-01
5.693401e-01
5.703370e-01
5.713015e-01
5.721381e-01
0.000000e+00
1.000000e+00
5.720209e-01
5.708996e-01
5.697112e-01
5.684952e-01
5.673422e-01
5.663735e-01
5.657209e-01
5.654901e-01
5.657221e-01
5.663759e-01
5.673492e-01
5.685139e-01
5.697273e-01
5.709102e-01
5.719041e-01
0.000000e+00
1.000000e+00
5.721145e-01
5.710949e-01
5.700165e-01
5.689134e-01
5.678674e-01
5.669884e-01
5.663963e-01
5.661869e-01
5.663972e-01
5.669902e-01
5.678722e-01
5.689324e-01
5.700338e-01
5.711085e-01
5.719769e-01
0.000000e+00
1.000000e+00
5.724532e-01
5.718049e-01
5.711277e-01
5.704348e-01
5.697779e-01
5.692259e-01
5.688539e-01
5.687220e-01
5.688534e-01
5.692252e-01
5.697775e-01
5.704553e-01
5.711521e-01
5.718183e-01
5.723647e-01
0.000000e+00
1.000000e+00
5.729998e-01
5.729323e-01
5.728927e-01
5.728516e-01
5.728127e-01
5.727799e-01
5.727575e-01
5.727490e-01
5.727554e-01
5.727758e-01
5.728060e-01
5.728626e-01
5.729247e-01
5.729528e-01
5.729423e-01
0.000000e+00
1.000000e+00
5.737002e-01
5.743652e-01
5.751375e-01
5.759255e-01
5.766727e-01
5.773005e-01
5.777232e-01