<?xml version="1.0"?>
<VTKFile type="StructuredGrid" version="0.1">
  <StructuredGrid WholeExtent="0 16 0 16 0 16">
    <Piece Extent="0 16 0 16 0 16">
      <PointData Scalars="temperature" Vectors="velocity">
        <DataArray type="Float32" Name="temperature" format="ascii">
1.000000e+00
5.731754e-01
5.730284e-01
5.730481e-01
5.730624e-01
5.730759e-01
5.730872e-01
5.730948e-01
5.730977e-01
5.730954e-01
5.730882e-01
5.730770e-01
5.730648e-01
5.730501e-01
5.730866e-01
5.724334e-01
0.000000e+00
1.000000e+00
5.730711e-01
5.730340e-01
5.730641e-01
5.730832e-01
5.731013e-01
5.731163e-01
5.731264e-01
5.731300e-01
5.731265e-01
5.731163e-01
5.731013e-01
5.730827e-01
5.730603e-01
5.730271e-01
5.729582e-01
0.000000e+00
1.000000e+00
5.732714e-01
5.732802e-01
5.734517e-01
5.736128e-01
5.737654e-01
5.738936e-01
5.739801e-01
5.740105e-01
5.739786e-01
5.738898e-01
5.737590e-01
5.736061e-01
5.734543e-01
5.732891e-01
5.734722e-01
0.000000e+00
1.000000e+00
5.735625e-01
5.737880e-01
5.742387e-01
5.746919e-01
5.751218e-01
5.754831e-01
5.757263e-01
5.758112e-01
5.757225e-01
5.754781e-01
5.751177e-01
5.746943e-01
5.742685e-01
5.738268e-01
5.732364e-01
0.000000e+00
1.000000e+00
5.739292e-01
5.745624e-01
5.754576e-01
5.763604e-01
5.772165e-01
5.779357e-01
5.784199e-01
5.785902e-01
5.784163e-01
5.779323e-01
5.772221e-01
5.763795e-01
5.755236e-01
5.746473e-01
5.733305e-01
0.000000e+00
1.000000e+00
5.744934e-01
5.755974e-01
5.770903e-01
5.785971e-01
5.800263e-01
5.812272e-01
5.820358e-01
5.823201e-01
5.820312e-01
5.812301e-01
5.800597e-01
5.786560e-01
5.772118e-01
5.757288e-01
5.737007e-01
0.000000e+00
1.000000e+00
5.752029e-01
5.768637e-01
5.790943e-01
5.813415e-01
5.834732e-01
5.852652e-01
5.864727e-01
5.868988e-01
5.864729e-01
5.852901e-01
5.835528e-01
5.814559e-01
5.792651e-01
5.770406e-01
5.743641e-01
0.000000e+00
1.000000e+00
5.759849e-01
5.783176e-01
5.813926e-01
5.844882e-01
5.874252e-01
5.898952e-01
5.915613e-01
5.921528e-01
5.915742e-01
5.899553e-01
5.875558e-01
5.846541e-01
5.816051e-01
5.785580e-01
5.750429e-01
0.000000e+00
1.000000e+00
5.768371e-01
5.798905e-01
5.838810e-01
5.878943e-01
5.917026e-01
5.949060e-01
5.970685e-01
5.978411e-01
5.970993e-01
5.950062e-01
5.918817e-01
5.881034e-01
5.841239e-01
5.802351e-01
5.756178e-01
0.000000e+00
1.000000e+00
5.777074e-01
5.815060e-01
5.864347e-01
5.913899e-01
5.960921e-01
6.000480e-01
6.027199e-01
6.036787e-01
6.027700e-01
6.001854e-01
5.963181e-01
5.916296e-01
5.867008e-01
5.819720e-01
5.758509e-01
0.000000e+00
1.000000e+00
5.785689e-01
5.830747e-01
5.889215e-01
5.947941e-01
6.003672e-01
6.050566e-01
6.082253e-01
6.093663e-01
6.082946e-01
6.052264e-01
6.006391e-01
5.950604e-01
5.891996e-01
5.836019e-01
5.763652e-01
0.000000e+00
1.000000e+00
5.793798e-01
5.845146e-01
5.912163e-01
5.979363e-01
6.043141e-01
6.096815e-01
6.133103e-01
6.146214e-01
6.134000e-01
6.098816e-01
6.046339e-01
5.982287e-01
5.915142e-01
5.850508e-01
5.772283e-01
0.000000e+00
1.000000e+00
5.800593e-01
5.857714e-01
5.932167e-01
6.006752e-01
6.077547e-01
6.137139e-01
6.177454e-01
6.192070e-01
6.178559e-01
6.139438e-01
6.081222e-01
6.010011e-01
5.935323e-01
5.862915e-01
5.780154e-01
0.000000e+00
1.000000e+00
5.805684e-01
5.868028e-01
5.948484e-01
6.029095e-01
6.105611e-01
6.170036e-01
6.213649e-01
6.229506e-01
6.214924e-01
6.172627e-01
6.109703e-01
6.032697e-01
5.951913e-01
5.872925e-01
5.788476e-01
0.000000e+00
1.000000e+00
5.809989e-01
5.875533e-01
5.960641e-01
6.045760e-01
6.126567e-01
6.194619e-01
6.240712e-01
6.257494e-01
6.242099e-01
6.197489e-01
6.130993e-01
6.049746e-01
5.964311e-01
5.880492e-01
5.795748e-01
0.000000e+00
1.000000e+00
5.813926e-01
5.879878e-01
5.968460e-01
6.056515e-01
6.140125e-01
6.210556e-01
6.258287e-01
6.275698e-01
6.259832e-01
6.213726e-01
6.144830e-01
6.060773e-01
5.972319e-01
5.885439e-01
5.799472e-01
0.000000e+00
1.000000e+00
5.816412e-01
5.881345e-01
5.972108e-01
6.061560e-01
6.146498e-01
6.218063e-01
6.266596e-01
6.284364e-01
6.268384e-01
6.221501e-01
6.151677e-01
6.066320e-01
5.976274e-01
5.888026e-01
5.796282e-01
0.000000e+00
1.000000e+00
5.729705e-01
5.728177e-01
5.727171e-01
5.726077e-01
5.725039e-01
5.724166e-01
5.723578e-01
5.723371e-01
5.723577e-01
5.724161e-01
5.725037e-01
5.726098e-01
5.727132e-01
5.731200e-01
5.711921e-01
0.000000e+00
1.000000e+00
5.730863e-01
5.730501e-01
5.730862e-01
5.731123e-01
5.731370e-01
5.731577e-01
5.731717e-01
5.731763e-01
5.731701e-01
5.731540e-01
5.731315e-01
5.731060e-01
5.730835e-01
5.731097e-01
5.724411e-01
0.000000e+00
1.000000e+00
5.734168e-01
5.735480e-01
5.738654e-01
5.741800e-01
5.744786e-01
5.747295e-01
5.748981e-01
5.749570e-01
5.748953e-01
5.747261e-01
5.744727e-01
5.741768e-01
5.738836e-01
5.735586e-01
5.733319e-01
0.000000e+00
1.000000e+00
5.738268e-01
5.743286e-01
5.750926e-01
5.758603e-01
5.765885e-01
5.772005e-01
5.776127e-01
5.777579e-01
5.776111e-01
5.772019e-01
5.765942e-01
5.758717e-01
5.751405e-01
5.743784e-01
5.737935e-01
0.000000e+00
1.000000e+00
5.743685e-01
5.753870e-01
5.767780e-01
5.781681e-01
5.794867e-01
5.805949e-01
5.813416e-01
5.816054e-01
5.813416e-01
5.806053e-01
5.795163e-01
5.782160e-01
5.768765e-01
5.754919e-01
5.741517e-01
0.000000e+00
1.000000e+00
5.751141e-01
5.767168e-01
5.788866e-01
5.810564e-01
5.831147e-01
5.848452e-01
5.860119e-01
5.864259e-01
5.860223e-01
5.848834e-01
5.831929e-01
5.811626e-01
5.790430e-01
5.768824e-01
5.746367e-01
0.000000e+00
1.000000e+00
5.759728e-01
5.782815e-01
5.813635e-01
5.844477e-01
5.873735e-01
5.898340e-01
5.914938e-01
5.920857e-01
5.915226e-01
5.899094e-01
5.875063e-01
5.846069e-01
5.815618e-01
5.785189e-01
5.753885e-01
0.000000e+00
1.000000e+00
5.769168e-01
5.800097e-01
5.841035e-01
5.881986e-01
5.920840e-01
5.953523e-01
5.975587e-01
5.983499e-01
5.976109e-01
5.954694e-01
5.922736e-01
5.884035e-01
5.843388e-01
5.803641e-01
5.760396e-01
0.000000e+00
1.000000e+00
5.779389e-01
5.818152e-01
5.869739e-01
5.921279e-01
5.970188e-01
6.011339e-01
6.039139e-01
6.049158e-01
6.039897e-01
6.012902e-01
5.972648e-01
5.923732e-01
5.872331e-01
5.823253e-01
5.763839e-01
0.000000e+00
1.000000e+00
5.789503e-01
5.836055e-01
5.898244e-01
5.960297e-01
6.019189e-01
6.068753e-01
6.102263e-01
6.114395e-01
6.103271e-01
6.070680e-01
6.022225e-01
5.963080e-01
5.900955e-01
5.842610e-01
5.764360e-01
0.000000e+00
1.000000e+00
5.799121e-01
5.852818e-01
5.925032e-01
5.996968e-01
6.065250e-01
6.122731e-01
6.161625e-01
6.175768e-01
6.162895e-01
6.124993e-01
6.068891e-01
6.000104e-01
5.927814e-01
5.860011e-01
5.769919e-01
0.000000e+00
1.000000e+00
5.807909e-01
5.867549e-01
5.948750e-01
6.029452e-01
6.106061e-01
6.170568e-01
6.214250e-01
6.230202e-01
6.215791e-01
6.173143e-01
6.110332e-01
6.033016e-01
5.951691e-01
5.874694e-01
5.776979e-01
0.000000e+00
1.000000e+00
5.814965e-01
5.879753e-01
5.968370e-01
6.056328e-01
6.139829e-01
6.210157e-01
6.257819e-01
6.275285e-01
6.259611e-01
6.213046e-01
6.144678e-01
6.060411e-01
5.971544e-01
5.886497e-01
5.786693e-01
0.000000e+00
1.000000e+00
5.819464e-01
5.889160e-01
5.983237e-01
6.076693e-01
6.165413e-01
6.240152e-01
6.290835e-01
6.309453e-01
6.292808e-01
6.243362e-01
6.170720e-01
6.081255e-01
5.986713e-01
5.895400e-01
5.796326e-01
0.000000e+00
1.000000e+00
5.823569e-01
5.894876e-01
5.993015e-01
6.090148e-01
6.182346e-01
6.260012e-01
6.312697e-01
6.332054e-01
6.314724e-01
6.263512e-01
6.187904e-01
6.095073e-01
5.996782e-01
5.901347e-01
5.802995e-01
0.000000e+00
1.000000e+00
5.826324e-01
5.897148e-01
5.997772e-01
6.096715e-01
6.190642e-01
6.269787e-01
6.323502e-01
6.343251e-01
6.325609e-01
6.273585e-01
6.196392e-01
6.101940e-01
6.001895e-01
5.904269e-01
5.806301e-01
0.000000e+00
1.000000e+00
5.826818e-01
5.896583e-01
5.997810e-01
6.096804e-01
6.190807e-01
6.270050e-01
6.323867e-01
6.343716e-01
6.326171e-01
6.273903e-01
6.196732e-01
6.102383e-01
6.002110e-01
5.904152e-01
5.808064e-01
0.000000e+00
1.000000e+00
5.727602e-01
5.723614e-01
5.719988e-01
5.716238e-01
5.712682e-01
5.709694e-01
5.707681e-01
5.706966e-01
5.707674e-01
5.709687e-01
5.712715e-01
5.716362e-01
5.719995e-01
5.726840e-01
5.718851e-01
0.000000e+00
1.000000e+00
5.730469e-01
5.728271e-01
5.727278e-01
5.726224e-01
5.725226e-01
5.724387e-01
5.723819e-01
5.723608e-01
5.723786e-01
5.724327e-01
5.725188e-01
5.726267e-01
5.727427e-01
5.729400e-01
5.723658e-01
0.000000e+00
1.000000e+00
5.734495e-01
5.735890e-01
5.739201e-01
5.742550e-01
5.745725e-01
5.748390e-01
5.750183e-01
5.750807e-01
5.750147e-01
5.748321e-01
5.745655e-01
5.742598e-01
5.739556e-01
5.736276e-01
5.727240e-01
0.000000e+00
1.000000e+00
5.739745e-01
5.746609e-01
5.756082e-01
5.765665e-01
5.774753e-01
5.782387e-01
5.787525e-01
5.789329e-01
5.787479e-01
5.782368e-01
5.774874e-01
5.765907e-01
5.756811e-01
5.747296e-01
5.735557e-01
0.000000e+00
1.000000e+00
5.747231e-01
5.760276e-01
5.777816e-01
5.795424e-01
5.812125e-01
5.826161e-01
5.835616e-01
5.838951e-01
5.835626e-01
5.826395e-01
5.812724e-01
5.796237e-01
5.779180e-01
5.761647e-01
5.741980e-01
0.000000e+00
1.000000e+00
5.756647e-01
5.776658e-01
5.803944e-01
5.831211e-01
5.857076e-01
5.878824e-01
5.893492e-01
5.898715e-01
5.893733e-01
5.879525e-01
5.858300e-01
5.832598e-01
5.805690e-01
5.778881e-01
5.748376e-01
0.000000e+00
1.000000e+00
5.766903e-01
5.795324e-01
5.833664e-01
5.871903e-01
5.908183e-01
5.938702e-01
5.959308e-01
5.966708e-01
5.959852e-01
5.939796e-01
5.910027e-01
5.873783e-01
5.835740e-01
5.798749e-01
5.755545e-01
0.000000e+00
1.000000e+00
5.778107e-01
5.815349e-01
5.865615e-01
5.915646e-01
5.963129e-01
6.003091e-01
6.030109e-01
6.039894e-01
6.030994e-01
6.004571e-01
5.965648e-01
5.918032e-01
5.868006e-01
5.820557e-01
5.759847e-01
0.000000e+00
1.000000e+00
5.789891e-01
5.835631e-01
5.898185e-01
5.960250e-01
6.019159e-01
6.068752e-01
6.102309e-01
6.114528e-01
6.103520e-01
6.070622e-01
6.022351e-01
5.963072e-01
5.900719e-01
5.842800e-01
5.763106e-01
0.000000e+00
1.000000e+00
5.801213e-01
5.855116e-01
5.929607e-01
6.003266e-01
6.073191e-01
6.132079e-01
6.171965e-01
6.186569e-01
6.173523e-01
6.134374e-01
6.077110e-01
6.006522e-01
5.932148e-01
5.863543e-01
5.767537e-01
0.000000e+00
1.000000e+00
5.812287e-01
5.872438e-01
5.958128e-01
6.042349e-01
6.122305e-01
6.189662e-01
6.235333e-01
6.252141e-01
6.237233e-01
6.192367e-01
6.126986e-01
6.046216e-01
5.960759e-01
5.881325e-01
5.773931e-01
0.000000e+00
1.000000e+00
5.822833e-01
5.886490e-01
5.982322e-01
6.075550e-01
6.164041e-01
6.238608e-01
6.289218e-01
6.307925e-01
6.291444e-01
6.241707e-01
6.169438e-01
6.080228e-01
5.985202e-01
5.895758e-01
5.785903e-01
0.000000e+00
1.000000e+00
5.831002e-01
5.897251e-01
6.001223e-01
6.101484e-01
6.196637e-01
6.276838e-01
6.331318e-01
6.351511e-01
6.333818e-01
6.280316e-01
6.202627e-01
6.107005e-01
6.004458e-01
5.906947e-01
5.797377e-01
0.000000e+00
1.000000e+00
5.834096e-01
5.905799e-01
6.014345e-01
6.119429e-01
6.219158e-01
6.303235e-01
6.360377e-01
6.381579e-01
6.363042e-01
6.307071e-01
6.225567e-01
6.125517e-01
6.017906e-01
5.914817e-01
5.806400e-01
0.000000e+00
1.000000e+00
5.836819e-01
5.909812e-01
6.021403e-01
6.129161e-01
6.231415e-01
6.317617e-01
6.376205e-01
6.397923e-01
6.378892e-01
6.321794e-01
6.238052e-01
6.135517e-01
6.025368e-01
5.919151e-01
5.811960e-01
0.000000e+00
1.000000e+00
5.838419e-01
5.910690e-01
6.022764e-01
6.131062e-01
6.233850e-01
6.320516e-01
6.379432e-01
6.401274e-01
6.382160e-01
6.325023e-01
6.240600e-01
6.137466e-01
6.027085e-01
5.920090e-01
5.814160e-01
0.000000e+00
1.000000e+00
5.835423e-01
5.909416e-01
6.019093e-01
6.125972e-01
6.227468e-01
6.313066e-01
6.371279e-01
6.392913e-01
6.374115e-01
6.317437e-01
6.234113e-01
6.132389e-01
6.023425e-01
5.917624e-01
5.814275e-01
0.000000e+00
1.000000e+00
5.724047e-01
5.716405e-01
5.708653e-01
5.700722e-01
5.693204e-01
5.686889e-01
5.682639e-01
5.681141e-01
5.682667e-01
5.686971e-01
5.693415e-01
5.701108e-01
5.708885e-01
5.718117e-01
5.719987e-01
0.000000e+00
1.000000e+00
5.727978e-01
5.723375e-01
5.719540e-01
5.715638e-01
5.711939e-01
5.708831e-01
5.706737e-01
5.705991e-01
5.706725e-01
5.708825e-01
5.712044e-01
5.715941e-01
5.719912e-01
5.724638e-01
5.721323e-01
0.000000e+00
1.000000e+00
5.732914e-01
5.733641e-01
5.735650e-01
5.737688e-01
5.739619e-01
5.741238e-01
5.742324e-01
5.742692e-01
5.742269e-01
5.741125e-01
5.739548e-01
5.737886e-01
5.736249e-01
5.734752e-01
5.725252e-01
0.000000e+00
1.000000e+00
5.740246e-01
5.747318e-01
5.757145e-01
5.767127e-01
5.776593e-01
5.784543e-01
5.789891e-01
5.791760e-01
5.789807e-01
5.784416e-01
5.776662e-01
5.767492e-01
5.758217e-01
5.748272e-01
5.733934e-01
0.000000e+00
1.000000e+00
5.749421e-01
5.764220e-01
5.783844e-01
5.803681e-01
5.822494e-01
5.838302e-01
5.848944e-01
5.852680e-01
5.848891e-01
5.838481e-01
5.823317e-01
5.804725e-01
5.785518e-01
5.765774e-01
5.742131e-01
0.000000e+00
1.000000e+00
5.760609e-01
5.783825e-01
5.815087e-01
5.846456e-01
5.876210e-01
5.901227e-01
5.918096e-01
5.924094e-01
5.918376e-01
5.902140e-01
5.877885e-01
5.848134e-01
5.817019e-01
5.786437e-01
5.748493e-01
0.000000e+00
1.000000e+00
5.772929e-01
5.805479e-01
5.849782e-01
5.893961e-01
5.935881e-01
5.971151e-01
5.994978e-01
6.003565e-01
5.995726e-01
5.972642e-01
5.938245e-01
5.896207e-01
5.852061e-01
5.809689e-01
5.754430e-01
0.000000e+00
1.000000e+00
5.786028e-01
5.828190e-01
5.886302e-01
5.943969e-01
5.998704e-01
6.044781e-01
6.075957e-01
6.087305e-01
6.077136e-01
6.046661e-01
6.001776e-01
5.946720e-01
5.888761e-01
5.834510e-01
5.759681e-01
0.000000e+00
1.000000e+00
5.799397e-01
5.850633e-01
5.922688e-01
5.993806e-01
6.061318e-01
6.118175e-01
6.156691e-01
6.170805e-01
6.158258e-01
6.120412e-01
6.065157e-01
5.997003e-01
5.925141e-01
5.858986e-01
5.762875e-01
0.000000e+00
1.000000e+00
5.812122e-01
5.871424e-01
5.956857e-01
6.040621e-01
6.120148e-01
6.187162e-01
6.232628e-01
6.249389e-01
6.234582e-01
6.189831e-01
6.124842e-01
6.044502e-01
5.959318e-01
5.880683e-01
5.769234e-01
0.000000e+00
1.000000e+00
5.824483e-01
5.888759e-01
5.986883e-01
6.081851e-01
6.171999e-01
6.247976e-01
6.299577e-01
6.318691e-01
6.301904e-01
6.251108e-01
6.177443e-01
6.086813e-01
5.989573e-01
5.898710e-01
5.782489e-01
0.000000e+00
1.000000e+00
5.835904e-01
5.901139e-01
6.011347e-01
6.115471e-01
6.214241e-01
6.297513e-01
6.354134e-01
6.375198e-01
6.356846e-01
6.301141e-01
6.220247e-01
6.121794e-01
6.014429e-01
5.913361e-01
5.795562e-01
0.000000e+00
1.000000e+00
5.843319e-01
5.909754e-01
6.029302e-01
6.140086e-01
6.245160e-01
6.333782e-01
6.394088e-01
6.416578e-01
6.397124e-01
6.337864e-01
6.251651e-01
6.147598e-01
6.032889e-01
5.924139e-01
5.806712e-01
0.000000e+00
1.000000e+00
5.846656e-01
5.916954e-01
6.040388e-01
6.155201e-01
6.264114e-01
6.355991e-01
6.418530e-01
6.441861e-01
6.421700e-01
6.360467e-01
6.271030e-01
6.163214e-01
6.044352e-01
5.930905e-01
5.815209e-01
0.000000e+00
1.000000e+00
5.847749e-01
5.920331e-01
6.044441e-01
6.160812e-01
6.271207e-01
6.364342e-01
6.427738e-01
6.451377e-01
6.430932e-01
6.369229e-01
6.278498e-01
6.168772e-01
6.048826e-01
5.933551e-01
5.819554e-01
0.000000e+00
1.000000e+00
5.846771e-01
5.921479e-01
6.042165e-01
6.157720e-01
6.267392e-01
6.359916e-01
6.422915e-01
6.446421e-01
6.426190e-01
6.365165e-01
6.274933e-01
6.165385e-01
6.046823e-01
5.932377e-01
5.819846e-01
0.000000e+00
1.000000e+00
5.840907e-01
5.919677e-01
6.034691e-01
6.147293e-01
6.254246e-01
6.344493e-01
6.405954e-01
6.428930e-01
6.409239e-01
6.349472e-01
6.261472e-01
6.154569e-01
6.039148e-01
5.927400e-01
5.818736e-01
0.000000e+00
1.000000e+00
5.719128e-01
5.706540e-01
5.693161e-01
5.679518e-01
5.666586e-01
5.655728e-01
5.648428e-01
5.645872e-01
5.648537e-01
5.655977e-01
5.667066e-01
5.680224e-01
5.693730e-01
5.707938e-01
5.715120e-01
0.000000e+00
1.000000e+00
5.723662e-01
5.715713e-01
5.707519e-01
5.699179e-01
5.691275e-01
5.684639e-01
5.680175e-01
5.678604e-01
5.680220e-01
5.684763e-01
5.691639e-01
5.699824e-01
5.708206e-01
5.717010e-01
5.718035e-01
0.000000e+00
1.000000e+00
5.729838e-01
5.728555e-01
5.727621e-01
5.726696e-01
5.725819e-01
5.725081e-01
5.724580e-01
5.724387e-01
5.724532e-01
5.724999e-01
5.725903e-01
5.727256e-01
5.728545e-01
5.729840e-01
5.723533e-01
0.000000e+00
1.000000e+00
5.738825e-01
5.745083e-01
5.753588e-01
5.762259e-01
5.770481e-01
5.777386e-01
5.782029e-01
5.783643e-01
5.781925e-01
5.777174e-01
5.770435e-01
5.762764e-01
5.754998e-01
5.746422e-01
5.733443e-01
0.000000e+00
1.000000e+00
5.749614e-01
5.765123e-01
5.785122e-01
5.805439e-01
5.824709e-01
5.840900e-01
5.851796e-01
5.855615e-01
5.851684e-01
5.840862e-01
5.825519e-01
5.806712e-01
5.787224e-01
5.767064e-01
5.743026e-01
0.000000e+00
1.000000e+00
5.762357e-01
5.787989e-01
5.821323e-01
5.854985e-01
5.886910e-01
5.913748e-01
5.931836e-01
5.938245e-01
5.932021e-01
5.914577e-01
5.888944e-01
5.857047e-01
5.823606e-01
5.790797e-01
5.749945e-01
0.000000e+00
1.000000e+00
5.776681e-01
5.812710e-01
5.860833e-01
5.909067e-01
5.954829e-01
5.993326e-01
6.019325e-01
6.028678e-01
6.020117e-01
5.995066e-01
5.957604e-01
5.911719e-01
5.863300e-01
5.817010e-01
5.757172e-01
0.000000e+00
1.000000e+00
5.791925e-01
5.837984e-01
5.901681e-01
5.964997e-01
6.025096e-01
6.075695e-01
6.109944e-01
6.122447e-01
6.111377e-01
6.078076e-01
6.028668e-01
5.968200e-01
5.904195e-01
5.844360e-01
5.762778e-01
0.000000e+00
1.000000e+00
5.807197e-01
5.862283e-01
5.941577e-01
6.019660e-01
6.093802e-01
6.156274e-01
6.198647e-01
6.214284e-01
6.200621e-01
6.159112e-01
6.098328e-01
6.023546e-01
5.944138e-01
5.870322e-01
5.767503e-01
0.000000e+00
1.000000e+00
5.821484e-01
5.884052e-01
5.978204e-01
6.069904e-01
6.156988e-01
6.230409e-01
6.280293e-01
6.298813e-01
6.282685e-01
6.233656e-01
6.162415e-01
6.074858e-01
5.980932e-01
5.892825e-01
5.780458e-01
0.000000e+00
1.000000e+00
5.834827e-01
5.901414e-01
6.009506e-01
6.112943e-01
6.211116e-01
6.293901e-01
6.350208e-01
6.371185e-01
6.352971e-01
6.297637e-01
6.217116e-01
6.119385e-01
6.012686e-01
5.911733e-01
5.795993e-01
0.000000e+00
1.000000e+00
5.846199e-01
5.912868e-01
6.034009e-01
6.146621e-01
6.253409e-01
6.343491e-01
6.404829e-01
6.427732e-01
6.407953e-01
6.347841e-01
6.259660e-01
6.154665e-01
6.037978e-01
5.926740e-01
5.807558e-01
0.000000e+00
1.000000e+00
5.851702e-01
5.920768e-01
6.050846e-01
6.169630e-01
6.282263e-01
6.377326e-01
6.442076e-01
6.466285e-01
6.445514e-01
6.382193e-01
6.288767e-01
6.178723e-01
6.055782e-01
5.937050e-01
5.817726e-01
0.000000e+00
1.000000e+00
5.854462e-01
5.926181e-01
6.059628e-01
6.181638e-01
6.297338e-01
6.394965e-01
6.461462e-01
6.486339e-01
6.465015e-01
6.400224e-01
6.304297e-01
6.190925e-01
6.065062e-01
5.942666e-01
5.824126e-01
0.000000e+00
1.000000e+00
5.854474e-01
5.929101e-01
6.060530e-01
6.182962e-01
6.299078e-01
6.397052e-01
6.463816e-01
6.488807e-01
6.467405e-01
6.402757e-01
6.306716e-01
6.191975e-01
6.065911e-01
5.943517e-01
5.825029e-01
0.000000e+00
1.000000e+00
5.850604e-01
5.929985e-01
6.054703e-01
6.174901e-01
6.288985e-01
6.385278e-01
6.450929e-01
6.475539e-01
6.454604e-01
6.391286e-01
6.296954e-01
6.183546e-01
6.059845e-01
5.940147e-01
5.823250e-01
0.000000e+00
1.000000e+00
5.843031e-01
5.926119e-01
6.043564e-01
6.159331e-01
6.269281e-01
6.362089e-01
6.425360e-01
6.449093e-01
6.428876e-01
6.367665e-01
6.276642e-01
6.167440e-01
6.048134e-01
5.932758e-01
5.821306e-01
0.000000e+00
1.000000e+00
5.712567e-01
5.694193e-01
5.673774e-01
5.652971e-01
5.633257e-01
5.616714e-01
5.605606e-01
5.601745e-01
5.605845e-01
5.617188e-01
5.634056e-01
5.654039e-01
5.674671e-01
5.695562e-01
5.709335e-01
0.000000e+00
1.000000e+00
5.718267e-01
5.705380e-01
5.691307e-01
5.676983e-01
5.663410e-01
5.652020e-01
5.644367e-01
5.641697e-01
5.644512e-01
5.652353e-01
5.664108e-01
5.678026e-01
5.692454e-01
5.706937e-01
5.713406e-01
0.000000e+00
1.000000e+00
5.725539e-01
5.720571e-01
5.715065e-01
5.709508e-01
5.704244e-01
5.699826e-01
5.696856e-01
5.695806e-01
5.696869e-01
5.699897e-01
5.704709e-01
5.710592e-01
5.716357e-01
5.721980e-01
5.719797e-01
0.000000e+00
1.000000e+00
5.735680e-01
5.739742e-01
5.745156e-01
5.750712e-01
5.755982e-01
5.760410e-01
5.763386e-01
5.764414e-01
5.763290e-01
5.760205e-01
5.755920e-01
5.751509e-01
5.746903e-01
5.741411e-01
5.730432e-01
0.000000e+00
1.000000e+00
5.747921e-01
5.762640e-01
5.781153e-01
5.800011e-01
5.817895e-01
5.832924e-01
5.843041e-01
5.846593e-01
5.842927e-01
5.832714e-01
5.818458e-01
5.801424e-01
5.783719e-01
5.764974e-01
5.741572e-01
0.000000e+00
1.000000e+00
5.761963e-01
5.788499e-01
5.821911e-01
5.855796e-01
5.887934e-01
5.914952e-01
5.933162e-01
5.939604e-01
5.933216e-01
5.915439e-01
5.890111e-01
5.858241e-01
5.824647e-01
5.791634e-01
5.749588e-01
0.000000e+00
1.000000e+00
5.777773e-01
5.816127e-01
5.865808e-01
5.915862e-01
5.963342e-01
6.003274e-01
6.030226e-01
6.039880e-01
6.030874e-01
6.004972e-01
5.966463e-01
5.918969e-01
5.868610e-01
5.820212e-01
5.757286e-01
0.000000e+00
1.000000e+00
5.794562e-01
5.843969e-01
5.910567e-01
5.977124e-01
6.040288e-01
6.093457e-01
6.129436e-01
6.142550e-01
6.130936e-01
6.096155e-01
6.044254e-01
5.980883e-01
5.913253e-01
5.849184e-01
5.764475e-01
0.000000e+00
1.000000e+00
5.811181e-01
5.870272e-01
5.953574e-01
6.036026e-01
6.114316e-01
6.180290e-01
6.225060e-01
6.241642e-01
6.227369e-01
6.183629e-01
6.119304e-01
6.040766e-01
5.956224e-01
5.876593e-01
5.774286e-01
0.000000e+00
1.000000e+00
5.826539e-01
5.893310e-01
5.992252e-01
6.089075e-01
6.181050e-01
6.258632e-01
6.311412e-01
6.331157e-01
6.314327e-01
6.262509e-01
6.186893e-01
6.095419e-01
5.995294e-01
5.900416e-01
5.790461e-01
0.000000e+00
1.000000e+00
5.840090e-01
5.911413e-01
6.024399e-01
6.133298e-01
6.236719e-01
6.324007e-01
6.383478e-01
6.405799e-01
6.386790e-01
6.328465e-01
6.243029e-01
6.141509e-01
6.028441e-01
5.920372e-01
5.806421e-01
0.000000e+00
1.000000e+00
5.850042e-01
5.923870e-01
6.048568e-01
6.166583e-01
6.278574e-01
6.373107e-01
6.437553e-01
6.461721e-01
6.441140e-01
6.378243e-01
6.285072e-01
6.175939e-01
6.054123e-01
5.935631e-01
5.817684e-01
0.000000e+00
1.000000e+00
5.855867e-01
5.931242e-01
6.063983e-01
6.187741e-01
6.305116e-01
6.404203e-01
6.471738e-01
6.497041e-01
6.475490e-01
6.409940e-01
6.311887e-01
6.196839e-01
6.071235e-01
5.945451e-01
5.825882e-01
0.000000e+00
1.000000e+00
5.859097e-01
5.934047e-01
6.070335e-01
6.196522e-01
6.316172e-01
6.417139e-01
6.485958e-01
6.511742e-01
6.489783e-01
6.423350e-01
6.323553e-01
6.205213e-01
6.078045e-01
5.949705e-01
5.828842e-01
0.000000e+00
1.000000e+00
5.857033e-01
5.935838e-01
6.068328e-01
6.193742e-01
6.312722e-01
6.413128e-01
6.481604e-01
6.507288e-01
6.485515e-01
6.419670e-01
6.320655e-01
6.202874e-01
6.075264e-01
5.948451e-01
5.827442e-01
0.000000e+00
1.000000e+00
5.851118e-01
5.934005e-01
6.059259e-01
6.181101e-01
6.296799e-01
6.394484e-01
6.461117e-01
6.486135e-01
6.465017e-01
6.401065e-01
6.304597e-01
6.190415e-01
6.065166e-01
5.942797e-01
5.824507e-01
0.000000e+00
1.000000e+00
5.842584e-01
5.927098e-01
6.044619e-01
6.160799e-01
6.271125e-01
6.364220e-01
6.427669e-01
6.451440e-01
6.431198e-01
6.370117e-01
6.278120e-01
6.169387e-01
6.049255e-01
5.933143e-01
5.821374e-01
0.000000e+00
1.000000e+00
5.705105e-01
5.679703e-01
5.651060e-01
5.621870e-01
5.594213e-01
5.571019e-01
5.555465e-01
5.550085e-01
5.555867e-01
5.571769e-01
5.595368e-01
5.623342e-01
5.652303e-01
5.681200e-01
5.702334e-01
0.000000e+00
1.000000e+00
5.711700e-01
5.692676e-01
5.671373e-01
5.649692e-01
5.629152e-01
5.611924e-01
5.600365e-01
5.596356e-01
5.600648e-01
5.612526e-01
5.630220e-01
5.651175e-01
5.673034e-01
5.694467e-01
5.707616e-01
0.000000e+00
1.000000e+00
5.720050e-01
5.709914e-01
5.698325e-01
5.686594e-01
5.675483e-01
5.666169e-01
5.659919e-01
5.657743e-01
5.660049e-01
5.666506e-01
5.676441e-01
5.688152e-01
5.700071e-01
5.711552e-01
5.715029e-01
0.000000e+00
1.000000e+00
5.731253e-01
5.731392e-01
5.732000e-01
5.732702e-01
5.733376e-01
5.733950e-01
5.734338e-01
5.734463e-01
5.734293e-01
5.733852e-01
5.733522e-01
5.734154e-01
5.734126e-01
5.733246e-01
5.726439e-01
0.000000e+00
1.000000e+00
5.744690e-01
5.756732e-01
5.771839e-01
5.787259e-01
5.801887e-01
5.814183e-01
5.822464e-01
5.825373e-01
5.822376e-01
5.813962e-01
5.802085e-01
5.788656e-01
5.774775e-01
5.759308e-01
5.738507e-01
0.000000e+00
1.000000e+00
5.759910e-01
5.785122e-01
5.816520e-01
5.848434e-01
5.878711e-01
5.904170e-01
5.921334e-01
5.927407e-01
5.921316e-01
5.904244e-01
5.880588e-01
5.851129e-01
5.819732e-01
5.788271e-01
5.749255e-01
0.000000e+00
1.000000e+00
5.776880e-01
5.815158e-01
5.864088e-01
5.913521e-01
5.960408e-01
5.999836e-01
6.026438e-01
6.035930e-01
6.026854e-01
6.001191e-01
5.963738e-01
5.917053e-01
5.867334e-01
5.818669e-01
5.759665e-01
0.000000e+00
1.000000e+00
5.794420e-01
5.845207e-01
5.912084e-01
5.979193e-01
6.042864e-01
6.096439e-01
6.132661e-01
6.145793e-01
6.133981e-01
6.099174e-01
6.047081e-01
5.983494e-01
5.915128e-01
5.848918e-01
5.771398e-01
0.000000e+00
1.000000e+00
5.811616e-01
5.873359e-01
5.957596e-01
6.041485e-01
6.121115e-01
6.188197e-01
6.233701e-01
6.250529e-01
6.236099e-01
6.191899e-01
6.126318e-01
6.047036e-01
5.960558e-01
5.877777e-01
5.784343e-01
0.000000e+00
1.000000e+00
5.827375e-01
5.897758e-01
5.997819e-01
6.096604e-01
6.190428e-01
6.269572e-01
6.323440e-01
6.343657e-01
6.326695e-01
6.274000e-01
6.196348e-01
6.104163e-01
6.001300e-01
5.902966e-01
5.800069e-01
0.000000e+00
1.000000e+00
5.840284e-01
5.916990e-01
6.030457e-01
6.141440e-01
6.246883e-01
6.335909e-01
6.396628e-01
6.419535e-01
6.400373e-01
6.341005e-01
6.253063e-01
6.150905e-01
6.035425e-01
5.923737e-01
5.813983e-01
0.000000e+00
1.000000e+00
5.849674e-01
5.930199e-01
6.054010e-01
6.173902e-01
6.287774e-01
6.383930e-01
6.449534e-01
6.474256e-01
6.453519e-01
6.389665e-01
6.294234e-01
6.183547e-01
6.061223e-01
5.939101e-01
5.822320e-01
0.000000e+00
1.000000e+00
5.856327e-01
5.936988e-01
6.067782e-01
6.192931e-01
6.311736e-01
6.412040e-01
6.480459e-01
6.506189e-01
6.484520e-01
6.418487e-01
6.319007e-01
6.201154e-01
6.076315e-01
5.948470e-01
5.827619e-01
0.000000e+00
1.000000e+00
5.859080e-01
5.938559e-01
6.071796e-01
6.198519e-01
6.318825e-01
6.420407e-01
6.489717e-01
6.515767e-01
6.493861e-01
6.427475e-01
6.326974e-01
6.206433e-01
6.080344e-01
5.951266e-01
5.828681e-01
0.000000e+00
1.000000e+00
5.855129e-01
5.937964e-01
6.067237e-01
6.192093e-01
6.310704e-01
6.410885e-01
6.479246e-01
6.504956e-01
6.483456e-01
6.418025e-01
6.318559e-01
6.200597e-01
6.075421e-01
5.947817e-01
5.826780e-01
0.000000e+00
1.000000e+00
5.848106e-01
5.932871e-01
6.055316e-01
6.175497e-01
6.289719e-01
6.386206e-01
6.452045e-01
6.476785e-01
6.456106e-01
6.393050e-01
6.296897e-01
6.184941e-01
6.062059e-01
5.939941e-01
5.823011e-01
0.000000e+00
1.000000e+00
5.839587e-01
5.923050e-01
6.037556e-01
6.151050e-01
6.258855e-01
6.349839e-01
6.411833e-01
6.434997e-01
6.415344e-01
6.355803e-01
6.265509e-01
6.159877e-01
6.042198e-01
5.928377e-01
5.819000e-01
0.000000e+00
1.000000e+00
5.696893e-01
5.663662e-01
5.625931e-01
5.587463e-01
5.551021e-01
5.520472e-01
5.500008e-01
5.492955e-01
5.500597e-01
5.521552e-01
5.552540e-01
5.589379e-01
5.627507e-01
5.665296e-01
5.694670e-01
0.000000e+00
1.000000e+00
5.704256e-01
5.678123e-01
5.648561e-01
5.618464e-01
5.589954e-01
5.566051e-01
5.550030e-01
5.544497e-01
5.550475e-01
5.566950e-01
5.591391e-01
5.620377e-01
5.650653e-01
5.680070e-01
5.700894e-01
0.000000e+00
1.000000e+00
5.713377e-01
5.697051e-01
5.678141e-01
5.658968e-01
5.640814e-01
5.625602e-01
5.615407e-01
5.611885e-01
5.615693e-01
5.626259e-01
5.642234e-01
5.661015e-01
5.680452e-01
5.699091e-01
5.709115e-01
0.000000e+00
1.000000e+00
5.725391e-01
5.720416e-01
5.714715e-01
5.709042e-01
5.703679e-01
5.699196e-01
5.696196e-01
5.695155e-01
5.696262e-01
5.699335e-01
5.704426e-01
5.711311e-01
5.717173e-01
5.722411e-01
5.721185e-01
0.000000e+00
1.000000e+00
5.739769e-01
5.747696e-01
5.757585e-01
5.767742e-01
5.777382e-01
5.785496e-01
5.790970e-01
5.792900e-01
5.790927e-01
5.785390e-01
5.777462e-01
5.769317e-01
5.760697e-01
5.750369e-01
5.733541e-01
0.000000e+00
1.000000e+00
5.756061e-01
5.778031e-01
5.805320e-01
5.833111e-01
5.859482e-01
5.881660e-01
5.896614e-01
5.901916e-01
5.896609e-01
5.881565e-01
5.860740e-01
5.835861e-01
5.809012e-01
5.781004e-01
5.747574e-01
0.000000e+00
1.000000e+00
5.774072e-01
5.809853e-01
5.855655e-01
5.902005e-01
5.945976e-01
5.982959e-01
6.007915e-01
6.016809e-01
6.008150e-01
5.983813e-01
5.949213e-01
5.905857e-01
5.859377e-01
5.812840e-01
5.764092e-01
0.000000e+00
1.000000e+00
5.792036e-01
5.841465e-01
5.905958e-01
5.970837e-01
6.032387e-01
6.084161e-01
6.119137e-01
6.131736e-01
6.120118e-01
6.086611e-01
6.036687e-01
5.975541e-01
5.909513e-01
5.844535e-01
5.778959e-01
0.000000e+00
1.000000e+00
5.809023e-01
5.870945e-01
5.953169e-01
6.035433e-01
6.113497e-01
6.179223e-01
6.223753e-01
6.240111e-01
6.225903e-01
6.183016e-01
6.118638e-01
6.041435e-01
5.956573e-01
5.874412e-01
5.791819e-01
0.000000e+00
1.000000e+00
5.824549e-01
5.896289e-01
5.994298e-01
6.091754e-01
6.184278e-01
6.262276e-01
6.315308e-01
6.335143e-01
6.318521e-01
6.266969e-01
6.190062e-01
6.099735e-01
5.998185e-01
5.900647e-01
5.806569e-01
0.000000e+00
1.000000e+00
5.837522e-01
5.915946e-01
6.026963e-01
6.136584e-01
6.240710e-01
6.328575e-01
6.388471e-01
6.411063e-01
6.392309e-01
6.333974e-01
6.246708e-01
6.146227e-01
6.032453e-01
5.921628e-01
5.817620e-01
0.000000e+00
1.000000e+00
5.846781e-01
5.929105e-01
6.049668e-01
6.167825e-01
6.280106e-01
6.374911e-01
6.439597e-01
6.464012e-01
6.443694e-01
6.380997e-01
6.286513e-01
6.177042e-01
6.057381e-01
5.936687e-01
5.821955e-01
0.000000e+00
1.000000e+00
5.852797e-01
5.935418e-01
6.061842e-01
6.184621e-01
6.301306e-01
6.399874e-01
6.467158e-01
6.492554e-01
6.471458e-01
6.406780e-01
6.308692e-01
6.192526e-01
6.069843e-01
5.945402e-01
5.825380e-01
0.000000e+00
1.000000e+00
5.853723e-01
5.936578e-01
6.063961e-01
6.187499e-01
6.304919e-01
6.404135e-01
6.471895e-01
6.497489e-01
6.476367e-01
6.411575e-01
6.312668e-01
6.195278e-01
6.071766e-01
5.946816e-01
5.826141e-01
0.000000e+00
1.000000e+00
5.849321e-01
5.933681e-01
6.057138e-01
6.177982e-01
6.292853e-01
6.389921e-01
6.456204e-01
6.481232e-01
6.460637e-01
6.397240e-01
6.299981e-01
6.186136e-01
6.065281e-01
5.941505e-01
5.823580e-01
0.000000e+00
1.000000e+00
5.842015e-01
5.926046e-01
6.042769e-01
6.158152e-01
6.267792e-01
6.360387e-01
6.423557e-01