<?xml version="1.0"?>
<VTKFile type="StructuredGrid" version="0.1">
  <StructuredGrid WholeExtent="0 16 0 16 0 16">
    <Piece Extent="0 16 0 16 0 16">
      <PointData Scalars="temperature" Vectors="velocity">
        <DataArray type="Float32" Name="temperature" format="ascii">
1.000000e+00
5.658762e-01
5.579735e-01
5.494834e-01
5.408003e-01
5.325666e-01
5.256475e-01
5.209850e-01
5.193338e-01
5.209850e-01
5.256475e-01
5.325666e-01
5.408003e-01
5.494834e-01
5.579735e-01
5.658762e-01
0.000000e+00
1.000000e+00
5.667478e-01
5.598120e-01
5.523606e-01
5.447399e-01
5.375136e-01
5.314410e-01
5.273491e-01
5.258998e-01
5.273491e-01
5.314410e-01
5.375136e-01
5.447399e-01
5.523606e-01
5.598120e-01
5.667478e-01
0.000000e+00
1.000000e+00
5.677265e-01
5.618764e-01
5.555915e-01
5.491637e-01
5.430686e-01
5.379467e-01
5.344953e-01
5.332729e-01
5.344953e-01
5.379467e-01
5.430686e-01
5.491637e-01
5.555915e-01
5.618764e-01
5.677265e-01
0.000000e+00
1.000000e+00
5.687863e-01
5.641119e-01
5.590901e-01
5.539541e-01
5.490839e-01
5.449913e-01
5.422335e-01
5.412568e-01
5.422335e-01
5.449913e-01
5.490839e-01
5.539541e-01
5.590901e-01
5.641119e-01
5.687863e-01
0.000000e+00
1.000000e+00
5.698904e-01
5.664408e-01
5.627347e-01
5.589445e-01
5.553504e-01
5.523301e-01
5.502949e-01
5.495741e-01
5.502949e-01
5.523301e-01
5.553504e-01
5.589445e-01
5.627347e-01
5.664408e-01
5.698904e-01
0.000000e+00
1.000000e+00
5.709924e-01
5.687653e-01
5.663727e-01
5.639257e-01
5.616054e-01
5.596555e-01
5.583415e-01
5.578762e-01
5.583415e-01
5.596555e-01
5.616054e-01
5.639257e-01
5.663727e-01
5.687653e-01
5.709924e-01
0.000000e+00
1.000000e+00
5.720398e-01
5.709747e-01
5.698304e-01
5.686601e-01
5.675503e-01
5.666177e-01
5.659893e-01
5.657668e-01
5.659893e-01
5.666177e-01
5.675503e-01
5.686601e-01
5.698304e-01
5.709747e-01
5.720398e-01
0.000000e+00
1.000000e+00
5.729785e-01
5.729547e-01
5.729291e-01
5.729029e-01
5.728781e-01
5.728572e-01
5.728432e-01
5.728382e-01
5.728432e-01
5.728572e-01
5.728781e-01
5.729029e-01
5.729291e-01
5.729547e-01
5.729785e-01
0.000000e+00
1.000000e+00
5.737587e-01
5.746003e-01
5.755044e-01
5.764291e-01
5.773059e-01
5.780428e-01
5.785393e-01
5.787151e-01
5.785393e-01
5.780428e-01
5.773059e-01
5.764291e-01
5.755044e-01
5.746003e-01
5.737587e-01
0.000000e+00
1.000000e+00
5.743404e-01
5.758274e-01
5.774249e-01
5.790588e-01
5.806080e-01
5.819099e-01
5.827872e-01
5.830979e-01
5.827872e-01
5.819099e-01
5.806080e-01
5.790588e-01
5.774249e-01
5.758274e-01
5.743404e-01
0.000000e+00
1.000000e+00
5.746986e-01
5.765830e-01
5.786074e-01
5.806778e-01
5.826410e-01
5.842908e-01
5.854026e-01
5.857963e-01
5.854026e-01
5.842908e-01
5.826410e-01
5.806778e-01
5.786074e-01
5.765830e-01
5.746986e-01
0.000000e+00
1.000000e+00
5.748248e-01
5.768492e-01
5.790240e-01
5.812482e-01
5.833574e-01
5.851298e-01
5.863241e-01
5.867470e-01
5.863241e-01
5.851298e-01
5.833574e-01
5.812482e-01
5.790240e-01
5.768492e-01
5.748248e-01
0.000000e+00
1.000000e+00
5.747273e-01
5.766434e-01
5.787020e-01
5.808073e-01
5.828037e-01
5.844813e-01
5.856118e-01
5.860121e-01
5.856118e-01
5.844813e-01
5.828037e-01
5.808073e-01
5.787020e-01
5.766434e-01
5.747273e-01
0.000000e+00
1.000000e+00
5.744283e-01
5.760126e-01
5.777148e-01
5.794556e-01
5.811064e-01
5.824936e-01
5.834283e-01
5.837594e-01
5.834283e-01
5.824936e-01
5.811064e-01
5.794556e-01
5.777148e-01
5.760126e-01
5.744283e-01
0.000000e+00
1.000000e+00
5.739600e-01
5.750249e-01
5.761690e-01
5.773391e-01
5.784486e-01
5.793810e-01
5.800093e-01
5.802318e-01
5.800093e-01
5.793810e-01
5.784486e-01
5.773391e-01
5.761690e-01
5.750249e-01
5.739600e-01
0.000000e+00
1.000000e+00
5.733601e-01
5.737596e-01
5.741887e-01
5.746276e-01
5.750438e-01
5.753936e-01
5.756293e-01
5.757127e-01
5.756293e-01
5.753936e-01
5.750438e-01
5.746276e-01
5.741887e-01
5.737596e-01
5.733601e-01
0.000000e+00
1.000000e+00
5.726673e-01
5.722982e-01
5.719016e-01
5.714961e-01
5.711115e-01
5.707883e-01
5.705706e-01
5.704934e-01
5.705706e-01
5.707883e-01
5.711115e-01
5.714961e-01
5.719016e-01
5.722982e-01
5.726673e-01
0.000000e+00
1.000000e+00
5.650901e-01
5.563153e-01
5.468883e-01
5.372471e-01
5.281048e-01
5.204222e-01
5.152453e-01
5.134119e-01
5.152453e-01
5.204222e-01
5.281048e-01
5.372471e-01
5.468883e-01
5.563153e-01
5.650901e-01
0.000000e+00
1.000000e+00
5.659112e-01
5.580474e-01
5.495991e-01
5.409587e-01
5.327655e-01
5.258805e-01
5.212410e-01
5.195979e-01
5.212410e-01
5.258805e-01
5.327655e-01
5.409587e-01
5.495991e-01
5.580474e-01
5.659112e-01
0.000000e+00
1.000000e+00
5.668552e-01
5.600385e-01
5.527151e-01
5.452253e-01
5.381231e-01
5.321548e-01
5.281332e-01
5.267088e-01
5.281332e-01
5.321548e-01
5.381231e-01
5.452253e-01
5.527151e-01
5.600385e-01
5.668552e-01
0.000000e+00
1.000000e+00
5.678977e-01
5.622375e-01
5.561566e-01
5.499375e-01
5.440403e-01
5.390846e-01
5.357452e-01
5.345625e-01
5.357452e-01
5.390846e-01
5.440403e-01
5.499375e-01
5.561566e-01
5.622375e-01
5.678977e-01
0.000000e+00
1.000000e+00
5.690023e-01
5.645676e-01
5.598032e-01
5.549306e-01
5.503101e-01
5.464273e-01
5.438109e-01
5.428842e-01
5.438109e-01
5.464273e-01
5.503101e-01
5.549306e-01
5.598032e-01
5.645676e-01
5.690023e-01
0.000000e+00
1.000000e+00
5.701214e-01
5.669281e-01
5.634974e-01
5.599887e-01
5.566616e-01
5.538658e-01
5.519818e-01
5.513145e-01
5.519818e-01
5.538658e-01
5.566616e-01
5.599887e-01
5.634974e-01
5.669281e-01
5.701214e-01
0.000000e+00
1.000000e+00
5.711990e-01
5.692012e-01
5.670548e-01
5.648597e-01
5.627781e-01
5.610289e-01
5.598502e-01
5.594327e-01
5.598502e-01
5.610289e-01
5.627781e-01
5.648597e-01
5.670548e-01
5.692012e-01
5.711990e-01
0.000000e+00
1.000000e+00
5.721765e-01
5.712630e-01
5.702815e-01
5.692778e-01
5.683260e-01
5.675261e-01
5.669872e-01
5.667963e-01
5.669872e-01
5.675261e-01
5.683260e-01
5.692778e-01
5.702815e-01
5.712630e-01
5.721765e-01
0.000000e+00
1.000000e+00
5.729987e-01
5.729972e-01
5.729956e-01
5.729939e-01
5.729924e-01
5.729911e-01
5.729902e-01
5.729899e-01
5.729902e-01
5.729911e-01
5.729924e-01
5.729939e-01
5.729956e-01
5.729972e-01
5.729987e-01
0.000000e+00
1.000000e+00
5.736207e-01
5.743093e-01
5.750491e-01
5.758056e-01
5.765231e-01
5.771259e-01
5.775322e-01
5.776761e-01
5.775322e-01
5.771259e-01
5.765231e-01
5.758056e-01
5.750491e-01
5.743093e-01
5.736207e-01
0.000000e+00
1.000000e+00
5.740136e-01
5.751380e-01
5.763459e-01
5.775813e-01
5.787528e-01
5.797372e-01
5.804006e-01
5.806355e-01
5.804006e-01
5.797372e-01
5.787528e-01
5.775813e-01
5.763459e-01
5.751380e-01
5.740136e-01
0.000000e+00
1.000000e+00
5.741667e-01
5.754609e-01
5.768513e-01
5.782732e-01
5.796217e-01
5.807548e-01
5.815183e-01
5.817887e-01
5.815183e-01
5.807548e-01
5.796217e-01
5.782732e-01
5.768513e-01
5.754609e-01
5.741667e-01
0.000000e+00
1.000000e+00
5.740878e-01
5.752946e-01
5.765910e-01
5.779169e-01
5.791742e-01
5.802307e-01
5.809427e-01
5.811948e-01
5.809427e-01
5.802307e-01
5.791742e-01
5.779169e-01
5.765910e-01
5.752946e-01
5.740878e-01
0.000000e+00
1.000000e+00
5.738004e-01
5.746884e-01
5.756423e-01
5.766180e-01
5.775431e-01
5.783205e-01
5.788444e-01
5.790299e-01
5.788444e-01
5.783205e-01
5.775431e-01
5.766180e-01
5.756423e-01
5.746884e-01
5.738004e-01
0.000000e+00
1.000000e+00
5.733388e-01
5.737147e-01
5.741185e-01
5.745315e-01
5.749231e-01
5.752521e-01
5.754739e-01
5.755524e-01
5.754739e-01
5.752521e-01
5.749231e-01
5.745315e-01
5.741185e-01
5.737147e-01
5.733388e-01
0.000000e+00
1.000000e+00
5.727429e-01
5.724577e-01
5.721513e-01
5.718380e-01
5.715408e-01
5.712912e-01
5.711229e-01
5.710633e-01
5.711229e-01
5.712912e-01
5.715408e-01
5.718380e-01
5.721513e-01
5.724577e-01
5.727429e-01
0.000000e+00
1.000000e+00
5.720536e-01
5.710037e-01
5.698758e-01
5.687222e-01
5.676283e-01
5.667091e-01
5.660897e-01
5.658703e-01
5.660897e-01
5.667091e-01
5.676283e-01
5.687222e-01
5.698758e-01
5.710037e-01
5.720536e-01
0.000000e+00
1.000000e+00
5.644380e-01
5.549399e-01
5.447358e-01
5.342998e-01
5.244039e-01
5.160880e-01
5.104843e-01
5.084997e-01
5.104843e-01
5.160880e-01
5.244039e-01
5.342998e-01
5.447358e-01
5.549399e-01
5.644380e-01
0.000000e+00
1.000000e+00
5.652049e-01
5.565576e-01
5.472675e-01
5.377662e-01
5.287567e-01
5.211856e-01
5.160839e-01
5.142771e-01
5.160839e-01
5.211856e-01
5.287567e-01
5.377662e-01
5.472675e-01
5.565576e-01
5.652049e-01
0.000000e+00
1.000000e+00
5.661093e-01
5.584653e-01
5.502530e-01
5.418542e-01
5.338899e-01
5.271973e-01
5.226875e-01
5.210903e-01
5.226875e-01
5.271973e-01
5.338899e-01
5.418542e-01
5.502530e-01
5.584653e-01
5.661093e-01
0.000000e+00
1.000000e+00
5.671294e-01
5.606169e-01
5.536203e-01
5.464647e-01
5.396794e-01
5.339775e-01
5.301353e-01
5.287745e-01
5.301353e-01
5.339775e-01
5.396794e-01
5.464647e-01
5.536203e-01
5.606169e-01
5.671294e-01
0.000000e+00
1.000000e+00
5.682295e-01
5.629373e-01
5.572518e-01
5.514371e-01
5.459233e-01
5.412899e-01
5.381677e-01
5.370619e-01
5.381677e-01
5.412899e-01
5.459233e-01
5.514371e-01
5.572518e-01
5.629373e-01
5.682295e-01
0.000000e+00
1.000000e+00
5.693610e-01
5.653240e-01
5.609870e-01
5.565515e-01
5.523455e-01
5.488110e-01
5.464293e-01
5.455858e-01
5.464293e-01
5.488110e-01
5.523455e-01
5.565515e-01
5.609870e-01
5.653240e-01
5.693610e-01
0.000000e+00
1.000000e+00
5.704651e-01
5.676531e-01
5.646321e-01
5.615424e-01
5.586126e-01
5.561506e-01
5.544916e-01
5.539040e-01
5.544916e-01
5.561506e-01
5.586126e-01
5.615424e-01
5.646321e-01
5.676531e-01
5.704651e-01
0.000000e+00
1.000000e+00
5.714788e-01
5.697913e-01
5.679783e-01
5.661242e-01
5.643659e-01
5.628885e-01
5.618929e-01
5.615403e-01
5.618929e-01
5.628885e-01
5.643659e-01
5.661242e-01
5.679783e-01
5.697913e-01
5.714788e-01
0.000000e+00
1.000000e+00
5.723415e-01
5.716110e-01
5.708262e-01
5.700235e-01
5.692624e-01
5.686229e-01
5.681919e-01
5.680392e-01
5.681919e-01
5.686229e-01
5.692624e-01
5.700235e-01
5.708262e-01
5.716110e-01
5.723415e-01
0.000000e+00
1.000000e+00
5.730033e-01
5.730069e-01
5.730107e-01
5.730147e-01
5.730184e-01
5.730216e-01
5.730237e-01
5.730245e-01
5.730237e-01
5.730216e-01
5.730184e-01
5.730147e-01
5.730107e-01
5.730069e-01
5.730033e-01
0.000000e+00
1.000000e+00
5.734309e-01
5.739088e-01
5.744223e-01
5.749475e-01
5.754455e-01
5.758639e-01
5.761459e-01
5.762458e-01
5.761459e-01
5.758639e-01
5.754455e-01
5.749475e-01
5.744223e-01
5.739088e-01
5.734309e-01
0.000000e+00
1.000000e+00
5.736114e-01
5.742896e-01
5.750182e-01
5.757633e-01
5.764699e-01
5.770637e-01
5.774639e-01
5.776056e-01
5.774639e-01
5.770637e-01
5.764699e-01
5.757633e-01
5.750182e-01
5.742896e-01
5.736114e-01
0.000000e+00
1.000000e+00
5.735520e-01
5.741644e-01
5.748223e-01
5.754952e-01
5.761332e-01
5.766694e-01
5.770307e-01
5.771586e-01
5.770307e-01
5.766694e-01
5.761332e-01
5.754952e-01
5.748223e-01
5.741644e-01
5.735520e-01
0.000000e+00
1.000000e+00
5.732772e-01
5.735848e-01
5.739151e-01
5.742530e-01
5.745735e-01
5.748427e-01
5.750241e-01
5.750884e-01
5.750241e-01
5.748427e-01
5.745735e-01
5.742530e-01
5.739151e-01
5.735848e-01
5.732772e-01
0.000000e+00
1.000000e+00
5.728231e-01
5.726269e-01
5.724161e-01
5.722005e-01
5.719961e-01
5.718243e-01
5.717086e-01
5.716676e-01
5.717086e-01
5.718243e-01
5.719961e-01
5.722005e-01
5.724161e-01
5.726269e-01
5.728231e-01
0.000000e+00
1.000000e+00
5.722320e-01
5.713800e-01
5.704646e-01
5.695285e-01
5.686408e-01
5.678948e-01
5.673921e-01
5.672141e-01
5.673921e-01
5.678948e-01
5.686408e-01
5.695285e-01
5.704646e-01
5.713800e-01
5.722320e-01
0.000000e+00
1.000000e+00
5.715466e-01
5.699344e-01
5.682022e-01
5.664308e-01
5.647509e-01
5.633393e-01
5.623881e-01
5.620512e-01
5.623881e-01
5.633393e-01
5.647509e-01
5.664308e-01
5.682022e-01
5.699344e-01
5.715466e-01
0.000000e+00
1.000000e+00
5.639580e-01
5.539274e-01
5.431512e-01
5.321301e-01
5.216794e-01
5.128972e-01
5.069794e-01
5.048835e-01
5.069794e-01
5.128972e-01
5.216794e-01
5.321301e-01
5.431512e-01
5.539274e-01
5.639580e-01
0.000000e+00
1.000000e+00
5.646710e-01
5.554313e-01
5.455048e-01
5.353528e-01
5.257261e-01
5.176364e-01
5.121852e-01
5.102546e-01
5.121852e-01
5.176364e-01
5.257261e-01
5.353528e-01
5.455048e-01
5.554313e-01
5.646710e-01
0.000000e+00
1.000000e+00
5.655347e-01
5.572533e-01
5.483562e-01
5.392570e-01
5.306286e-01
5.233779e-01
5.184921e-01
5.167616e-01
5.184921e-01
5.233779e-01
5.306286e-01
5.392570e-01
5.483562e-01
5.572533e-01
5.655347e-01
0.000000e+00
1.000000e+00
5.665300e-01
5.593527e-01
5.516418e-01
5.437557e-01
5.362777e-01
5.299936e-01
5.257592e-01
5.242595e-01
5.257592e-01
5.299936e-01
5.362777e-01
5.437557e-01
5.516418e-01
5.593527e-01
5.665300e-01
0.000000e+00
1.000000e+00
5.676226e-01
5.616572e-01
5.552484e-01
5.486939e-01
5.424786e-01
5.372557e-01
5.337363e-01
5.324898e-01
5.337363e-01
5.372557e-01
5.424786e-01
5.486939e-01
5.552484e-01
5.616572e-01
5.676226e-01
0.000000e+00
1.000000e+00
5.687632e-01
5.640631e-01
5.590137e-01
5.538495e-01
5.489525e-01
5.448375e-01
5.420645e-01
5.410824e-01
5.420645e-01
5.448375e-01
5.489525e-01
5.538495e-01
5.590137e-01
5.640631e-01
5.687632e-01
0.000000e+00
1.000000e+00
5.698907e-01
5.664414e-01
5.627358e-01
5.589459e-01
5.553522e-01
5.523322e-01
5.502972e-01
5.495765e-01
5.502972e-01
5.523322e-01
5.553522e-01
5.589459e-01
5.627358e-01
5.664414e-01
5.698907e-01
0.000000e+00
1.000000e+00
5.709377e-01
5.686500e-01
5.661922e-01
5.636786e-01
5.612950e-01
5.592920e-01
5.579423e-01
5.574642e-01
5.579423e-01
5.592920e-01
5.612950e-01
5.636786e-01
5.661922e-01
5.686500e-01
5.709377e-01
0.000000e+00
1.000000e+00
5.718387e-01
5.705504e-01
5.691663e-01
5.677508e-01
5.664085e-01
5.652806e-01
5.645205e-01
5.642513e-01
5.645205e-01
5.652806e-01
5.664085e-01
5.677508e-01
5.691663e-01
5.705504e-01
5.718387e-01
0.000000e+00
1.000000e+00
5.725384e-01
5.720262e-01
5.714760e-01
5.709133e-01
5.703798e-01
5.699314e-01
5.696292e-01
5.695222e-01
5.696292e-01
5.699314e-01
5.703798e-01
5.709133e-01
5.714760e-01
5.720262e-01
5.725384e-01
0.000000e+00
1.000000e+00
5.729994e-01
5.729987e-01
5.729979e-01
5.729971e-01
5.729964e-01
5.729957e-01
5.729953e-01
5.729952e-01
5.729953e-01
5.729957e-01
5.729964e-01
5.729971e-01
5.729979e-01
5.729987e-01
5.729994e-01
0.000000e+00
1.000000e+00
5.732062e-01
5.734350e-01
5.736807e-01
5.739321e-01
5.741704e-01
5.743707e-01
5.745056e-01
5.745534e-01
5.745056e-01
5.743707e-01
5.741704e-01
5.739321e-01
5.736807e-01
5.734350e-01
5.732062e-01
0.000000e+00
1.000000e+00
5.731655e-01
5.733490e-01
5.735462e-01
5.737478e-01
5.739390e-01
5.740997e-01
5.742080e-01
5.742464e-01
5.742080e-01
5.740997e-01
5.739390e-01
5.737478e-01
5.735462e-01
5.733490e-01
5.731655e-01
0.000000e+00
1.000000e+00
5.729023e-01
5.727938e-01
5.726773e-01
5.725582e-01
5.724452e-01
5.723502e-01
5.722863e-01
5.722636e-01
5.722863e-01
5.723502e-01
5.724452e-01
5.725582e-01
5.726773e-01
5.727938e-01
5.729023e-01
0.000000e+00
1.000000e+00
5.724546e-01
5.718496e-01
5.711996e-01
5.705348e-01
5.699044e-01
5.693747e-01
5.690177e-01
5.688913e-01
5.690177e-01
5.693747e-01
5.699044e-01
5.705348e-01
5.711996e-01
5.718496e-01
5.724546e-01
0.000000e+00
1.000000e+00
5.718668e-01
5.706097e-01
5.692592e-01
5.678780e-01
5.665683e-01
5.654676e-01
5.647260e-01
5.644633e-01
5.647260e-01
5.654676e-01
5.665683e-01
5.678780e-01
5.692592e-01
5.706097e-01
5.718668e-01
0.000000e+00
1.000000e+00
5.711838e-01
5.691690e-01
5.670044e-01
5.647907e-01
5.626915e-01
5.609275e-01
5.597388e-01
5.593178e-01
5.597388e-01
5.609275e-01
5.626915e-01
5.647907e-01
5.670044e-01
5.691690e-01
5.711838e-01
0.000000e+00
1.000000e+00
5.636841e-01
5.533496e-01
5.422469e-01
5.308919e-01
5.201245e-01
5.110763e-01
5.049792e-01
5.028198e-01
5.049792e-01
5.110763e-01
5.201245e-01
5.308919e-01
5.422469e-01
5.533496e-01
5.636841e-01
0.000000e+00
1.000000e+00
5.643481e-01
5.547503e-01
5.444390e-01
5.338934e-01
5.238936e-01
5.154903e-01
5.098278e-01
5.078224e-01
5.098278e-01
5.154903e-01
5.238936e-01
5.338934e-01
5.444390e-01
5.547503e-01
5.643481e-01
0.000000e+00
1.000000e+00
5.651744e-01
5.564933e-01
5.471668e-01
5.376284e-01
5.285836e-01
5.209829e-01
5.158612e-01
5.140473e-01
5.158612e-01
5.209829e-01
5.285836e-01
5.376284e-01
5.471668e-01
5.564933e-01
5.651744e-01
0.000000e+00
1.000000e+00
5.661464e-01
5.585434e-01
5.503753e-01
5.420215e-01
5.341001e-01
5.274434e-01
5.229578e-01
5.213692e-01
5.229578e-01
5.274434e-01
5.341001e-01
5.420215e-01
5.503753e-01
5.585434e-01
5.661464e-01
0.000000e+00
1.000000e+00
5.672311e-01
5.608315e-01
5.539562e-01
5.469246e-01
5.402570e-01
5.346539e-01
5.308782e-01
5.295410e-01
5.308782e-01
5.346539e-01
5.402570e-01
5.469246e-01
5.539562e-01
5.608315e-01
5.672311e-01
0.000000e+00
1.000000e+00
5.683794e-01
5.632536e-01
5.577467e-01
5.521147e-01
5.467742e-01
5.422864e-01
5.392623e-01
5.381912e-01
5.392623e-01
5.422864e-01
5.467742e-01
5.521147e-01
5.577467e-01
5.632536e-01
5.683794e-01
0.000000e+00
1.000000e+00
5.695279e-01
5.656761e-01
5.615381e-01
5.573060e-01
5.532929e-01
5.499205e-01
5.476481e-01
5.468433e-01
5.476481e-01
5.499205e-01
5.532929e-01
5.573060e-01
5.615381e-01
5.656761e-01
5.695279e-01
0.000000e+00
1.000000e+00
5.706054e-01
5.679490e-01
5.650951e-01
5.621764e-01
5.594087e-01
5.570829e-01
5.555157e-01
5.549607e-01
5.555157e-01
5.570829e-01
5.594087e-01
5.621764e-01
5.650951e-01
5.679490e-01
5.706054e-01
0.000000e+00
1.000000e+00
5.715415e-01
5.699235e-01
5.681852e-01
5.664075e-01
5.647217e-01
5.633051e-01
5.623505e-01
5.620124e-01
5.623505e-01
5.633051e-01
5.647217e-01
5.664075e-01
5.681852e-01
5.699235e-01
5.715415e-01
0.000000e+00
1.000000e+00
5.722760e-01
5.714727e-01
5.706098e-01
5.697273e-01
5.688904e-01
5.681872e-01
5.677133e-01
5.675454e-01
5.677133e-01
5.681872e-01
5.688904e-01
5.697273e-01
5.706098e-01
5.714727e-01
5.722760e-01
0.000000e+00
1.000000e+00
5.727673e-01
5.725092e-01
5.722319e-01
5.719482e-01
5.716793e-01
5.714533e-01
5.713010e-01
5.712471e-01
5.713010e-01
5.714533e-01
5.716793e-01
5.719482e-01
5.722319e-01
5.725092e-01
5.727673e-01
0.000000e+00
1.000000e+00
5.729975e-01
5.729948e-01
5.729918e-01
5.729888e-01
5.729859e-01
5.729835e-01
5.729819e-01
5.729813e-01
5.729819e-01
5.729835e-01
5.729859e-01
5.729888e-01
5.729918e-01
5.729948e-01
5.729975e-01
0.000000e+00
1.000000e+00
5.729724e-01
5.729417e-01
5.729088e-01
5.728751e-01
5.728431e-01
5.728163e-01
5.727982e-01
5.727918e-01
5.727982e-01
5.728163e-01
5.728431e-01
5.728751e-01
5.729088e-01
5.729417e-01
5.729724e-01
0.000000e+00
1.000000e+00
5.727177e-01
5.724045e-01
5.720681e-01
5.717240e-01
5.713977e-01
5.711235e-01
5.709388e-01
5.708733e-01
5.709388e-01
5.711235e-01
5.713977e-01
5.717240e-01
5.720681e-01
5.724045e-01
5.727177e-01
0.000000e+00
1.000000e+00
5.722732e-01
5.714669e-01
5.706007e-01
5.697148e-01
5.688747e-01
5.681688e-01
5.676931e-01
5.675246e-01
5.676931e-01
5.681688e-01
5.688747e-01
5.697148e-01
5.706007e-01
5.714669e-01
5.722732e-01
0.000000e+00
1.000000e+00
5.716851e-01
5.702265e-01
5.686595e-01
5.670568e-01
5.655371e-01
5.642600e-01
5.633994e-01
5.630946e-01
5.633994e-01
5.642600e-01
5.655371e-01
5.670568e-01
5.686595e-01
5.702265e-01
5.716851e-01
0.000000e+00
1.000000e+00
5.710003e-01
5.687820e-01
5.663987e-01
5.639613e-01
5.616501e-01
5.597078e-01
5.583991e-01
5.579356e-01
5.583991e-01
5.597078e-01
5.616501e-01
5.639613e-01
5.663987e-01
5.687820e-01
5.710003e-01
0.000000e+00
1.000000e+00
5.636419e-01
5.532606e-01
5.421076e-01
5.307012e-01
5.198850e-01
5.107958e-01
5.046711e-01
5.025020e-01
5.046711e-01
5.107958e-01
5.198850e-01
5.307012e-01
5.421076e-01
5.532606e-01
5.636419e-01
0.000000e+00
1.000000e+00
5.642667e-01
5.545785e-01
5.441702e-01
5.335253e-01
5.234313e-01
5.149489e-01
5.092331e-01
5.072088e-01
5.092331e-01
5.149489e-01
5.234313e-01
5.335253e-01
5.441702e-01
5.545785e-01
5.642667e-01
0.000000e+00
1.000000e+00
5.650631e-01
5.562584e-01
5.467993e-01
5.371251e-01
5.279517e-01
5.202429e-01
5.150483e-01
5.132086e-01
5.150483e-01
5.202429e-01
5.279517e-01
5.371251e-01
5.467993e-01
5.562584e-01
5.650631e-01
0.000000e+00
1.000000e+00
5.660169e-01
5.582703e-01
5.499479e-01
5.414363e-01
5.333652e-01
5.265828e-01
5.220125e-01
5.203938e-01
5.220125e-01
5.265828e-01
5.333652e-01
5.414363e-01
5.499479e-01
5.582703e-01
5.660169e-01
0.000000e+00
1.000000e+00
5.670967e-01
5.605479e-01
5.535124e-01
5.463169e-01
5.394939e-01
5.337602e-01
5.298966e-01
5.285282e-01
5.298966e-01
5.337602e-01
5.394939e-01
5.463169e-01
5.535124e-01
5.605479e-01
5.670967e-01
0.000000e+00
1.000000e+00
5.682531e-01
5.629872e-01
5.573299e-01
5.515440e-01
5.460575e-01
5.414470e-01
5.383402e-01
5.372399e-01
5.383402e-01
5.414470e-01
5.460575e-01
5.515440e-01
5.573299e-01
5.629872e-01
5.682531e-01
0.000000e+00
1.000000e+00
5.694212e-01
5.654510e-01
5.611857e-01
5.568236e-01
5.526871e-01
5.492111e-01
5.468688e-01
5.460393e-01
5.468688e-01
5.492111e-01
5.526871e-01
5.568236e-01
5.611857e-01
5.654510e-01
5.694212e-01
0.000000e+00
1.000000e+00
5.705263e-01
5.677821e-01
5.648339e-01
5.618187e-01
5.589596e-01
5.565569e-01
5.549379e-01
5.543645e-01
5.549379e-01
5.565569e-01
5.589596e-01
5.618187e-01
5.648339e-01
5.677821e-01
5.705263e-01
0.000000e+00
1.000000e+00
5.714936e-01
5.698224e-01
5.680271e-01
5.661909e-01
5.644498e-01
5.629866e-01
5.620007e-01
5.616515e-01
5.620007e-01
5.629866e-01
5.644498e-01
5.661909e-01
5.680271e-01
5.698224e-01
5.714936e-01
0.000000e+00
1.000000e+00
5.722584e-01
5.714356e-01
5.705518e-01
5.696478e-01
5.687906e-01
5.680703e-01
5.675849e-01
5.674130e-01
5.675849e-01
5.680703e-01
5.687906e-01
5.696478e-01
5.705518e-01
5.714356e-01
5.722584e-01
0.000000e+00
1.000000e+00
5.727754e-01
5.725261e-01
5.722584e-01
5.719846e-01
5.717249e-01
5.715067e-01
5.713597e-01
5.713076e-01
5.713597e-01
5.715067e-01
5.717249e-01
5.719846e-01
5.722584e-01
5.725261e-01
5.727754e-01
0.000000e+00
1.000000e+00
5.730241e-01
5.730509e-01
5.730796e-01
5.731090e-01
5.731368e-01
5.731602e-01
5.731760e-01
5.731816e-01
5.731760e-01
5.731602e-01
5.731368e-01
5.731090e-01
5.730796e-01
5.730509e-01
5.730241e-01
0.000000e+00
1.000000e+00
5.730097e-01
5.730204e-01
5.730319e-01
5.730436e-01
5.730548e-01
5.730641e-01
5.730705e-01
5.730727e-01
5.730705e-01
5.730641e-01
5.730548e-01
5.730436e-01
5.730319e-01
5.730204e-01
5.730097e-01
0.000000e+00
1.000000e+00
5.727585e-01
5.724906e-01
5.722028e-01
5.719084e-01
5.716293e-01
5.713947e-01
5.712366e-01
5.711807e-01
5.712366e-01
5.713947e-01
5.716293e-01
5.719084e-01
5.722028e-01
5.724906e-01
5.727585e-01
0.000000e+00
1.000000e+00
5.723118e-01
5.715484e-01
5.707282e-01
5.698894e-01
5.690940e-01
5.684256e-01
5.679752e-01
5.678157e-01
5.679752e-01
5.684256e-01
5.690940e-01
5.698894e-01
5.707282e-01
5.715484e-01
5.723118e-01
0.000000e+00
1.000000e+00
5.717178e-01
5.702954e-01
5.687673e-01
5.672045e-01
5.657225e-01
5.644771e-01
5.636380e-01
5.633408e-01
5.636380e-01
5.644771e-01
5.657225e-01
5.672045e-01
5.687673e-01
5.702954e-01
5.717178e-01
0.000000e+00
1.000000e+00
5.710250e-01
5.688340e-01
5.664802e-01
5.640729e-01
5.617902e-01
5.598719e-01
5.585793e-01
5.581215e-01
5.585793e-01
5.598719e-01
5.617902e-01
5.640729e-01
5.664802e-01
5.688340e-01
5.710250e-01
0.000000e+00
1.000000e+00
5.638444e-01
5.536877e-01
5.427761e-01
5.316165e-01
5.210345e-01
5.121420e-01
5.061498e-01
5.040276e-01
5.061498e-01
5.121420e-01
5.210345e-01
5.316165e-01
5.427761e-01
5.536877e-01
5.638444e-01
0.000000e+00
1.000000e+00
5.644434e-01
5.549513e-01
5.447536e-01
5.343241e-01
5.244344e-01
5.161237e-01
5.105235e-01
5.085402e-01
5.105235e-01
5.161237e-01
5.244344e-01
5.343241e-01
5.447536e-01
5.549513e-01
5.644434e-01
0.000000e+00
1.000000e+00
5.652211e-01
5.565917e-01
5.473209e-01
5.378394e-01
5.288486e-01
5.212933e-01
5.162022e-01
5.143991e-01
5.162022e-01
5.212933e-01
5.288486e-01
5.378394e-01
5.473209e-01
5.565917e-01
5.652211e-01
0.000000e+00
1.000000e+00
5.661652e-01
5.585831e-01
5.504374e-01
5.421066e-01
5.342069e-01
5.275685e-01
5.230952e-01
5.215109e-01
5.230952e-01
5.275685e-01
5.342069e-01
5.421066e-01
5.504374e-01
5.585831e-01
5.661652e-01
0.000000e+00
1.000000e+00
5.672453e-01
5.608614e-01
5.540030e-01
5.469887e-01
5.403374e-01
5.347481e-01
5.309818e-01
5.296479e-01
5.309818e-01
5.347481e-01
5.403374e-01
5.469887e-01
5.540030e-01
5.608614e-01
5.672453e-01
0.000000e+00
1.000000e+00
5.684121e-01
5.633225e-01
5.578547e-01
5.522625e-01
5.469598e-01
5.425037e-01
5.395010e-01
5.384376e-01
5.395010e-01
5.425037e-01
5.469598e-01
5.522625e-01
5.578547e-01
5.633225e-01
5.684121e-01
0.000000e+00
1.000000e+00
5.695990e-01
5.658262e-01
5.617729e-01
5.576275e-01
5.536966e-01
5.503934e-01
5.481675e-01
5.473791e-01
5.481675e-01
5.503934e-01
5.536966e-01
5.576275e-01
5.617729e-01
5.658262e-01
5.695990e-01
0.000000e+00
1.000000e+00
5.707287e-01
5.682091e-01
5.655022e-01
5.627338e-01
5.601086e-01
5.579026e-01
5.564161e-01
5.558896e-01
5.564161e-01
5.579026e-01
5.601086e-01
5.627338e-01
5.655022e-01
5.682091e-01
5.707287e-01
0.000000e+00
1.000000e+00
5.717226e-01
5.703055e-01
5.687831e-01
5.672261e-01
5.657497e-01
5.645090e-01
5.636730e-01
5.633769e-01
5.636730e-01
5.645090e-01
5.657497e-01
5.672261e-01
5.687831e-01
5.703055e-01
5.717226e-01
0.000000e+00
1.000000e+00
5.725121e-01
5.719708e-01
5.713893e-01
5.707946e-01
5.702307e-01
5.697568e-01
5.694375e-01
5.693244e-01
5.694375e-01
5.697568e-01
5.702307e-01
5.707946e-01
5.713893e-01
5.719708e-01
5.725121e-01
0.000000e+00
1.000000e+00
5.730486e-01
5.731026e-01
5.731605e-01
5.732198e-01
5.732760e-01
5.733232e-01
5.733551e-01
5.733663e-01
5.733551e-01
5.733232e-01
5.732760e-01
5.732198e-01
5.731605e-01
5.731026e-01
5.730486e-01
0.000000e+00
1.000000e+00
5.733098e-01
5.736534e-01
5.740226e-01
5.744001e-01
5.747581e-01
5.750590e-01
5.752617e-01
5.753335e-01
5.752617e-01
5.750590e-01
5.747581e-01
5.744001e-01
5.740226e-01
5.736534e-01
5.733098e-01
0.000000e+00
1.000000e+00
5.732999e-01
5.736325e-01
5.739899e-01
5.743554e-01
5.747019e-01
5.749932e-01
5.751894e-01
5.752589e-01
5.751894e-01
5.749932e-01
5.747019e-01
5.743554e-01
5.739899e-01
5.736325e-01
5.732999e-01
0.000000e+00
1.000000e+00
5.730460e-01
5.730970e-01
5.731519e-01
5.732079e-01
5.732611e-01
5.733058e-01
5.733359e-01
5.733465e-01
5.733359e-01
5.733058e-01
5.732611e-01
5.732079e-01
5.731519e-01
5.730970e-01
5.730460e-01
0.000000e+00
1.000000e+00
5.725907e-01
5.721367e-01
5.716489e-01
5.711500e-01
5.706770e-01
5.702794e-01
5.700116e-01
5.699167e-01
5.700116e-01
5.702794e-01
5.706770e-01
5.711500e-01
5.716489e-01
5.721367e-01
5.725907e-01
0.000000e+00
1.000000e+00
5.719839e-01
5.708567e-01
5.696457e-01
5.684073e-01
5.672328e-01
5.662460e-01
5.655809e-01
5.653454e-01
5.655809e-01
5.662460e-01
5.672328e-01
5.684073e-01
5.696457e-01
5.708567e-01
5.719839e-01
0.000000e+00
1.000000e+00
5.712758e-01
5.693630e-01
5.673080e-01
5.652064e-01
5.632135e-01
5.615387e-01
5.604103e-01
5.600106e-01
5.604103e-01
5.615387e-01
5.632135e-01
5.652064e-01
5.673080e-01
5.693630e-01
5.712758e-01
0.000000e+00
1.000000e+00
5.642886e-01
5.546248e-01
5.442426e-01
5.336245e-01
5.235559e-01
5.150949e-01
5.093934e-01
5.073742e-01
5.093934e-01
5.150949e-01
5.235559e-01
5.336245e-01
5.442426e-01
5.546248e-01
5.642886e-01
0.000000e+00
1.000000e+00
5.648775e-01
5.558668e-01
5.461864e-01
5.362860e-01
5.268980e-01
5.190089e-01
5.136928e-01
5.118100e-01
5.136928e-01
5.190089e-01
5.268980e-01
5.362860e-01
5.461864e-01
5.558668e-01
5.648775e-01
0.000000e+00
1.000000e+00
5.656497e-01
5.574958e-01
5.487358e-01
5.397767e-01
5.312812e-01
5.241422e-01
5.193316e-01
5.176278e-01
5.193316e-01
5.241422e-01
5.312812e-01
5.397767e-01
5.487358e-01
5.574958e-01
5.656497e-01
0.000000e+00
1.000000e+00
5.665942e-01
5.594880e-01
5.518537e-01
5.440458e-01
5.366420e-01
5.304203e-01
5.262278e-01
5.247430e-01
5.262278e-01
5.304203e-01
5.366420e-01
5.440458e-01
5.518537e-01
5.594880e-01
5.665942e-01
0.000000e+00
1.000000e+00
5.676813e-01
5.617810e-01
5.554422e-01
5.489594e-01
5.428120e-01
5.376461e-01
5.341651e-01
5.329323e-01
5.341651e-01
5.376461e-01
5.428120e-01
5.489594e-01
5.554422e-01
5.617810e-01
5.676813e-01
0.000000e+00
1.000000e+00
5.688613e-01
5.642701e-01
5.593377e-01
5.542931e-01
5.495096e-01
5.454899e-01
5.427812e-01
5.418219e-01
5.427812e-01
5.454899e-01
5.495096e-01
5.542931e-01
5.593377e-01
5.642701e-01
5.688613e-01
0.000000e+00
1.000000e+00
5.700666e-01
5.668125e-01
5.633165e-01
5.597410e-01
5.563506e-01
5.535014e-01
5.515816e-01
5.509016e-01
5.515816e-01
5.535014e-01
5.563506e-01
5.597410e-01
5.633165e-01
5.668125e-01
5.700666e-01
0.000000e+00
1.000000e+00
5.712175e-01
5.692402e-01
5.671158e-01
5.649432e-01
5.628830e-01
5.611517e-01
5.599851e-01
5.595720e-01
5.599851e-01
5.611517e-01
5.628830e-01
5.649432e-01
5.671158e-01
5.692402e-01
5.712175e-01
0.000000e+00
1.000000e+00
5.722327e-01
5.713814e-01
5.704669e-01
5.695316e-01
5.686446e-01
5.678993e-01
5.673971e-01
5.672192e-01
5.673971e-01
5.678993e-01
5.686446e-01
5.695316e-01
5.704669e-01
5.713814e-01
5.722327e-01
0.000000e+00
1.000000e+00
5.730404e-01
5.730853e-01
5.731335e-01
5.731828e-01
5.732295e-01
5.732688e-01
5.732952e-01
5.733046e-01
5.732952e-01
5.732688e-01
5.732295e-01
5.731828e-01
5.731335e-01
5.730853e-01
5.730404e-01
0.000000e+00
1.000000e+00
5.735899e-01
5.742442e-01
5.749472e-01
5.756661e-01
5.763478e-01
5.769207e-01
5.773068e-01
5.774435e-01
5.773068e-01
5.769207e-01
5.763478e-01
5.756661e-01
5.749472e-01
5.742442e-01
5.735899e-01
0.000000e+00
1.000000e+00
5.738568e-01
5.748073e-01
5.758285e-01
5.768728e-01
5.778631e-01
5.786953e-01
5.792561e-01
5.794547e-01
5.792561e-01
5.786953e-01
5.778631e-01
5.768728e-01
5.758285e-01
5.748073e-01
5.738568e-01
0.000000e+00
1.000000e+00
5.738452e-01
5.747829e-01
5.757902e-01
5.768204e-01
5.777973e-01
5.786182e-01
5.791714e-01
5.793673e-01
5.791714e-01
5.786182e-01
5.777973e-01
5.768204e-01
5.757902e-01
5.747829e-01
5.738452e-01
0.000000e+00
1.000000e+00
5.735826e-01
5.742288e-01
5.749231e-01
5.756332e-01
5.763065e-01
5.768723e-01
5.772536e-01
5.773887e-01
5.772536e-01
5.768723e-01
5.763065e-01
5.756332e-01
5.749231e-01
5.742288e-01
5.735826e-01
0.000000e+00
1.000000e+00
5.731125e-01
5.732373e-01
5.733714e-01
5.735086e-01
5.736386e-01
5.737479e-01
5.738215e-01
5.738476e-01
5.738215e-01
5.737479e-01
5.736386e-01
5.735086e-01
5.733714e-01
5.732373e-01
5.731125e-01
0.000000e+00
1.000000e+00
5.724864e-01
5.719166e-01
5.713045e-01
5.706785e-01
5.700848e-01
5.695860e-01
5.692498e-01