<?xml version="1.0"?>
<VTKFile type="StructuredGrid" version="0.1">
  <StructuredGrid WholeExtent="0 16 0 16 0 16">
    <Piece Extent="0 16 0 16 0 16">
      <PointData Scalars="temperature" Vectors="velocity">
        <DataArray type="Float32" Name="temperature" format="ascii">
1.000000e+00
5.731754e-01
5.730284e-01
5.730481e-01
5.730624e-01
5.730759e-01
5.730872e-01
5.730948e-01
5.730977e-01
5.730954e-01
5.730882e-01
5.730770e-01
5.730648e-01
5.730501e-01
5.730866e-01
5.724334e-01
0.000000e+00
1.000000e+00
5.732173e-01
5.732371e-01
5.733809e-01
5.735162e-01
5.736445e-01
5.737522e-01
5.738246e-01
5.738499e-01
5.738236e-01
5.737507e-01
5.736433e-01
5.735207e-01
5.733884e-01
5.732427e-01
5.724961e-01
0.000000e+00
1.000000e+00
5.734985e-01
5.736835e-01
5.740841e-01
5.744802e-01
5.748558e-01
5.751712e-01
5.753833e-01
5.754575e-01
5.753803e-01
5.751659e-01
5.748511e-01
5.744879e-01
5.741178e-01
5.737140e-01
5.732310e-01
0.000000e+00
1.000000e+00
5.738701e-01
5.743865e-01
5.751916e-01
5.759972e-01
5.767611e-01
5.774030e-01
5.778350e-01
5.779869e-01
5.778312e-01
5.773957e-01
5.767550e-01
5.760186e-01
5.752697e-01
5.744651e-01
5.734415e-01
0.000000e+00
1.000000e+00
5.743627e-01
5.753488e-01
5.767036e-01
5.780678e-01
5.793618e-01
5.804494e-01
5.811822e-01
5.814411e-01
5.811798e-01
5.804444e-01
5.793646e-01
5.781308e-01
5.768453e-01
5.754648e-01
5.739939e-01
0.000000e+00
1.000000e+00
5.750240e-01
5.765479e-01
5.785930e-01
5.806551e-01
5.826114e-01
5.842563e-01
5.853655e-01
5.857595e-01
5.853681e-01
5.842633e-01
5.826528e-01
5.807914e-01
5.787896e-01
5.767060e-01
5.745561e-01
0.000000e+00
1.000000e+00
5.758286e-01
5.779404e-01
5.807996e-01
5.836773e-01
5.864075e-01
5.887039e-01
5.902538e-01
5.908070e-01
5.902668e-01
5.887390e-01
5.865194e-01
5.838824e-01
5.810420e-01
5.781391e-01
5.752627e-01
0.000000e+00
1.000000e+00
5.766894e-01
5.794729e-01
5.832341e-01
5.870111e-01
5.905954e-01
5.936108e-01
5.956475e-01
5.963777e-01
5.956763e-01
5.936903e-01
5.907876e-01
5.872659e-01
5.835129e-01
5.797226e-01
5.759949e-01
0.000000e+00
1.000000e+00
5.775746e-01
5.810781e-01
5.857809e-01
5.904985e-01
5.949759e-01
5.987436e-01
6.012902e-01
6.022068e-01
6.013399e-01
5.988769e-01
5.952451e-01
5.907939e-01
5.860962e-01
5.813719e-01
5.766666e-01
0.000000e+00
1.000000e+00
5.784296e-01
5.826734e-01
5.883105e-01
5.939615e-01
5.993250e-01
6.038395e-01
6.068931e-01
6.079959e-01
6.069690e-01
6.040356e-01
5.996666e-01
5.942999e-01
5.886512e-01
5.830049e-01
5.772935e-01
0.000000e+00
1.000000e+00
5.792377e-01
5.841737e-01
5.906914e-01
5.972199e-01
6.034169e-01
6.086344e-01
6.121654e-01
6.134462e-01
6.122748e-01
6.088973e-01
6.038207e-01
5.975986e-01
5.910577e-01
5.845299e-01
5.780016e-01
0.000000e+00
1.000000e+00
5.799988e-01
5.854966e-01
5.928040e-01
6.001119e-01
6.070490e-01
6.128907e-01
6.168475e-01
6.182896e-01
6.169951e-01
6.132173e-01
6.075054e-01
6.005308e-01
5.931868e-01
5.858891e-01
5.786367e-01
0.000000e+00
1.000000e+00
5.806190e-01
5.865898e-01
5.945569e-01
6.025104e-01
6.100612e-01
6.164220e-01
6.207342e-01
6.223148e-01
6.209204e-01
6.168004e-01
6.105617e-01
6.029619e-01
5.949541e-01
5.870118e-01
5.791145e-01
0.000000e+00
1.000000e+00
5.811182e-01
5.874103e-01
5.958865e-01
6.043305e-01
6.123490e-01
6.191061e-01
6.236911e-01
6.253797e-01
6.239061e-01
6.195182e-01
6.128805e-01
6.048075e-01
5.962852e-01
5.878656e-01
5.794536e-01
0.000000e+00
1.000000e+00
5.815472e-01
5.879231e-01
5.967627e-01
6.055346e-01
6.138656e-01
6.208874e-01
6.256549e-01
6.274157e-01
6.258833e-01
6.213146e-01
6.144186e-01
6.060306e-01
5.971622e-01
5.884220e-01
5.797638e-01
0.000000e+00
1.000000e+00
5.818030e-01
5.881450e-01
5.971926e-01
6.061285e-01
6.146156e-01
6.217699e-01
6.266291e-01
6.284250e-01
6.268554e-01
6.221941e-01
6.151799e-01
6.066383e-01
5.975904e-01
5.887014e-01
5.798608e-01
0.000000e+00
1.000000e+00
5.818524e-01
5.881375e-01
5.972125e-01
6.061536e-01
6.146452e-01
6.218028e-01
6.266646e-01
6.284638e-01
6.268888e-01
6.221925e-01
6.152049e-01
6.066646e-01
5.976015e-01
5.887196e-01
5.795996e-01
0.000000e+00
1.000000e+00
5.731260e-01
5.730212e-01
5.730358e-01
5.730449e-01
5.730535e-01
5.730606e-01
5.730653e-01
5.730670e-01
5.730652e-01
5.730606e-01
5.730534e-01
5.730508e-01
5.730444e-01
5.730744e-01
5.723631e-01
0.000000e+00
1.000000e+00
5.733314e-01
5.734612e-01
5.737285e-01
5.739924e-01
5.742426e-01
5.744527e-01
5.745939e-01
5.746433e-01
5.745920e-01
5.744492e-01
5.742377e-01
5.739942e-01
5.737502e-01
5.735170e-01
5.724976e-01
0.000000e+00
1.000000e+00
5.737613e-01
5.741615e-01
5.748350e-01
5.755086e-01
5.761473e-01
5.766838e-01
5.770449e-01
5.771719e-01
5.770420e-01
5.766780e-01
5.761391e-01
5.755150e-01
5.748869e-01
5.742310e-01
5.733134e-01
0.000000e+00
1.000000e+00
5.742862e-01
5.751381e-01
5.763779e-01
5.776217e-01
5.788013e-01
5.797926e-01
5.804604e-01
5.806964e-01
5.804583e-01
5.797874e-01
5.787961e-01
5.776661e-01
5.764933e-01
5.752488e-01
5.736915e-01
0.000000e+00
1.000000e+00
5.749570e-01
5.763864e-01
5.783463e-01
5.803171e-01
5.821865e-01
5.837581e-01
5.848178e-01
5.851943e-01
5.848206e-01
5.837628e-01
5.822144e-01
5.804355e-01
5.785272e-01
5.765317e-01
5.744011e-01
0.000000e+00
1.000000e+00
5.757831e-01
5.778738e-01
5.806970e-01
5.835364e-01
5.862300e-01
5.884950e-01
5.900235e-01
5.905690e-01
5.900367e-01
5.885255e-01
5.863263e-01
5.837224e-01
5.809158e-01
5.780623e-01
5.750818e-01
0.000000e+00
1.000000e+00
5.767216e-01
5.795453e-01
5.833479e-01
5.871667e-01
5.907900e-01
5.938380e-01
5.958965e-01
5.966347e-01
5.959257e-01
5.939090e-01
5.909692e-01
5.874047e-01
5.836045e-01
5.797820e-01
5.758801e-01
0.000000e+00
1.000000e+00
5.777069e-01
5.813317e-01
5.861825e-01
5.910481e-01
5.956654e-01
5.995507e-01
6.021771e-01
6.031232e-01
6.022285e-01
5.996770e-01
5.959338e-01
5.913420e-01
5.864754e-01
5.816196e-01
5.766758e-01
0.000000e+00
1.000000e+00
5.786899e-01
5.831451e-01
5.890605e-01
5.949881e-01
6.006137e-01
6.053487e-01
6.085518e-01
6.097104e-01
6.086314e-01
6.055421e-01
6.009683e-01
5.953359e-01
5.893881e-01
5.834750e-01
5.774908e-01
0.000000e+00
1.000000e+00
5.796438e-01
5.848856e-01
5.918275e-01
5.987753e-01
6.053694e-01
6.109212e-01
6.146800e-01
6.160462e-01
6.147965e-01
6.111915e-01
6.058028e-01
5.991798e-01
5.921827e-01
5.852530e-01
5.782891e-01
0.000000e+00
1.000000e+00
5.805388e-01
5.864550e-01
5.943344e-01
6.022063e-01
6.096781e-01
6.159708e-01
6.202353e-01
6.217947e-01
6.203974e-01
6.163193e-01
6.101838e-01
6.026656e-01
5.947186e-01
5.868611e-01
5.790502e-01
0.000000e+00
1.000000e+00
5.813398e-01
5.877686e-01
5.964549e-01
6.051092e-01
6.133246e-01
6.202460e-01
6.249423e-01
6.266710e-01
6.251513e-01
6.206660e-01
6.138930e-01
6.056182e-01
5.968614e-01
5.882251e-01
5.796805e-01
0.000000e+00
1.000000e+00
5.819731e-01
5.887739e-01
5.980995e-01
6.073606e-01
6.161543e-01
6.235664e-01
6.286017e-01
6.304664e-01
6.288490e-01
6.240410e-01
6.167747e-01
6.079039e-01
5.985245e-01
5.892814e-01
5.801113e-01
0.000000e+00
1.000000e+00
5.824675e-01
5.894281e-01
5.992156e-01
6.088926e-01
6.180834e-01
6.258332e-01
6.311026e-01
6.330607e-01
6.313711e-01
6.263377e-01
6.187387e-01
6.094625e-01
5.996445e-01
5.899992e-01
5.804174e-01
0.000000e+00
1.000000e+00
5.828438e-01
5.897082e-01
5.997949e-01
6.096951e-01
6.190974e-01
6.270267e-01
6.324200e-01
6.344251e-01
6.326910e-01
6.275358e-01
6.197689e-01
6.102830e-01
6.002262e-01
5.903668e-01
5.806420e-01
0.000000e+00
1.000000e+00
5.830005e-01
5.896533e-01
5.998685e-01
6.098041e-01
6.192382e-01
6.271944e-01
6.326058e-01
6.346142e-01
6.328625e-01
6.276841e-01
6.198989e-01
6.103858e-01
6.002965e-01
5.904153e-01
5.806319e-01
0.000000e+00
1.000000e+00
5.829976e-01
5.893205e-01
5.994832e-01
6.092792e-01
6.185805e-01
6.264254e-01
6.317610e-01
6.337406e-01
6.320002e-01
6.268488e-01
6.192041e-01
6.098378e-01
5.998744e-01
5.901348e-01
5.805107e-01
0.000000e+00
1.000000e+00
5.729859e-01
5.727791e-01
5.726467e-01
5.725130e-01
5.723861e-01
5.722794e-01
5.722074e-01
5.721816e-01
5.722064e-01
5.722781e-01
5.723846e-01
5.725292e-01
5.726698e-01
5.728569e-01
5.725204e-01
0.000000e+00
1.000000e+00
5.733222e-01
5.734562e-01
5.737118e-01
5.739696e-01
5.742140e-01
5.744191e-01
5.745568e-01
5.746046e-01
5.745535e-01
5.744125e-01
5.742038e-01
5.739755e-01
5.737526e-01
5.735508e-01
5.728518e-01
0.000000e+00
1.000000e+00
5.738671e-01
5.744191e-01
5.752330e-01
5.760531e-01
5.768307e-01
5.774839e-01
5.779234e-01
5.780777e-01
5.779185e-01
5.774727e-01
5.768114e-01
5.760619e-01
5.753146e-01
5.745251e-01
5.731675e-01
0.000000e+00
1.000000e+00
5.745273e-01
5.756835e-01
5.772288e-01
5.787864e-01
5.802635e-01
5.815049e-01
5.823412e-01
5.826366e-01
5.823375e-01
5.814948e-01
5.802543e-01
5.788646e-01
5.773888e-01
5.758171e-01
5.737070e-01
0.000000e+00
1.000000e+00
5.753749e-01
5.772341e-01
5.796749e-01
5.821359e-01
5.844701e-01
5.864325e-01
5.877559e-01
5.882265e-01
5.877604e-01
5.864419e-01
5.845307e-01
5.822994e-01
5.798704e-01
5.773974e-01
5.744879e-01
0.000000e+00
1.000000e+00
5.764073e-01
5.790209e-01
5.825071e-01
5.860147e-01
5.893422e-01
5.921407e-01
5.940300e-01
5.947058e-01
5.940498e-01
5.921889e-01
5.894921e-01
5.862325e-01
5.827311e-01
5.792306e-01
5.753742e-01
0.000000e+00
1.000000e+00
5.775040e-01
5.809784e-01
5.856175e-01
5.902741e-01
5.946928e-01
5.984108e-01
6.009237e-01
6.018277e-01
6.009657e-01
5.985138e-01
5.949361e-01
5.905528e-01
5.858805e-01
5.812424e-01
5.763322e-01
0.000000e+00
1.000000e+00
5.786078e-01
5.830225e-01
5.888620e-01
5.947162e-01
6.002722e-01
6.049495e-01
6.081146e-01
6.092591e-01
6.081863e-01
6.051255e-01
6.006120e-01
5.950651e-01
5.891606e-01
5.833337e-01
5.773106e-01
0.000000e+00
1.000000e+00
5.797160e-01
5.850403e-01
5.920709e-01
5.991095e-01
6.057903e-01
6.114159e-01
6.152268e-01
6.166117e-01
6.153366e-01
6.116778e-01
6.062220e-01
5.995316e-01
5.924019e-01
5.853964e-01
5.782908e-01
0.000000e+00
1.000000e+00
5.808027e-01
5.869120e-01
5.950657e-01
6.032097e-01
6.109392e-01
6.174499e-01
6.218644e-01
6.234791e-01
6.220234e-01
6.178035e-01
6.114563e-01
6.037080e-01
5.954288e-01
5.873144e-01
5.791995e-01
0.000000e+00
1.000000e+00
5.817647e-01
5.885326e-01
5.976782e-01
6.067851e-01
6.154302e-01
6.227159e-01
6.276631e-01
6.294882e-01
6.278795e-01
6.231617e-01
6.160312e-01
6.073588e-01
5.980764e-01
5.889869e-01
5.799850e-01
0.000000e+00
1.000000e+00
5.825796e-01
5.898117e-01
5.997778e-01
6.096601e-01
6.190437e-01
6.269563e-01
6.323377e-01
6.343383e-01
6.326041e-01
6.274789e-01
6.197209e-01
6.102910e-01
6.002106e-01
5.903314e-01
5.805968e-01
0.000000e+00
1.000000e+00
5.832131e-01
5.906918e-01
6.012790e-01
6.117192e-01
6.216352e-01
6.300017e-01
6.356988e-01
6.378267e-01
6.359965e-01
6.305737e-01
6.223758e-01
6.123815e-01
6.017348e-01
5.912984e-01
5.809877e-01
0.000000e+00
1.000000e+00
5.836876e-01
5.911279e-01
6.021466e-01
6.129178e-01
6.231487e-01
6.317830e-01
6.376654e-01
6.398641e-01
6.379712e-01
6.323697e-01
6.239252e-01
6.136033e-01
6.026039e-01
5.918580e-01
5.812224e-01
0.000000e+00
1.000000e+00
5.840096e-01
5.910976e-01
6.023994e-01
6.132781e-01
6.236059e-01
6.323212e-01
6.382576e-01
6.404726e-01
6.385527e-01
6.328946e-01
6.243863e-01
6.139692e-01
6.028565e-01
5.920228e-01
5.813545e-01
0.000000e+00
1.000000e+00
5.840233e-01
5.906739e-01
6.020956e-01
6.128673e-01
6.230891e-01
6.317137e-01
6.375853e-01
6.397681e-01
6.378543e-01
6.322505e-01
6.238355e-01
6.135253e-01
6.025293e-01
5.918222e-01
5.812606e-01
0.000000e+00
1.000000e+00
5.838122e-01
5.900292e-01
6.013025e-01
6.117776e-01
6.217168e-01
6.301032e-01
6.358120e-01
6.379301e-01
6.360439e-01
6.305673e-01
6.224043e-01
6.123881e-01
6.016933e-01
5.912755e-01
5.810949e-01
0.000000e+00
1.000000e+00
5.726923e-01
5.722723e-01
5.718467e-01
5.714174e-01
5.710103e-01
5.706682e-01
5.704376e-01
5.703558e-01
5.704371e-01
5.706688e-01
5.710127e-01
5.714609e-01
5.718939e-01
5.723274e-01
5.723998e-01
0.000000e+00
1.000000e+00
5.731847e-01
5.731822e-01
5.732788e-01
5.733776e-01
5.734711e-01
5.735495e-01
5.736018e-01
5.736190e-01
5.735976e-01
5.735414e-01
5.734583e-01
5.734040e-01
5.733395e-01
5.732616e-01
5.730519e-01
0.000000e+00
1.000000e+00
5.738240e-01
5.744127e-01
5.752139e-01
5.760270e-01
5.767979e-01
5.774455e-01
5.778810e-01
5.780334e-01
5.778741e-01
5.774291e-01
5.767674e-01
5.760407e-01
5.753361e-01
5.745414e-01
5.734639e-01
0.000000e+00
1.000000e+00
5.746370e-01
5.759692e-01
5.776636e-01
5.793815e-01
5.810106e-01
5.823798e-01
5.833020e-01
5.836272e-01
5.832955e-01
5.823619e-01
5.809909e-01
5.794767e-01
5.778741e-01
5.761242e-01
5.741404e-01
0.000000e+00
1.000000e+00
5.756682e-01
5.778225e-01
5.805886e-01
5.833862e-01
5.860396e-01
5.882704e-01
5.897746e-01
5.903091e-01
5.897778e-01
5.882795e-01
5.861254e-01
5.835855e-01
5.808157e-01
5.779950e-01
5.750618e-01
0.000000e+00
1.000000e+00
5.768973e-01
5.799055e-01
5.839025e-01
5.879247e-01
5.917406e-01
5.949500e-01
5.971173e-01
5.978934e-01
5.971421e-01
5.950147e-01
5.919328e-01
5.881863e-01
5.841561e-01
5.801319e-01
5.760212e-01
0.000000e+00
1.000000e+00
5.781515e-01
5.821473e-01
5.874730e-01
5.928141e-01
5.978822e-01
6.021471e-01
6.050307e-01
6.060696e-01
6.050841e-01
6.022830e-01
5.981752e-01
5.931507e-01
5.877545e-01
5.824370e-01
5.770739e-01
0.000000e+00
1.000000e+00
5.793839e-01
5.844459e-01
5.911259e-01
5.978146e-01
6.041623e-01
6.095066e-01
6.131243e-01
6.144343e-01
6.132154e-01
6.097324e-01
6.045547e-01
5.982325e-01
5.914331e-01
5.847823e-01
5.781256e-01
0.000000e+00
1.000000e+00
5.806152e-01
5.866631e-01
5.946572e-01
6.026488e-01
6.102335e-01
6.166216e-01
6.209510e-01
6.225282e-01
6.210945e-01
6.169506e-01
6.107171e-01
6.031582e-01
5.950007e-01
5.870457e-01
5.791696e-01
0.000000e+00
1.000000e+00
5.817879e-01
5.886586e-01
5.978608e-01
6.070341e-01
6.157416e-01
6.230792e-01
6.280594e-01
6.298886e-01
6.282687e-01
6.235151e-01
6.163119e-01
6.076473e-01
5.982468e-01
5.890948e-01
5.801165e-01
0.000000e+00
1.000000e+00
5.827944e-01
5.903147e-01
6.005530e-01
6.107194e-01
6.203733e-01
6.285154e-01
6.340524e-01
6.361047e-01
6.343279e-01
6.290518e-01
6.210347e-01
6.114323e-01
6.009993e-01
5.908095e-01
5.808997e-01
0.000000e+00
1.000000e+00
5.836077e-01
5.915386e-01
6.026011e-01
6.135277e-01
6.239081e-01
6.326693e-01
6.386361e-01
6.408611e-01
6.389561e-01
6.332796e-01
6.246609e-01
6.142960e-01
6.031130e-01
5.921216e-01
5.814900e-01
0.000000e+00
1.000000e+00
5.842149e-01
5.922663e-01
6.039296e-01
6.153596e-01
6.262182e-01
6.353850e-01
6.416342e-01
6.439688e-01
6.419709e-01
6.360323e-01
6.270480e-01
6.161473e-01
6.044698e-01
5.929783e-01
5.818398e-01
0.000000e+00
1.000000e+00
5.846585e-01
5.924400e-01
6.045275e-01
6.161965e-01
6.272733e-01
6.366247e-01
6.430018e-01
6.453816e-01
6.433321e-01
6.372701e-01
6.281374e-01
6.170084e-01
6.050494e-01
5.933563e-01
5.819864e-01
0.000000e+00
1.000000e+00
5.848773e-01
5.920658e-01
6.044422e-01
6.160877e-01
6.271340e-01
6.364599e-01
6.428164e-01
6.451826e-01
6.431246e-01
6.370754e-01
6.279908e-01
6.168882e-01
6.049323e-01
5.932934e-01
5.819816e-01
0.000000e+00
1.000000e+00
5.846610e-01
5.914010e-01
6.037520e-01
6.151348e-01
6.259308e-01
6.350442e-01
6.412535e-01
6.435568e-01
6.415269e-01
6.356131e-01
6.267436e-01
6.158749e-01
6.041989e-01
5.928401e-01
5.818066e-01
0.000000e+00
1.000000e+00
5.842099e-01
5.906470e-01
6.025386e-01
6.134627e-01
6.238274e-01
6.325762e-01
6.385372e-01
6.407452e-01
6.387637e-01
6.330769e-01
6.245749e-01
6.141273e-01
6.029271e-01
5.920288e-01
5.814907e-01
0.000000e+00
1.000000e+00
5.722971e-01
5.714918e-01
5.706182e-01
5.697351e-01
5.688980e-01
5.681949e-01
5.677217e-01
5.675552e-01
5.677253e-01
5.682048e-01
5.689141e-01
5.698218e-01
5.707053e-01
5.715761e-01
5.718879e-01
0.000000e+00
1.000000e+00
5.729168e-01
5.726216e-01
5.723996e-01
5.721746e-01
5.719614e-01
5.717824e-01
5.716613e-01
5.716174e-01
5.716583e-01
5.717772e-01
5.719535e-01
5.722480e-01
5.724830e-01
5.727108e-01
5.726551e-01
0.000000e+00
1.000000e+00
5.736492e-01
5.741066e-01
5.747297e-01
5.753645e-01
5.759662e-01
5.764718e-01
5.768118e-01
5.769303e-01
5.768049e-01
5.764555e-01
5.759344e-01
5.753983e-01
5.748803e-01
5.742621e-01
5.731969e-01
0.000000e+00
1.000000e+00
5.746247e-01
5.759436e-01
5.776146e-01
5.793148e-01
5.809272e-01
5.822823e-01
5.831947e-01
5.835161e-01
5.831872e-01
5.822617e-01
5.808932e-01
5.794114e-01
5.778732e-01
5.761334e-01
5.740002e-01
0.000000e+00
1.000000e+00
5.758247e-01
5.780894e-01
5.809994e-01
5.839487e-01
5.867457e-01
5.890972e-01
5.906825e-01
5.912447e-01
5.906825e-01
5.890988e-01
5.868273e-01
5.841751e-01
5.812806e-01
5.782962e-01
5.750469e-01
0.000000e+00
1.000000e+00
5.771931e-01
5.804669e-01
5.847766e-01
5.891207e-01
5.932416e-01
5.967072e-01
5.990467e-01
5.998832e-01
5.990707e-01
5.967736e-01
5.934510e-01
5.894173e-01
5.850695e-01
5.807206e-01
5.761910e-01
0.000000e+00
1.000000e+00
5.786017e-01
5.829833e-01
5.887852e-01
5.946093e-01
6.001352e-01
6.047849e-01
6.079284e-01
6.090604e-01
6.079882e-01
6.049405e-01
6.004608e-01
5.949957e-01
5.890937e-01
5.832914e-01
5.774041e-01
0.000000e+00
1.000000e+00
5.800078e-01
5.855110e-01
5.928178e-01
6.001295e-01
6.070680e-01
6.129092e-01
6.168641e-01
6.182984e-01
6.169763e-01
6.131797e-01
6.075019e-01
6.006171e-01
5.931544e-01
5.858715e-01
5.786210e-01
0.000000e+00
1.000000e+00
5.813662e-01
5.878978e-01
5.966401e-01
6.053613e-01
6.136383e-01
6.206112e-01
6.253401e-01
6.270706e-01
6.255277e-01
6.210105e-01
6.141646e-01
6.059652e-01
5.970144e-01
5.883174e-01
5.797772e-01
0.000000e+00
1.000000e+00
5.826177e-01
5.899861e-01
6.000204e-01
6.099886e-01
6.194524e-01
6.274317e-01
6.328544e-01
6.348600e-01
6.331297e-01
6.279554e-01
6.200620e-01
6.107235e-01
6.004592e-01
5.904705e-01
5.807837e-01
0.000000e+00
1.000000e+00
5.837063e-01
5.916414e-01
6.027631e-01
6.137473e-01
6.241808e-01
6.329858e-01
6.389816e-01
6.412185e-01
6.393289e-01
6.336109e-01
6.248755e-01
6.145716e-01
6.033256e-01
5.922168e-01
5.815506e-01
0.000000e+00
1.000000e+00
5.845311e-01
5.927783e-01
6.047350e-01
6.164572e-01
6.275967e-01
6.370035e-01
6.434167e-01
6.458175e-01
6.437996e-01
6.376934e-01
6.283980e-01
6.172914e-01
6.054180e-01
5.935029e-01
5.821031e-01
0.000000e+00
1.000000e+00
5.851367e-01
5.933203e-01
6.058714e-01
6.180365e-01
6.295918e-01
6.393483e-01
6.460013e-01
6.484901e-01
6.463856e-01
6.400539e-01
6.304753e-01
6.189047e-01
6.065517e-01
5.942578e-01
5.824167e-01
0.000000e+00
1.000000e+00
5.855622e-01
5.932253e-01
6.061893e-01
6.184945e-01
6.301663e-01
6.400191e-01
6.467367e-01
6.492424e-01
6.470997e-01
6.407002e-01
6.310715e-01
6.194129e-01
6.068214e-01
5.944164e-01
5.825321e-01
0.000000e+00
1.000000e+00
5.854952e-01
5.926921e-01
6.057657e-01
6.179113e-01
6.294248e-01
6.391440e-01
6.457681e-01
6.482288e-01
6.460933e-01
6.397775e-01
6.303147e-01
6.188112e-01
6.063340e-01
5.940714e-01
5.823392e-01
0.000000e+00
1.000000e+00
5.849364e-01
5.920086e-01
6.046888e-01
6.164189e-01
6.275419e-01
6.369314e-01
6.433307e-01
6.457042e-01
6.436142e-01
6.375124e-01
6.283961e-01
6.172410e-01
6.051755e-01
5.933983e-01
5.820787e-01
0.000000e+00
1.000000e+00
5.843077e-01
5.910340e-01
6.030577e-01
6.141831e-01
6.247357e-01
6.336412e-01
6.397081e-01
6.419560e-01
6.399465e-01
6.341585e-01
6.255290e-01
6.149022e-01
6.034711e-01
5.923545e-01
5.816639e-01
0.000000e+00
1.000000e+00
5.717554e-01
5.704476e-01
5.689747e-01
5.674849e-01
5.660730e-01
5.648878e-01
5.640912e-01
5.638125e-01
5.641028e-01
5.649140e-01
5.661112e-01
5.676179e-01
5.691095e-01
5.705748e-01
5.712989e-01
0.000000e+00
1.000000e+00
5.724732e-01
5.717769e-01
5.710712e-01
5.703562e-01
5.696791e-01
5.691115e-01
5.687303e-01
5.685970e-01
5.687348e-01
5.691203e-01
5.696896e-01
5.705002e-01
5.711980e-01
5.719002e-01
5.721576e-01
0.000000e+00
1.000000e+00
5.733395e-01
5.734922e-01
5.737629e-01
5.740411e-01
5.743051e-01
5.745272e-01
5.746767e-01
5.747284e-01
5.746725e-01
5.745170e-01
5.742828e-01
5.741281e-01
5.739315e-01
5.736727e-01
5.728392e-01
0.000000e+00
1.000000e+00
5.744398e-01
5.755818e-01
5.770427e-01
5.785322e-01
5.799448e-01
5.811321e-01
5.819315e-01
5.822131e-01
5.819255e-01
5.811160e-01
5.799076e-01
5.786174e-01
5.773257e-01
5.758074e-01
5.737906e-01
0.000000e+00
1.000000e+00
5.757507e-01
5.779974e-01
5.808454e-01
5.837383e-01
5.864821e-01
5.887893e-01
5.903447e-01
5.908960e-01
5.903433e-01
5.887833e-01
5.865338e-01
5.839792e-01
5.811812e-01
5.782428e-01
5.749833e-01
0.000000e+00
1.000000e+00
5.772294e-01
5.806483e-01
5.850411e-01
5.894818e-01
5.936941e-01
5.972361e-01
5.996261e-01
6.004788e-01
5.996450e-01
5.972907e-01
5.938995e-01
5.898135e-01
5.853867e-01
5.809275e-01
5.762364e-01
0.000000e+00
1.000000e+00
5.787818e-01
5.834161e-01
5.894412e-01
5.955053e-01
6.012584e-01
6.060983e-01
6.093688e-01
6.105449e-01
6.094271e-01
6.062556e-01
6.016032e-01
5.959181e-01
5.897988e-01
5.837396e-01
5.775936e-01
0.000000e+00
1.000000e+00
5.803298e-01
5.861512e-01
5.938072e-01
6.014814e-01
6.087628e-01
6.148920e-01
6.190408e-01
6.205460e-01
6.191627e-01
6.151876e-01
6.092261e-01
6.019950e-01
5.941852e-01
5.865256e-01
5.789152e-01
0.000000e+00
1.000000e+00
5.818097e-01
5.886840e-01
5.978761e-01
6.070500e-01
6.157562e-01
6.230904e-01
6.280658e-01
6.298923e-01
6.282823e-01
6.235415e-01
6.163134e-01
6.076938e-01
5.982948e-01
5.891155e-01
5.801398e-01
0.000000e+00
1.000000e+00
5.831639e-01
5.908409e-01
6.013935e-01
6.118654e-01
6.218078e-01
6.301924e-01
6.358960e-01
6.380178e-01
6.362186e-01
6.307870e-01
6.224457e-01
6.126435e-01
6.019140e-01
5.913503e-01
5.811693e-01
0.000000e+00
1.000000e+00
5.843245e-01
5.924785e-01
6.041520e-01
6.156485e-01
6.265706e-01
6.357924e-01
6.420809e-01
6.444421e-01
6.424813e-01
6.364943e-01
6.273062e-01
6.164634e-01
6.048471e-01
5.931244e-01
5.819226e-01
0.000000e+00
1.000000e+00
5.851428e-01
5.935246e-01
6.060236e-01
6.182253e-01
6.298239e-01
6.396243e-01
6.463134e-01
6.488309e-01
6.467420e-01
6.403775e-01
6.306782e-01
6.190140e-01
6.067972e-01
5.943914e-01
5.824252e-01
0.000000e+00
1.000000e+00
5.856790e-01
5.939257e-01
6.069586e-01
6.195332e-01
6.314825e-01
6.415749e-01
6.484596e-01
6.510442e-01
6.488765e-01
6.423166e-01
6.323910e-01
6.204031e-01
6.076760e-01
5.950339e-01
5.827104e-01
0.000000e+00
1.000000e+00
5.859087e-01
5.937327e-01
6.069991e-01
6.196118e-01
6.315819e-01
6.416857e-01
6.485724e-01
6.511450e-01
6.489532e-01
6.423760e-01
6.324853e-01
6.205657e-01
6.076973e-01
5.949356e-01
5.828071e-01
0.000000e+00
1.000000e+00
5.855419e-01
5.932041e-01
6.062461e-01
6.185731e-01
6.302656e-01
6.401331e-01
6.468574e-01
6.493623e-01
6.471903e-01
6.407625e-01
6.311627e-01
6.195335e-01
6.068873e-01
5.943274e-01
5.825675e-01
0.000000e+00
1.000000e+00
5.848288e-01
5.923893e-01
6.047999e-01
6.165761e-01
6.277502e-01
6.371812e-01
6.436089e-01
6.460048e-01
6.439071e-01
6.377559e-01
6.286322e-01
6.174650e-01
6.053391e-01
5.934963e-01
5.821865e-01
0.000000e+00
1.000000e+00
5.842131e-01
5.911547e-01
6.028023e-01
6.138394e-01
6.243131e-01
6.331505e-01
6.391681e-01
6.414050e-01
6.394307e-01
6.336650e-01
6.251287e-01
6.145766e-01
6.032294e-01
5.922384e-01
5.816211e-01
0.000000e+00
1.000000e+00
5.710879e-01
5.691679e-01
5.669631e-01
5.647313e-01
5.626166e-01
5.608426e-01
5.596513e-01
5.592363e-01
5.596739e-01
5.608893e-01
5.626824e-01
5.649091e-01
5.671403e-01
5.693229e-01
5.706888e-01
0.000000e+00
1.000000e+00
5.718788e-01
5.706697e-01
5.693285e-01
5.679707e-01
5.666851e-01
5.656080e-01
5.648859e-01
5.646359e-01
5.649038e-01
5.656408e-01
5.667271e-01
5.681776e-01
5.695190e-01
5.708390e-01
5.716123e-01
0.000000e+00
1.000000e+00
5.728656e-01
5.725822e-01
5.723319e-01
5.720825e-01
5.718470e-01
5.716503e-01
5.715185e-01
5.714726e-01
5.715208e-01
5.716542e-01
5.718453e-01
5.722601e-01
5.725265e-01
5.727813e-01
5.724056e-01
0.000000e+00
1.000000e+00
5.740595e-01
5.748867e-01
5.759475e-01
5.770331e-01
5.780628e-01
5.789290e-01
5.795128e-01
5.797191e-01
5.795102e-01
5.789208e-01
5.780382e-01
5.771317e-01
5.762424e-01
5.751413e-01
5.734853e-01
0.000000e+00
1.000000e+00
5.754723e-01
5.775313e-01
5.801043e-01
5.827244e-01
5.852101e-01
5.873001e-01
5.887088e-01
5.892082e-01
5.887087e-01
5.872955e-01
5.852207e-01
5.829494e-01
5.804895e-01
5.778110e-01
5.747798e-01
0.000000e+00
1.000000e+00
5.770591e-01
5.804098e-01
5.846486e-01
5.889444e-01
5.930194e-01
5.964463e-01
5.987582e-01
5.995816e-01
5.987717e-01
5.964835e-01
5.932020e-01
5.893019e-01
5.850451e-01
5.807099e-01
5.761476e-01
0.000000e+00
1.000000e+00
5.787179e-01
5.833856e-01
5.893690e-01
5.954057e-01
6.011321e-01
6.059486e-01
6.092012e-01
6.103678e-01
6.092502e-01
6.060867e-01
6.014823e-01
5.958300e-01
5.897761e-01
5.837235e-01
5.775740e-01
0.000000e+00
1.000000e+00
5.803363e-01
5.862955e-01
5.940013e-01
6.017448e-01
6.090910e-01
6.152731e-01
6.194554e-01
6.209698e-01
6.195692e-01
6.155609e-01
6.095744e-01
6.022556e-01
5.944267e-01
5.866731e-01
5.789582e-01
0.000000e+00
1.000000e+00
5.818913e-01
5.889501e-01
5.982566e-01
6.075674e-01
6.164023e-01
6.238432e-01
6.288896e-01
6.307413e-01
6.291050e-01
6.243094e-01
6.169892e-01
6.081746e-01
5.987353e-01
5.893731e-01
5.801853e-01
0.000000e+00
1.000000e+00
5.832983e-01
5.911631e-01
6.018630e-01
6.125041e-01
6.226059e-01
6.311242e-01
6.369193e-01
6.390773e-01
6.372505e-01
6.317545e-01
6.232875e-01
6.131754e-01
6.024798e-01
5.916619e-01
5.812146e-01
0.000000e+00
1.000000e+00
5.844332e-01
5.928013e-01
6.046089e-01
6.162679e-01
6.273441e-01
6.366973e-01
6.430779e-01
6.454776e-01
6.434909e-01
6.374385e-01
6.281468e-01
6.169365e-01
6.053844e-01
5.934420e-01
5.819637e-01
0.000000e+00
1.000000e+00
5.851964e-01
5.937993e-01
6.063689e-01
6.186906e-01
6.304048e-01
6.403049e-01
6.470647e-01
6.496118e-01
6.475017e-01
6.410778e-01
6.312965e-01
6.194646e-01
6.071072e-01
5.946455e-01
5.824611e-01
0.000000e+00
1.000000e+00
5.855938e-01
5.941459e-01
6.071110e-01
6.197295e-01
6.317256e-01
6.418606e-01
6.487763e-01
6.513725e-01
6.491923e-01
6.425971e-01
6.326241e-01
6.206178e-01
6.077645e-01
5.951782e-01
5.827613e-01
0.000000e+00
1.000000e+00
5.855438e-01
5.939385e-01
6.068974e-01
6.194502e-01
6.313759e-01
6.414457e-01
6.483127e-01
6.508820e-01
6.486840e-01
6.421183e-01
6.322684e-01
6.204045e-01
6.076101e-01
5.949660e-01
5.828098e-01
0.000000e+00
1.000000e+00
5.850915e-01
5.932928e-01
6.058417e-01
6.179957e-01
6.295388e-01
6.392852e-01
6.459313e-01
6.484189e-01
6.462641e-01
6.398948e-01
6.304446e-01
6.189801e-01
6.064784e-01
5.941722e-01
5.825112e-01
0.000000e+00
1.000000e+00
5.844194e-01
5.921945e-01
6.040713e-01
6.155667e-01
6.264844e-01
6.357005e-01
6.419834e-01
6.443351e-01
6.422972e-01
6.362510e-01
6.273721e-01
6.164519e-01
6.045934e-01
5.930593e-01
5.820213e-01
0.000000e+00
1.000000e+00
5.836124e-01
5.908043e-01
6.017719e-01
6.124122e-01
6.225185e-01
6.310465e-01
6.368535e-01
6.390179e-01
6.371329e-01
6.315421e-01
6.233259e-01
6.131203e-01
6.021826e-01
5.915828e-01
5.813063e-01
0.000000e+00
1.000000e+00
5.703321e-01
5.677023e-01
5.646626e-01
5.615825e-01
5.586646e-01
5.562178e-01
5.545767e-01
5.540079e-01
5.546147e-01
5.562899e-01
5.587618e-01
5.618051e-01
5.648793e-01
5.678801e-01
5.700059e-01
0.000000e+00
1.000000e+00
5.711750e-01
5.693449e-01
5.672451e-01
5.651193e-01
5.631068e-01
5.614209e-01
5.602916e-01
5.599022e-01
5.603250e-01
5.614816e-01
5.631845e-01
5.653783e-01
5.674962e-01
5.695533e-01
5.709657e-01
0.000000e+00
1.000000e+00
5.722566e-01
5.714146e-01
5.704973e-01
5.695717e-01
5.686960e-01
5.679631e-01
5.674723e-01
5.673025e-01
5.674852e-01
5.679883e-01
5.687249e-01
5.698429e-01
5.707412e-01
5.716439e-01
5.718336e-01
0.000000e+00
1.000000e+00
5.735206e-01
5.738877e-01
5.743759e-01
5.748816e-01
5.753624e-01
5.757687e-01
5.760448e-01
5.761447e-01
5.760497e-01
5.757733e-01
5.753545e-01
5.750563e-01
5.746799e-01
5.741604e-01
5.729940e-01
0.000000e+00
1.000000e+00
5.750198e-01
5.767076e-01
5.788042e-01
5.809451e-01
5.829760e-01
5.846839e-01
5.858353e-01
5.862439e-01
5.858374e-01
5.846862e-01
5.829603e-01
5.811320e-01
5.792312e-01
5.770214e-01
5.743824e-01
0.000000e+00
1.000000e+00
5.767024e-01
5.797543e-01
5.836079e-01
5.875208e-01
5.912334e-01
5.943565e-01
5.964638e-01
5.972143e-01
5.964757e-01
5.943820e-01
5.913686e-01
5.878869e-01
5.840504e-01
5.800801e-01
5.758301e-01
0.000000e+00
1.000000e+00
5.784407e-01
5.828785e-01
5.885564e-01
5.942944e-01
5.997375e-01
6.043150e-01
6.074051e-01
6.085106e-01
6.074429e-01
6.044206e-01
6.000623e-01
5.947239e-01
5.890009e-01
5.832385e-01
5.773401e-01
0.000000e+00
1.000000e+00
5.800878e-01
5.859089e-01
5.933679e-01
6.008784e-01
6.080029e-01
6.139969e-01
6.180488e-01
6.195111e-01
6.181412e-01
6.142402e-01
6.084805e-01
6.013770e-01
5.938167e-01
5.862988e-01
5.787391e-01
0.000000e+00
1.000000e+00
5.816472e-01
5.886452e-01
5.977355e-01
6.068538e-01
6.155049e-01
6.227885e-01
6.277236e-01
6.295269e-01
6.279068e-01
6.232141e-01
6.161095e-01
6.074093e-01
5.982245e-01
5.890618e-01
5.799587e-01
0.000000e+00
1.000000e+00
5.830491e-01
5.908928e-01
6.013756e-01
6.118364e-01
6.217643e-01
6.301323e-01
6.358194e-01
6.379274e-01
6.361128e-01
6.307326e-01
6.224913e-01
6.124028e-01
6.019867e-01
5.913628e-01
5.809695e-01
0.000000e+00
1.000000e+00
5.841059e-01
5.925301e-01
6.040775e-01
6.155368e-01
6.264193e-01
6.356042e-01
6.418638e-01
6.442079e-01
6.422394e-01
6.363126e-01
6.272427e-01
6.161386e-01
6.048100e-01
5.930885e-01
5.817203e-01
0.000000e+00
1.000000e+00
5.847652e-01
5.934952e-01
6.057203e-01
6.177935e-01
6.292667e-01
6.389589e-01
6.455718e-01
6.480546e-01
6.459738e-01
6.396863e-01
6.301205e-01
6.185479e-01
6.064666e-01
5.941766e-01
5.821941e-01
0.000000e+00
1.000000e+00
5.850231e-01
5.937931e-01
6.062855e-01
6.185801e-01
6.302660e-01
6.401379e-01
6.468743e-01
6.493977e-01
6.472562e-01
6.408258e-01
6.311274e-01
6.194682e-01
6.069800e-01
5.945700e-01
5.824807e-01
0.000000e+00
1.000000e+00
5.848853e-01
5.934928e-01
6.058515e-01
6.179896e-01
6.295226e-01
6.392628e-01
6.459091e-01
6.484010e-01
6.462589e-01
6.398931e-01
6.304099e-01
6.189586e-01
6.065035e-01
5.942422e-01
5.825082e-01
0.000000e+00
1.000000e+00
5.844380e-01
5.926429e-01
6.045319e-01
6.161820e-01
6.272522e-01
6.366010e-01
6.429792e-01
6.453730e-01
6.433113e-01
6.371749e-01
6.281559e-01
6.171194e-01
6.050705e-01
5.933376e-01
5.821616e-01
0.000000e+00
1.000000e+00
5.837666e-01
5.913773e-01
6.025146e-01
6.134179e-01
6.237766e-01
6.325202e-01
6.384792e-01