<?xml version="1.0"?>
<VTKFile type="StructuredGrid" version="0.1">
  <StructuredGrid WholeExtent="0 16 0 16 0 16">
    <Piece Extent="0 16 0 16 0 16">
      <PointData Scalars="temperature" Vectors="velocity">
        <DataArray type="Float32" Name="temperature" format="ascii">
1.000000e+00
5.730116e-01
5.730244e-01
5.730381e-01
5.730522e-01
5.730656e-01
5.730768e-01
5.730844e-01
5.730870e-01
5.730844e-01
5.730768e-01
5.730656e-01
5.730522e-01
5.730381e-01
5.730244e-01
5.730116e-01
0.000000e+00
1.000000e+00
5.730082e-01
5.730172e-01
5.730270e-01
5.730369e-01
5.730464e-01
5.730543e-01
5.730596e-01
5.730615e-01
5.730596e-01
5.730543e-01
5.730464e-01
5.730369e-01
5.730270e-01
5.730172e-01
5.730082e-01
0.000000e+00
1.000000e+00
5.728922e-01
5.727726e-01
5.726441e-01
5.725126e-01
5.723880e-01
5.722833e-01
5.722127e-01
5.721877e-01
5.722127e-01
5.722833e-01
5.723880e-01
5.725126e-01
5.726441e-01
5.727726e-01
5.728922e-01
0.000000e+00
1.000000e+00
5.726524e-01
5.722667e-01
5.718524e-01
5.714286e-01
5.710268e-01
5.706892e-01
5.704617e-01
5.703811e-01
5.704617e-01
5.706892e-01
5.710268e-01
5.714286e-01
5.718524e-01
5.722667e-01
5.726524e-01
0.000000e+00
1.000000e+00
5.722840e-01
5.714896e-01
5.706362e-01
5.697634e-01
5.689358e-01
5.682403e-01
5.677717e-01
5.676057e-01
5.677717e-01
5.682403e-01
5.689358e-01
5.697634e-01
5.706362e-01
5.714896e-01
5.722840e-01
0.000000e+00
1.000000e+00
5.717908e-01
5.704493e-01
5.690082e-01
5.675342e-01
5.661366e-01
5.649621e-01
5.641707e-01
5.638904e-01
5.641707e-01
5.649621e-01
5.661366e-01
5.675342e-01
5.690082e-01
5.704493e-01
5.717908e-01
0.000000e+00
1.000000e+00
5.711867e-01
5.691750e-01
5.670138e-01
5.648035e-01
5.627076e-01
5.609464e-01
5.597596e-01
5.593392e-01
5.597596e-01
5.609464e-01
5.627076e-01
5.648035e-01
5.670138e-01
5.691749e-01
5.711867e-01
0.000000e+00
1.000000e+00
5.704955e-01
5.677170e-01
5.647322e-01
5.616795e-01
5.587847e-01
5.563522e-01
5.547130e-01
5.541325e-01
5.547130e-01
5.563522e-01
5.587847e-01
5.616795e-01
5.647322e-01
5.677170e-01
5.704955e-01
0.000000e+00
1.000000e+00
5.697499e-01
5.661443e-01
5.622709e-01
5.583093e-01
5.545529e-01
5.513961e-01
5.492690e-01
5.485156e-01
5.492690e-01
5.513961e-01
5.545529e-01
5.583094e-01
5.622709e-01
5.661443e-01
5.697499e-01
0.000000e+00
1.000000e+00
5.689882e-01
5.645376e-01
5.597564e-01
5.548663e-01
5.502294e-01
5.463329e-01
5.437072e-01
5.427773e-01
5.437072e-01
5.463329e-01
5.502294e-01
5.548663e-01
5.597564e-01
5.645375e-01
5.689882e-01
0.000000e+00
1.000000e+00
5.682504e-01
5.629811e-01
5.573206e-01
5.515311e-01
5.460414e-01
5.414282e-01
5.383196e-01
5.372187e-01
5.383196e-01
5.414282e-01
5.460414e-01
5.515311e-01
5.573206e-01
5.629811e-01
5.682504e-01
0.000000e+00
1.000000e+00
5.675738e-01
5.615539e-01
5.550869e-01
5.484728e-01
5.422010e-01
5.369306e-01
5.333792e-01
5.321214e-01
5.333792e-01
5.369306e-01
5.422010e-01
5.484728e-01
5.550869e-01
5.615539e-01
5.675737e-01
0.000000e+00
1.000000e+00
5.669895e-01
5.603213e-01
5.531580e-01
5.458316e-01
5.388845e-01
5.330466e-01
5.291128e-01
5.277195e-01
5.291128e-01
5.330466e-01
5.388845e-01
5.458316e-01
5.531580e-01
5.603213e-01
5.669894e-01
0.000000e+00
1.000000e+00
5.665197e-01
5.593304e-01
5.516072e-01
5.437081e-01
5.362180e-01
5.299238e-01
5.256825e-01
5.241803e-01
5.256825e-01
5.299238e-01
5.362180e-01
5.437081e-01
5.516072e-01
5.593303e-01
5.665196e-01
0.000000e+00
1.000000e+00
5.661768e-01
5.586071e-01
5.504753e-01
5.421584e-01
5.342720e-01
5.276448e-01
5.231791e-01
5.215975e-01
5.231791e-01
5.276448e-01
5.342720e-01
5.421584e-01
5.504753e-01
5.586071e-01
5.661768e-01
0.000000e+00
1.000000e+00
5.659640e-01
5.581582e-01
5.497727e-01
5.411963e-01
5.330639e-01
5.262300e-01
5.216250e-01
5.199940e-01
5.216250e-01
5.262300e-01
5.330639e-01
5.411963e-01
5.497727e-01
5.581582e-01
5.659639e-01
0.000000e+00
1.000000e+00
5.658763e-01
5.579733e-01
5.494834e-01
5.408002e-01
5.325665e-01
5.256474e-01
5.209850e-01
5.193338e-01
5.209850e-01
5.256474e-01
5.325665e-01
5.408002e-01
5.494834e-01
5.579733e-01
5.658763e-01
0.000000e+00
1.000000e+00
5.730149e-01
5.730313e-01
5.730490e-01
5.730671e-01
5.730843e-01
5.730987e-01
5.731084e-01
5.731118e-01
5.731084e-01
5.730987e-01
5.730843e-01
5.730671e-01
5.730490e-01
5.730313e-01
5.730149e-01
0.000000e+00
1.000000e+00
5.729027e-01
5.727946e-01
5.726786e-01
5.725599e-01
5.724474e-01
5.723529e-01
5.722891e-01
5.722666e-01
5.722891e-01
5.723529e-01
5.724474e-01
5.725599e-01
5.726786e-01
5.727946e-01
5.729027e-01
0.000000e+00
1.000000e+00
5.726654e-01
5.722942e-01
5.718954e-01
5.714875e-01
5.711008e-01
5.707758e-01
5.705568e-01
5.704792e-01
5.705568e-01
5.707758e-01
5.711008e-01
5.714875e-01
5.718954e-01
5.722942e-01
5.726654e-01
0.000000e+00
1.000000e+00
5.722935e-01
5.715098e-01
5.706678e-01
5.698067e-01
5.689901e-01
5.683039e-01
5.678415e-01
5.676778e-01
5.678415e-01
5.683039e-01
5.689901e-01
5.698067e-01
5.706678e-01
5.715098e-01
5.722935e-01
0.000000e+00
1.000000e+00
5.717855e-01
5.704381e-01
5.689906e-01
5.675102e-01
5.661064e-01
5.649268e-01
5.641319e-01
5.638503e-01
5.641319e-01
5.649268e-01
5.661064e-01
5.675102e-01
5.689906e-01
5.704381e-01
5.717855e-01
0.000000e+00
1.000000e+00
5.711499e-01
5.690974e-01
5.668925e-01
5.646374e-01
5.624990e-01
5.607021e-01
5.594912e-01
5.590624e-01
5.594912e-01
5.607021e-01
5.624990e-01
5.646374e-01
5.668925e-01
5.690974e-01
5.711499e-01
0.000000e+00
1.000000e+00
5.704072e-01
5.675306e-01
5.644405e-01
5.612800e-01
5.582831e-01
5.557648e-01
5.540678e-01
5.534667e-01
5.540678e-01
5.557648e-01
5.582831e-01
5.612800e-01
5.644405e-01
5.675306e-01
5.704071e-01
0.000000e+00
1.000000e+00
5.695887e-01
5.658043e-01
5.617388e-01
5.575807e-01
5.536379e-01
5.503246e-01
5.480920e-01
5.473012e-01
5.480920e-01
5.503246e-01
5.536379e-01
5.575807e-01
5.617388e-01
5.658043e-01
5.695887e-01
0.000000e+00
1.000000e+00
5.687353e-01
5.640040e-01
5.589213e-01
5.537230e-01
5.487937e-01
5.446515e-01
5.418602e-01
5.408717e-01
5.418602e-01
5.446515e-01
5.487937e-01
5.537230e-01
5.589213e-01
5.640040e-01
5.687353e-01
0.000000e+00
1.000000e+00
5.678924e-01
5.622260e-01
5.561387e-01
5.499129e-01
5.440094e-01
5.390485e-01
5.357056e-01
5.345216e-01
5.357056e-01
5.390485e-01
5.440094e-01
5.499129e-01
5.561387e-01
5.622259e-01
5.678924e-01
0.000000e+00
1.000000e+00
5.671055e-01
5.605662e-01
5.535412e-01
5.463563e-01
5.395434e-01
5.338182e-01
5.299603e-01
5.285940e-01
5.299603e-01
5.338182e-01
5.395434e-01
5.463563e-01
5.535412e-01
5.605662e-01
5.671055e-01
0.000000e+00
1.000000e+00
5.664150e-01
5.591097e-01
5.512618e-01
5.432353e-01
5.356243e-01
5.292284e-01
5.249186e-01
5.233923e-01
5.249186e-01
5.292284e-01
5.356243e-01
5.432353e-01
5.512618e-01
5.591097e-01
5.664150e-01
0.000000e+00
1.000000e+00
5.658519e-01
5.579219e-01
5.494029e-01
5.406900e-01
5.324281e-01
5.254853e-01
5.208070e-01
5.191501e-01
5.208070e-01
5.254853e-01
5.324281e-01
5.406900e-01
5.494029e-01
5.579218e-01
5.658519e-01
0.000000e+00
1.000000e+00
5.654356e-01
5.570436e-01
5.480284e-01
5.388080e-01
5.300649e-01
5.227177e-01
5.177669e-01
5.160135e-01
5.177669e-01
5.227177e-01
5.300649e-01
5.388080e-01
5.480284e-01
5.570436e-01
5.654356e-01
0.000000e+00
1.000000e+00
5.651734e-01
5.564905e-01
5.471629e-01
5.376229e-01
5.285767e-01
5.209749e-01
5.158525e-01
5.140383e-01
5.158525e-01
5.209749e-01
5.285767e-01
5.376229e-01
5.471629e-01
5.564905e-01
5.651734e-01
0.000000e+00
1.000000e+00
5.650621e-01
5.562558e-01
5.467956e-01
5.371199e-01
5.279452e-01
5.202353e-01
5.150400e-01
5.132000e-01
5.150400e-01
5.202353e-01
5.279452e-01
5.371199e-01
5.467956e-01
5.562558e-01
5.650621e-01
0.000000e+00
1.000000e+00
5.650902e-01
5.563151e-01
5.468884e-01
5.372470e-01
5.281048e-01
5.204222e-01
5.152453e-01
5.134119e-01
5.152453e-01
5.204222e-01
5.281048e-01
5.372470e-01
5.468884e-01
5.563151e-01
5.650902e-01
0.000000e+00
1.000000e+00
5.731308e-01
5.732759e-01
5.734317e-01
5.735911e-01
5.737423e-01
5.738693e-01
5.739549e-01
5.739852e-01
5.739549e-01
5.738693e-01
5.737423e-01
5.735911e-01
5.734317e-01
5.732759e-01
5.731308e-01
0.000000e+00
1.000000e+00
5.729060e-01
5.728017e-01
5.726897e-01
5.725751e-01
5.724665e-01
5.723752e-01
5.723137e-01
5.722919e-01
5.723137e-01
5.723752e-01
5.724665e-01
5.725751e-01
5.726897e-01
5.728017e-01
5.729060e-01
0.000000e+00
1.000000e+00
5.725422e-01
5.720343e-01
5.714886e-01
5.709306e-01
5.704014e-01
5.699568e-01
5.696571e-01
5.695510e-01
5.696571e-01
5.699568e-01
5.704014e-01
5.709306e-01
5.714886e-01
5.720343e-01
5.725422e-01
0.000000e+00
1.000000e+00
5.720317e-01
5.709574e-01
5.698033e-01
5.686229e-01
5.675037e-01
5.665632e-01
5.659294e-01
5.657049e-01
5.659294e-01
5.665632e-01
5.675037e-01
5.686229e-01
5.698033e-01
5.709574e-01
5.720317e-01
0.000000e+00
1.000000e+00
5.713765e-01
5.695753e-01
5.676404e-01
5.656615e-01
5.637850e-01
5.622081e-01
5.611455e-01
5.607692e-01
5.611455e-01
5.622081e-01
5.637850e-01
5.656615e-01
5.676405e-01
5.695753e-01
5.713765e-01
0.000000e+00
1.000000e+00
5.705910e-01
5.679184e-01
5.650474e-01
5.621109e-01
5.593265e-01
5.569867e-01
5.554100e-01
5.548516e-01
5.554100e-01
5.569867e-01
5.593265e-01
5.621109e-01
5.650474e-01
5.679184e-01
5.705910e-01
0.000000e+00
1.000000e+00
5.697029e-01
5.660450e-01
5.621155e-01
5.580966e-01
5.542856e-01
5.510832e-01
5.489253e-01
5.481610e-01
5.489253e-01
5.510832e-01
5.542857e-01
5.580966e-01
5.621155e-01
5.660450e-01
5.697029e-01
0.000000e+00
1.000000e+00
5.687524e-01
5.640401e-01
5.589778e-01
5.538003e-01
5.488908e-01
5.447652e-01
5.419851e-01
5.410005e-01
5.419851e-01
5.447652e-01
5.488908e-01
5.538003e-01
5.589778e-01
5.640401e-01
5.687524e-01
0.000000e+00
1.000000e+00
5.677891e-01
5.620081e-01
5.557977e-01
5.494460e-01
5.434231e-01
5.383618e-01
5.349513e-01
5.337434e-01
5.349513e-01
5.383618e-01
5.434231e-01
5.494460e-01
5.557977e-01
5.620080e-01
5.677891e-01
0.000000e+00
1.000000e+00
5.668664e-01
5.600619e-01
5.527519e-01
5.452756e-01
5.381863e-01
5.322289e-01
5.282146e-01
5.267928e-01
5.282146e-01
5.322289e-01
5.381863e-01
5.452756e-01
5.527519e-01
5.600618e-01
5.668664e-01
0.000000e+00
1.000000e+00
5.660356e-01
5.583093e-01
5.500093e-01
5.415203e-01
5.334707e-01
5.267064e-01
5.221483e-01
5.205339e-01
5.221483e-01
5.267064e-01
5.334707e-01
5.415203e-01
5.500093e-01
5.583093e-01
5.660356e-01
0.000000e+00
1.000000e+00
5.653394e-01
5.568408e-01
5.477110e-01
5.383734e-01
5.295191e-01
5.220786e-01
5.170648e-01
5.152891e-01
5.170648e-01
5.220786e-01
5.295191e-01
5.383734e-01
5.477110e-01
5.568408e-01
5.653394e-01
0.000000e+00
1.000000e+00
5.648079e-01
5.557195e-01
5.459563e-01
5.359708e-01
5.265022e-01
5.185453e-01
5.131837e-01
5.112847e-01
5.131837e-01
5.185453e-01
5.265022e-01
5.359708e-01
5.459563e-01
5.557195e-01
5.648079e-01
0.000000e+00
1.000000e+00
5.644564e-01
5.549781e-01
5.447959e-01
5.343819e-01
5.245070e-01
5.162088e-01
5.106171e-01
5.086367e-01
5.106171e-01
5.162088e-01
5.245070e-01
5.343819e-01
5.447959e-01
5.549781e-01
5.644564e-01
0.000000e+00
1.000000e+00
5.642861e-01
5.546189e-01
5.442337e-01
5.336121e-01
5.235404e-01
5.150768e-01
5.093736e-01
5.073537e-01
5.093736e-01
5.150768e-01
5.235404e-01
5.336121e-01
5.442337e-01
5.546188e-01
5.642861e-01
0.000000e+00
1.000000e+00
5.642864e-01
5.546195e-01
5.442346e-01
5.336134e-01
5.235420e-01
5.150787e-01
5.093757e-01
5.073559e-01
5.093757e-01
5.150787e-01
5.235421e-01
5.336134e-01
5.442346e-01
5.546194e-01
5.642863e-01
0.000000e+00
1.000000e+00
5.644382e-01
5.549397e-01
5.447359e-01
5.342997e-01
5.244038e-01
5.160879e-01
5.104843e-01
5.084997e-01
5.104843e-01
5.160879e-01
5.244038e-01
5.342997e-01
5.447359e-01
5.549397e-01
5.644382e-01
0.000000e+00
1.000000e+00
5.733711e-01
5.737827e-01
5.742250e-01
5.746773e-01
5.751061e-01
5.754665e-01
5.757094e-01
5.757954e-01
5.757094e-01
5.754665e-01
5.751061e-01
5.746773e-01
5.742250e-01
5.737827e-01
5.733711e-01
0.000000e+00
1.000000e+00
5.730339e-01
5.730714e-01
5.731118e-01
5.731530e-01
5.731922e-01
5.732251e-01
5.732472e-01
5.732551e-01
5.732472e-01
5.732251e-01
5.731922e-01
5.731530e-01
5.731118e-01
5.730714e-01
5.730339e-01
0.000000e+00
1.000000e+00
5.725426e-01
5.720351e-01
5.714899e-01
5.709323e-01
5.704036e-01
5.699593e-01
5.696599e-01
5.695539e-01
5.696599e-01
5.699593e-01
5.704036e-01
5.709323e-01
5.714899e-01
5.720351e-01
5.725426e-01
0.000000e+00
1.000000e+00
5.718916e-01
5.706619e-01
5.693409e-01
5.679898e-01
5.667087e-01
5.656321e-01
5.649066e-01
5.646497e-01
5.649066e-01
5.656321e-01
5.667087e-01
5.679898e-01
5.693409e-01
5.706619e-01
5.718916e-01
0.000000e+00
1.000000e+00
5.710870e-01
5.689647e-01
5.666848e-01
5.643530e-01
5.621419e-01
5.602839e-01
5.590318e-01
5.585884e-01
5.590318e-01
5.602839e-01
5.621419e-01
5.643530e-01
5.666848e-01
5.689647e-01
5.710870e-01
0.000000e+00
1.000000e+00
5.701493e-01
5.669867e-01
5.635893e-01
5.601145e-01
5.568196e-01
5.540508e-01
5.521851e-01
5.515243e-01
5.521851e-01
5.540508e-01
5.568196e-01
5.601145e-01
5.635893e-01
5.669867e-01
5.701493e-01
0.000000e+00
1.000000e+00
5.691144e-01
5.648036e-01
5.601727e-01
5.554365e-01
5.509454e-01
5.471713e-01
5.446282e-01
5.437275e-01
5.446282e-01
5.471713e-01
5.509454e-01
5.554365e-01
5.601728e-01
5.648036e-01
5.691144e-01
0.000000e+00
1.000000e+00
5.680319e-01
5.625202e-01
5.565992e-01
5.505435e-01
5.448012e-01
5.399757e-01
5.367241e-01
5.355725e-01
5.367241e-01
5.399757e-01
5.448012e-01
5.505435e-01
5.565992e-01
5.625202e-01
5.680319e-01
0.000000e+00
1.000000e+00
5.669609e-01
5.602611e-01
5.530638e-01
5.457026e-01
5.387225e-01
5.328568e-01
5.289043e-01
5.275044e-01
5.289043e-01
5.328568e-01
5.387225e-01
5.457026e-01
5.530638e-01
5.602611e-01
5.669609e-01
0.000000e+00
1.000000e+00
5.659632e-01
5.581565e-01
5.497701e-01
5.411928e-01
5.330595e-01
5.262247e-01
5.216192e-01
5.199881e-01
5.216192e-01
5.262247e-01
5.330595e-01
5.411928e-01
5.497701e-01
5.581565e-01
5.659632e-01
0.000000e+00
1.000000e+00
5.650953e-01
5.563258e-01
5.469051e-01
5.372700e-01
5.281336e-01
5.204559e-01
5.152824e-01
5.134501e-01
5.152824e-01
5.204559e-01
5.281336e-01
5.372700e-01
5.469051e-01
5.563258e-01
5.650953e-01
0.000000e+00
1.000000e+00
5.644020e-01
5.548633e-01
5.446163e-01
5.341360e-01
5.241982e-01
5.158471e-01
5.102198e-01
5.082268e-01
5.102198e-01
5.158471e-01
5.241982e-01
5.341360e-01
5.446163e-01
5.548633e-01
5.644020e-01
0.000000e+00
1.000000e+00
5.639113e-01
5.538283e-01
5.429965e-01
5.319181e-01
5.214132e-01
5.125855e-01
5.066370e-01
5.045303e-01
5.066370e-01
5.125855e-01
5.214132e-01
5.319181e-01
5.429965e-01
5.538283e-01
5.639113e-01
0.000000e+00
1.000000e+00
5.636335e-01
5.532424e-01
5.420796e-01
5.306626e-01
5.198367e-01
5.107392e-01
5.046090e-01
5.024379e-01
5.046090e-01
5.107392e-01
5.198367e-01
5.306626e-01
5.420796e-01
5.532424e-01
5.636335e-01
0.000000e+00
1.000000e+00
5.635627e-01
5.530929e-01
5.418456e-01
5.303422e-01
5.194344e-01
5.102681e-01
5.040914e-01
5.019039e-01
5.040914e-01
5.102681e-01
5.194344e-01
5.303422e-01
5.418456e-01
5.530928e-01
5.635626e-01
0.000000e+00
1.000000e+00
5.636799e-01
5.533401e-01
5.422325e-01
5.308720e-01
5.200996e-01
5.110472e-01
5.049472e-01
5.027869e-01
5.049473e-01
5.110472e-01
5.200996e-01
5.308720e-01
5.422325e-01
5.533401e-01
5.636799e-01
0.000000e+00
1.000000e+00
5.639582e-01
5.539272e-01
5.431512e-01
5.321300e-01
5.216793e-01
5.128972e-01
5.069794e-01
5.048835e-01
5.069794e-01
5.128972e-01
5.216793e-01
5.321300e-01
5.431513e-01
5.539272e-01
5.639582e-01
0.000000e+00
1.000000e+00
5.737411e-01
5.745633e-01
5.754465e-01
5.763498e-01
5.772064e-01
5.779262e-01
5.784112e-01
5.785830e-01
5.784112e-01
5.779262e-01
5.772064e-01
5.763498e-01
5.754465e-01
5.745633e-01
5.737411e-01
0.000000e+00
1.000000e+00
5.732959e-01
5.736242e-01
5.739768e-01
5.743375e-01
5.746795e-01
5.749669e-01
5.751605e-01
5.752291e-01
5.751605e-01
5.749669e-01
5.746795e-01
5.743375e-01
5.739768e-01
5.736242e-01
5.732959e-01
0.000000e+00
1.000000e+00
5.726813e-01
5.723278e-01
5.719480e-01
5.715596e-01
5.711913e-01
5.708817e-01
5.706732e-01
5.705993e-01
5.706732e-01
5.708817e-01
5.711913e-01
5.715596e-01
5.719480e-01
5.723278e-01
5.726813e-01
0.000000e+00
1.000000e+00
5.718940e-01
5.706670e-01
5.693488e-01
5.680007e-01
5.667223e-01
5.656480e-01
5.649242e-01
5.646678e-01
5.649242e-01
5.656480e-01
5.667223e-01
5.680007e-01
5.693488e-01
5.706670e-01
5.718940e-01
0.000000e+00
1.000000e+00
5.709441e-01
5.686634e-01
5.662132e-01
5.637073e-01
5.613311e-01
5.593342e-01
5.579887e-01
5.575121e-01
5.579887e-01
5.593342e-01
5.613311e-01
5.637073e-01
5.662132e-01
5.686634e-01
5.709441e-01
0.000000e+00
1.000000e+00
5.698588e-01
5.663739e-01
5.626302e-01
5.588012e-01
5.551705e-01
5.521195e-01
5.500636e-01
5.493354e-01
5.500636e-01
5.521195e-01
5.551705e-01
5.588012e-01
5.626302e-01
5.663739e-01
5.698588e-01
0.000000e+00
1.000000e+00
5.686822e-01
5.638920e-01
5.587461e-01
5.534831e-01
5.484925e-01
5.442987e-01
5.414728e-01
5.404719e-01
5.414728e-01
5.442987e-01
5.484925e-01
5.534831e-01
5.587461e-01
5.638920e-01
5.686822e-01
0.000000e+00
1.000000e+00
5.674739e-01
5.613433e-01
5.547573e-01
5.480215e-01
5.416343e-01
5.362669e-01
5.326501e-01
5.313692e-01
5.326502e-01
5.362669e-01
5.416343e-01
5.480215e-01
5.547573e-01
5.613432e-01
5.674739e-01
0.000000e+00
1.000000e+00
5.663026e-01
5.588725e-01
5.508907e-01
5.427271e-01
5.349861e-01
5.284811e-01
5.240977e-01
5.225453e-01
5.240977e-01
5.284811e-01
5.349861e-01
5.427271e-01
5.508907e-01
5.588725e-01
5.663026e-01
0.000000e+00
1.000000e+00
5.652381e-01
5.566270e-01
5.473764e-01
5.379153e-01
5.289439e-01
5.214049e-01
5.163248e-01
5.145256e-01
5.163248e-01
5.214049e-01
5.289439e-01
5.379153e-01
5.473764e-01
5.566270e-01
5.652381e-01
0.000000e+00
1.000000e+00
5.643419e-01
5.547366e-01
5.444179e-01
5.338644e-01
5.238572e-01
5.154477e-01
5.097811e-01
5.077742e-01
5.097811e-01
5.154478e-01
5.238572e-01
5.338644e-01
5.444179e-01
5.547366e-01
5.643419e-01
0.000000e+00
1.000000e+00
5.636598e-01
5.532978e-01
5.421663e-01
5.307813e-01
5.199857e-01
5.109138e-01
5.048008e-01
5.026357e-01
5.048008e-01
5.109138e-01
5.199857e-01
5.307813e-01
5.421663e-01
5.532978e-01
5.636598e-01
0.000000e+00
1.000000e+00
5.632172e-01
5.523641e-01
5.407050e-01
5.287806e-01
5.174734e-01
5.079716e-01
5.015688e-01
4.993012e-01
5.015688e-01
5.079716e-01
5.174734e-01
5.287806e-01
5.407051e-01
5.523641e-01
5.632172e-01
0.000000e+00
1.000000e+00
5.630183e-01
5.519446e-01
5.400486e-01
5.278817e-01
5.163447e-01
5.066497e-01
5.001168e-01
4.978031e-01
5.001168e-01
5.066497e-01
5.163447e-01
5.278817e-01
5.400486e-01
5.519446e-01
5.630183e-01
0.000000e+00
1.000000e+00
5.630493e-01
5.520100e-01
5.401509e-01
5.280218e-01
5.165206e-01
5.068557e-01
5.003431e-01
4.980365e-01
5.003431e-01
5.068557e-01
5.165206e-01
5.280218e-01
5.401509e-01
5.520100e-01
5.630493e-01
0.000000e+00
1.000000e+00
5.632829e-01
5.525028e-01
5.409221e-01
5.290777e-01
5.178465e-01
5.084086e-01
5.020488e-01
4.997964e-01
5.020488e-01
5.084086e-01
5.178466e-01
5.290778e-01
5.409221e-01
5.525028e-01
5.632829e-01
0.000000e+00
1.000000e+00
5.636843e-01
5.533493e-01
5.422469e-01
5.308918e-01
5.201245e-01
5.110763e-01
5.049792e-01
5.028198e-01
5.049792e-01
5.110763e-01
5.201245e-01
5.308918e-01
5.422469e-01
5.533493e-01
5.636842e-01
0.000000e+00
1.000000e+00
5.742377e-01
5.756108e-01
5.770858e-01
5.785945e-01
5.800250e-01
5.812271e-01
5.820372e-01
5.823241e-01
5.820372e-01
5.812271e-01
5.800250e-01
5.785945e-01
5.770858e-01
5.756108e-01
5.742377e-01
0.000000e+00
1.000000e+00
5.736932e-01
5.744622e-01
5.752884e-01
5.761333e-01
5.769345e-01
5.776078e-01
5.780615e-01
5.782222e-01
5.780615e-01
5.776078e-01
5.769345e-01
5.761333e-01
5.752884e-01
5.744622e-01
5.736932e-01
0.000000e+00
1.000000e+00
5.729649e-01
5.729259e-01
5.728840e-01
5.728412e-01
5.728006e-01
5.727665e-01
5.727435e-01
5.727353e-01
5.727435e-01
5.727665e-01
5.728006e-01
5.728412e-01
5.728840e-01
5.729259e-01
5.729649e-01
0.000000e+00
1.000000e+00
5.720515e-01
5.709993e-01
5.698689e-01
5.687128e-01
5.676165e-01
5.666953e-01
5.660745e-01
5.658546e-01
5.660745e-01
5.666953e-01
5.676165e-01
5.687128e-01
5.698689e-01
5.709993e-01
5.720515e-01
0.000000e+00
1.000000e+00
5.709677e-01
5.687131e-01
5.662910e-01
5.638138e-01
5.614648e-01
5.594909e-01
5.581608e-01
5.576897e-01
5.581608e-01
5.594909e-01
5.614648e-01
5.638138e-01
5.662910e-01
5.687131e-01
5.709677e-01
0.000000e+00
1.000000e+00
5.697468e-01
5.661377e-01
5.622606e-01
5.582952e-01
5.545351e-01
5.513753e-01
5.492461e-01
5.484920e-01
5.492461e-01
5.513753e-01
5.545351e-01
5.582952e-01
5.622606e-01
5.661377e-01
5.697468e-01
0.000000e+00
1.000000e+00
5.684415e-01
5.633843e-01
5.579515e-01
5.523951e-01
5.471263e-01
5.426987e-01
5.397152e-01
5.386585e-01
5.397152e-01
5.426987e-01
5.471263e-01
5.523951e-01
5.579515e-01
5.633843e-01
5.684415e-01
0.000000e+00
1.000000e+00
5.671206e-01
5.605980e-01
5.535910e-01
5.464246e-01
5.396290e-01
5.339185e-01
5.300705e-01
5.287077e-01
5.300705e-01
5.339185e-01
5.396291e-01
5.464246e-01
5.535910e-01
5.605980e-01
5.671206e-01
0.000000e+00
1.000000e+00
5.658620e-01
5.579432e-01
5.494362e-01
5.407356e-01
5.324854e-01
5.255525e-01
5.208807e-01
5.192262e-01
5.208807e-01
5.255525e-01
5.324854e-01
5.407356e-01
5.494362e-01
5.579432e-01
5.658620e-01
0.000000e+00
1.000000e+00
5.647428e-01
5.555822e-01
5.457413e-01
5.356765e-01
5.261326e-01
5.181125e-01
5.127083e-01
5.107942e-01
5.127083e-01
5.181125e-01
5.261326e-01
5.356765e-01
5.457413e-01
5.555822e-01
5.647428e-01
0.000000e+00
1.000000e+00
5.638286e-01
5.536537e-01
5.427233e-01
5.315441e-01
5.209435e-01
5.120355e-01
5.060329e-01
5.039070e-01
5.060329e-01
5.120355e-01
5.209436e-01
5.315441e-01
5.427233e-01
5.536537e-01
5.638285e-01
0.000000e+00
1.000000e+00
5.631654e-01
5.522548e-01
5.405340e-01
5.285463e-01
5.171793e-01
5.076271e-01
5.011904e-01
4.989108e-01
5.011904e-01
5.076271e-01
5.171793e-01
5.285464e-01
5.405340e-01
5.522548e-01
5.631653e-01
0.000000e+00
1.000000e+00
5.627750e-01
5.514314e-01
5.392454e-01
5.267819e-01
5.149637e-01
5.050324e-01
4.983402e-01
4.959701e-01
4.983402e-01
5.050324e-01
5.149637e-01
5.267819e-01
5.392454e-01
5.514314e-01
5.627750e-01
0.000000e+00
1.000000e+00
5.626555e-01
5.511792e-01
5.388507e-01
5.262416e-01
5.142851e-01
5.042377e-01
4.974673e-01
4.950695e-01
4.974673e-01
5.042377e-01
5.142851e-01
5.262416e-01
5.388507e-01
5.511792e-01
5.626554e-01
0.000000e+00
1.000000e+00
5.627849e-01
5.514522e-01
5.392779e-01
5.268265e-01
5.150196e-01
5.050979e-01
4.984122e-01
4.960443e-01
4.984122e-01
5.050979e-01
5.150196e-01
5.268265e-01
5.392779e-01
5.514522e-01
5.627848e-01
0.000000e+00
1.000000e+00
5.631278e-01
5.521756e-01
5.404101e-01
5.283767e-01
5.169662e-01
5.073776e-01
5.009164e-01
4.986280e-01
5.009164e-01
5.073776e-01
5.169662e-01
5.283767e-01
5.404101e-01
5.521756e-01
5.631278e-01
0.000000e+00
1.000000e+00
5.636421e-01
5.532603e-01
5.421076e-01
5.307011e-01
5.198850e-01
5.107958e-01
5.046711e-01
5.025020e-01
5.046711e-01
5.107958e-01
5.198850e-01
5.307011e-01
5.421076e-01
5.532603e-01
5.636420e-01
0.000000e+00
1.000000e+00
5.748477e-01
5.768975e-01
5.790996e-01
5.813518e-01
5.834873e-01
5.852820e-01
5.864912e-01
5.869195e-01
5.864912e-01
5.852820e-01
5.834873e-01
5.813518e-01
5.790996e-01
5.768975e-01
5.748477e-01
0.000000e+00
1.000000e+00
5.742162e-01
5.755655e-01
5.770149e-01
5.784973e-01
5.799030e-01
5.810843e-01
5.818803e-01
5.821622e-01
5.818803e-01
5.810843e-01
5.799030e-01
5.784973e-01
5.770149e-01
5.755655e-01
5.742162e-01
0.000000e+00
1.000000e+00
5.733884e-01
5.738193e-01
5.742822e-01
5.747556e-01
5.752045e-01
5.755817e-01
5.758359e-01
5.759259e-01
5.758359e-01
5.755817e-01
5.752045e-01
5.747556e-01
5.742822e-01
5.738193e-01
5.733884e-01
0.000000e+00
1.000000e+00
5.723654e-01
5.716613e-01
5.709050e-01
5.701314e-01
5.693979e-01
5.687815e-01
5.683662e-01
5.682191e-01
5.683662e-01
5.687815e-01
5.693979e-01
5.701314e-01
5.709050e-01
5.716613e-01
5.723654e-01
0.000000e+00
1.000000e+00
5.711658e-01
5.691310e-01
5.669451e-01
5.647094e-01
5.625894e-01
5.608079e-01
5.596075e-01
5.591823e-01
5.596075e-01
5.608079e-01
5.625894e-01
5.647094e-01
5.669451e-01
5.691310e-01
5.711658e-01
0.000000e+00
1.000000e+00
5.698292e-01
5.663114e-01
5.625324e-01
5.586674e-01
5.550025e-01
5.519227e-01
5.498474e-01
5.491124e-01
5.498474e-01
5.519227e-01
5.550025e-01
5.586674e-01
5.625324e-01
5.663114e-01
5.698291e-01
0.000000e+00
1.000000e+00
5.684156e-01
5.633297e-01
5.578661e-01
5.522781e-01
5.469794e-01
5.425266e-01
5.395262e-01
5.384636e-01
5.395262e-01
5.425266e-01
5.469794e-01
5.522781e-01
5.578661e-01
5.633297e-01
5.684156e-01
0.000000e+00
1.000000e+00
5.670024e-01
5.603486e-01
5.532008e-01
5.458902e-01
5.389580e-01
5.331326e-01
5.292073e-01
5.278170e-01
5.292073e-01
5.331326e-01
5.389580e-01
5.458902e-01
5.532008e-01
5.603486e-01
5.670024e-01
0.000000e+00
1.000000e+00
5.656752e-01
5.575490e-01
5.488193e-01
5.398910e-01
5.314248e-01
5.243103e-01
5.195163e-01
5.178184e-01
5.195163e-01
5.243103e-01
5.314248e-01
5.398910e-01
5.488194e-01
5.575490e-01
5.656752e-01
0.000000e+00
1.000000e+00
5.645169e-01
5.551057e-01
5.449957e-01
5.346555e-01
5.248505e-01
5.166111e-01
5.110590e-01
5.090926e-01
5.110590e-01
5.166111e-01
5.248505e-01
5.346555e-01
5.449957e-01
5.551057e-01
5.645169e-01
0.000000e+00
1.000000e+00
5.635962e-01
5.531635e-01
5.419561e-01
5.304936e-01
5.196245e-01
5.104907e-01
5.043360e-01
5.021562e-01
5.043360e-01
5.104907e-01
5.196245e-01
5.304936e-01
5.419562e-01
5.531635e-01
5.635961e-01
0.000000e+00
1.000000e+00
5.629583e-01
5.518179e-01
5.398503e-01
5.276102e-01
5.160038e-01
5.062504e-01
4.996782e-01
4.973506e-01
4.996782e-01
5.062504e-01
5.160038e-01
5.276102e-01
5.398503e-01
5.518179e-01
5.629582e-01
0.000000e+00
1.000000e+00
5.626211e-01
5.511067e-01
5.387372e-01
5.260861e-01
5.140900e-01
5.040092e-01
4.972163e-01
4.948104e-01
4.972163e-01
5.040092e-01
5.140900e-01
5.260862e-01
5.387372e-01
5.511067e-01
5.626211e-01
0.000000e+00
1.000000e+00
5.625763e-01
5.510123e-01
5.385894e-01
5.258838e-01
5.138359e-01
5.037116e-01
4.968894e-01
4.944732e-01
4.968894e-01
5.037116e-01
5.138359e-01
5.258838e-01
5.385894e-01
5.510122e-01
5.625763e-01
0.000000e+00
1.000000e+00
5.627947e-01
5.514730e-01
5.393105e-01
5.268711e-01
5.150756e-01
5.051635e-01
4.984843e-01
4.961187e-01
4.984843e-01
5.051635e-01
5.150757e-01
5.268711e-01
5.393105e-01
5.514730e-01
5.627947e-01
0.000000e+00
1.000000e+00
5.632337e-01
5.523989e-01
5.407596e-01
5.288552e-01
5.175671e-01
5.080813e-01
5.016894e-01
4.994256e-01
5.016894e-01
5.080813e-01
5.175671e-01
5.288552e-01
5.407596e-01
5.523989e-01
5.632337e-01
0.000000e+00
1.000000e+00
5.638446e-01
5.536875e-01
5.427762e-01
5.316164e-01
5.210344e-01
5.121419e-01
5.061498e-01
5.040276e-01
5.061498e-01
5.121419e-01
5.210344e-01
5.316164e-01
5.427762e-01
5.536875e-01
5.638445e-01
0.000000e+00
1.000000e+00
5.755478e-01
5.783742e-01
5.814106e-01
5.845161e-01
5.874608e-01
5.899354e-01
5.916029e-01
5.921935e-01
5.916029e-01
5.899354e-01
5.874608e-01
5.845161e-01
5.814106e-01
5.783742e-01
5.755478e-01
0.000000e+00
1.000000e+00
5.748440e-01
5.768897e-01
5.790873e-01
5.813349e-01
5.834662e-01
5.852572e-01
5.864641e-01
5.868915e-01
5.864641e-01
5.852572e-01
5.834662e-01
5.813349e-01
5.790873e-01
5.768897e-01
5.748440e-01
0.000000e+00
1.000000e+00
5.739345e-01
5.749713e-01
5.760850e-01
5.772241e-01
5.783043e-01
5.792119e-01
5.798236e-01
5.800402e-01
5.798236e-01
5.792119e-01
5.783043e-01
5.772241e-01
5.760850e-01
5.749713e-01
5.739345e-01
0.000000e+00
1.000000e+00
5.728229e-01
5.726264e-01
5.724154e-01
5.721995e-01
5.719948e-01
5.718228e-01
5.717069e-01
5.716658e-01
5.717069e-01
5.718228e-01
5.719948e-01
5.721995e-01
5.724154e-01
5.726264e-01
5.728229e-01
0.000000e+00
1.000000e+00
5.715316e-01
5.699026e-01
5.681526e-01
5.663628e-01
5.646656e-01
5.632394e-01
5.622783e-01
5.619380e-01
5.622783e-01
5.632394e-01
5.646656e-01
5.663628e-01
5.681526e-01
5.699026e-01
5.715316e-01
0.000000e+00
1.000000e+00
5.701053e-01
5.668940e-01
5.634442e-01
5.599158e-01
5.565701e-01
5.537585e-01
5.518640e-01
5.511930e-01
5.518640e-01
5.537585e-01
5.565701e-01
5.599158e-01
5.634442e-01
5.668940e-01
5.701053e-01
0.000000e+00
1.000000e+00
5.686107e-01
5.637411e-01
5.585099e-01
5.531596e-01
5.480863e-01
5.438230e-01
5.409502e-01
5.399328e-01
5.409502e-01
5.438230e-01
5.480863e-01
5.531596e-01
5.585099e-01
5.637411e-01
5.686106e-01
0.000000e+00
1.000000e+00
5.671313e-01
5.606206e-01
5.536263e-01
5.464729e-01
5.396897e-01
5.339896e-01
5.301486e-01
5.287882e-01
5.301486e-01
5.339896e-01
5.396897e-01
5.464729e-01
5.536263e-01
5.606206e-01
5.671313e-01
0.000000e+00
1.000000e+00
5.657588e-01
5.577255e-01
5.490955e-01
5.402692e-01
5.318997e-01
5.248665e-01
5.201272e-01
5.184487e-01
5.201272e-01
5.248665e-01
5.318997e-01
5.402692e-01
5.490956e-01
5.577255e-01
5.657588e-01
0.000000e+00
1.000000e+00
5.645802e-01
5.552392e-01
5.452045e-01
5.349414e-01
5.252096e-01
5.170316e-01
5.115209e-01
5.095691e-01
5.115209e-01
5.170316e-01
5.252096e-01
5.349414e-01
5.452045e-01
5.552392e-01
5.645801e-01
0.000000e+00
1.000000e+00
5.636652e-01
5.533091e-01
5.421839e-01
5.308055e-01
5.200162e-01
5.109494e-01
5.048399e-01
5.026761e-01
5.048399e-01
5.109494e-01
5.200162e-01
5.308055e-01
5.421839e-01
5.533091e-01
5.636651e-01
0.000000e+00
1.000000e+00
5.630576e-01
5.520275e-01
5.401783e-01
5.280593e-01
5.165677e-01
5.069109e-01
5.004037e-01
4.980991e-01
5.004037e-01
5.069109e-01
5.165677e-01
5.280594e-01
5.401783e-01
5.520275e-01
5.630576e-01
0.000000e+00
1.000000e+00
5.627714e-01
5.514237e-01
5.392334e-01
5.267655e-01
5.149431e-01
5.050082e-01
4.983137e-01
4.959427e-01
4.983137e-01
5.050083e-01
5.149431e-01
5.267655e-01
5.392334e-01
5.514237e-01
5.627714e-01
0.000000e+00
1.000000e+00
5.627925e-01
5.514683e-01
5.393032e-01
5.268611e-01
5.150631e-01
5.051487e-01
4.984681e-01
4.961020e-01
4.984681e-01
5.051488e-01
5.150631e-01
5.268611e-01
5.393032e-01
5.514683e-01
5.627925e-01
0.000000e+00
1.000000e+00
5.630856e-01
5.520866e-01
5.402708e-01
5.281859e-01
5.167267e-01
5.070971e-01
5.006082e-01
4.983101e-01
5.006082e-01
5.070971e-01
5.167267e-01
5.281860e-01
5.402708e-01
5.520866e-01
5.630856e-01
0.000000e+00
1.000000e+00
5.636022e-01
5.531763e-01
5.419761e-01
5.305209e-01
5.196588e-01
5.105309e-01
5.043801e-01