<?xml version="1.0"?>
<VTKFile type="StructuredGrid" version="0.1">
  <StructuredGrid WholeExtent="0 16 0 16 0 16">
    <Piece Extent="0 16 0 16 0 16">
      <PointData Scalars="temperature" Vectors="velocity">
        <DataArray type="Float32" Name="temperature" format="ascii">
1.000000e+00
5.808736e-01
5.884102e-01
5.972917e-01
6.062609e-01
6.147703e-01
6.219287e-01
6.267660e-01
6.285063e-01
6.268445e-01
6.220641e-01
6.149644e-01
6.064370e-01
5.974246e-01
5.886058e-01
5.801150e-01
0.000000e+00
1.000000e+00
5.799339e-01
5.866044e-01
5.944204e-01
6.023278e-01
6.098287e-01
6.161373e-01
6.203983e-01
6.219292e-01
6.204657e-01
6.162508e-01
6.100026e-01
6.024879e-01
5.945478e-01
5.867684e-01
5.793077e-01
0.000000e+00
1.000000e+00
5.788586e-01
5.845687e-01
5.911899e-01
5.979034e-01
6.042713e-01
6.096259e-01
6.132401e-01
6.145345e-01
6.132908e-01
6.097156e-01
6.044084e-01
5.980256e-01
5.912933e-01
5.846903e-01
5.783505e-01
0.000000e+00
1.000000e+00
5.777043e-01
5.823498e-01
5.876850e-01
5.931042e-01
5.982440e-01
6.025650e-01
6.054796e-01
6.065190e-01
6.055104e-01
6.026337e-01
5.983494e-01
5.932030e-01
5.877793e-01
5.824475e-01
5.773068e-01
0.000000e+00
1.000000e+00
5.765242e-01
5.800252e-01
5.840257e-01
5.880943e-01
5.919528e-01
5.951960e-01
5.973824e-01
5.981586e-01
5.973940e-01
5.952405e-01
5.920291e-01
5.881733e-01
5.841128e-01
5.801069e-01
5.762029e-01
0.000000e+00
1.000000e+00
5.753629e-01
5.776951e-01
5.803642e-01
5.830815e-01
5.856585e-01
5.878244e-01
5.892839e-01
5.898000e-01
5.892825e-01
5.878402e-01
5.857056e-01
5.831393e-01
5.804435e-01
5.777656e-01
5.750988e-01
0.000000e+00
1.000000e+00
5.742659e-01
5.754716e-01
5.768737e-01
5.783026e-01
5.796577e-01
5.807964e-01
5.815632e-01
5.818331e-01
5.815577e-01
5.807901e-01
5.796713e-01
5.783340e-01
5.769405e-01
5.755330e-01
5.740354e-01
0.000000e+00
1.000000e+00
5.732809e-01
5.734685e-01
5.737318e-01
5.740006e-01
5.742556e-01
5.744696e-01
5.746134e-01
5.746628e-01
5.746089e-01
5.744616e-01
5.742600e-01
5.740190e-01
5.737795e-01
5.735205e-01
5.730784e-01
0.000000e+00
1.000000e+00
5.724643e-01
5.717905e-01
5.711030e-01
5.704011e-01
5.697356e-01
5.691764e-01
5.687995e-01
5.686655e-01
5.687984e-01
5.691763e-01
5.697526e-01
5.704225e-01
5.711431e-01
5.718415e-01
5.722634e-01
0.000000e+00
1.000000e+00
5.718423e-01
5.705246e-01
5.691215e-01
5.676876e-01
5.663281e-01
5.651859e-01
5.644166e-01
5.641445e-01
5.644183e-01
5.651920e-01
5.663494e-01
5.677114e-01
5.691585e-01
5.705688e-01
5.716803e-01
0.000000e+00
1.000000e+00
5.714471e-01
5.697252e-01
5.678695e-01
5.659732e-01
5.641752e-01
5.626647e-01
5.616478e-01
5.612888e-01
5.616517e-01
5.626764e-01
5.641989e-01
5.660001e-01
5.679022e-01
5.697496e-01
5.714216e-01
0.000000e+00
1.000000e+00
5.713020e-01
5.694092e-01
5.673754e-01
5.652970e-01
5.633264e-01
5.616709e-01
5.605564e-01
5.601633e-01
5.605617e-01
5.616854e-01
5.633525e-01
5.653283e-01
5.674071e-01
5.694316e-01
5.712772e-01
0.000000e+00
1.000000e+00
5.713621e-01
5.695621e-01
5.676150e-01
5.656253e-01
5.637388e-01
5.621541e-01
5.610871e-01
5.607108e-01
5.610922e-01
5.621681e-01
5.637665e-01
5.656620e-01
5.676505e-01
5.695916e-01
5.712663e-01
0.000000e+00
1.000000e+00
5.716323e-01
5.701396e-01
5.685173e-01
5.668608e-01
5.652904e-01
5.639711e-01
5.630828e-01
5.627692e-01
5.630863e-01
5.639817e-01
5.653171e-01
5.669040e-01
5.685603e-01
5.701728e-01
5.715840e-01
0.000000e+00
1.000000e+00
5.720855e-01
5.710735e-01
5.699778e-01
5.688607e-01
5.678016e-01
5.669120e-01
5.663128e-01
5.661010e-01
5.663141e-01
5.669170e-01
5.678231e-01
5.689108e-01
5.700304e-01
5.711164e-01
5.720276e-01
0.000000e+00
1.000000e+00
5.726806e-01
5.722844e-01
5.718743e-01
5.714575e-01
5.710624e-01
5.707307e-01
5.705073e-01
5.704279e-01
5.705063e-01
5.707300e-01
5.710739e-01
5.715080e-01
5.719327e-01
5.723393e-01
5.725797e-01
0.000000e+00
1.000000e+00
5.733737e-01
5.736922e-01
5.740808e-01
5.744788e-01
5.748564e-01
5.751739e-01
5.753879e-01
5.754631e-01
5.753859e-01
5.751702e-01
5.748581e-01
5.745197e-01
5.741514e-01
5.737615e-01
5.731793e-01
0.000000e+00
1.000000e+00
5.817282e-01
5.897791e-01
5.995828e-01
6.094026e-01
6.187192e-01
6.265583e-01
6.318579e-01
6.337659e-01
6.319405e-01
6.267052e-01
6.189339e-01
6.095927e-01
5.997142e-01
5.900562e-01
5.808817e-01
0.000000e+00
1.000000e+00
5.808371e-01
5.880801e-01
5.968727e-01
6.056903e-01
6.140555e-01
6.210932e-01
6.258500e-01
6.275622e-01
6.259235e-01
6.212180e-01
6.142630e-01
6.058825e-01
5.970212e-01
5.883377e-01
5.800999e-01
0.000000e+00
1.000000e+00
5.797631e-01
5.861531e-01
5.937597e-01
6.014253e-01
6.086972e-01
6.148142e-01
6.189467e-01
6.204315e-01
6.190082e-01
6.149182e-01
6.088706e-01
6.015790e-01
5.938858e-01
5.863379e-01
5.791428e-01
0.000000e+00
1.000000e+00
5.785986e-01
5.840004e-01
5.903211e-01
5.967150e-01
6.027798e-01
6.078803e-01
6.113243e-01
6.125587e-01
6.113721e-01
6.079649e-01
6.029178e-01
5.968401e-01
5.904333e-01
5.841362e-01
5.781032e-01
0.000000e+00
1.000000e+00
5.773955e-01
5.816986e-01
5.866750e-01
5.917216e-01
5.965080e-01
6.005322e-01
6.032476e-01
6.042178e-01
6.032805e-01
6.005964e-01
5.966125e-01
5.918223e-01
5.867763e-01
5.818026e-01
5.769953e-01
0.000000e+00
1.000000e+00
5.762036e-01
5.793524e-01
5.829772e-01
5.866586e-01
5.901498e-01
5.930844e-01
5.950631e-01
5.957668e-01
5.950791e-01
5.931258e-01
5.902226e-01
5.867373e-01
5.830678e-01
5.794357e-01
5.758767e-01
0.000000e+00
1.000000e+00
5.750763e-01
5.770846e-01
5.794118e-01
5.817771e-01
5.840202e-01
5.859054e-01
5.871756e-01
5.876250e-01
5.871773e-01
5.859210e-01
5.840622e-01
5.818311e-01
5.794914e-01
5.771539e-01
5.747950e-01
0.000000e+00
1.000000e+00
5.740507e-01
5.750227e-01
5.761716e-01
5.773410e-01
5.784498e-01
5.793815e-01
5.800088e-01
5.802298e-01
5.800050e-01
5.793800e-01
5.784632e-01
5.773658e-01
5.762305e-01
5.750763e-01
5.738126e-01
0.000000e+00
1.000000e+00
5.731935e-01
5.732795e-01
5.734366e-01
5.735965e-01
5.737482e-01
5.738757e-01
5.739613e-01
5.739909e-01
5.739589e-01
5.738724e-01
5.737528e-01
5.736087e-01
5.734737e-01
5.733215e-01
5.729648e-01
0.000000e+00
1.000000e+00
5.725436e-01
5.719520e-01
5.713587e-01
5.707510e-01
5.701748e-01
5.696907e-01
5.693644e-01
5.692485e-01
5.693632e-01
5.696898e-01
5.701831e-01
5.707619e-01
5.713827e-01
5.719885e-01
5.723511e-01
0.000000e+00
1.000000e+00
5.721356e-01
5.711025e-01
5.700293e-01
5.689309e-01
5.678894e-01
5.670143e-01
5.664250e-01
5.662166e-01
5.664258e-01
5.670185e-01
5.679026e-01
5.689452e-01
5.700487e-01
5.711261e-01
5.720800e-01
0.000000e+00
1.000000e+00
5.719574e-01
5.707539e-01
5.694843e-01
5.681847e-01
5.669524e-01
5.659172e-01
5.652200e-01
5.649737e-01
5.652219e-01
5.659237e-01
5.669685e-01
5.682045e-01
5.695053e-01
5.707768e-01
5.719196e-01
0.000000e+00
1.000000e+00
5.720083e-01
5.708914e-01
5.696984e-01
5.684778e-01
5.673206e-01
5.663483e-01
5.656935e-01
5.654621e-01
5.656952e-01
5.663543e-01
5.673371e-01
5.685036e-01
5.697245e-01
5.709195e-01
5.719105e-01
0.000000e+00
1.000000e+00
5.722852e-01
5.714658e-01
5.705959e-01
5.697068e-01
5.688638e-01
5.681556e-01
5.676786e-01
5.675097e-01
5.676791e-01
5.681587e-01
5.688777e-01
5.697391e-01
5.706302e-01
5.714988e-01
5.722216e-01
0.000000e+00
1.000000e+00
5.727445e-01
5.724044e-01
5.720650e-01
5.717184e-01
5.713899e-01
5.711139e-01
5.709279e-01
5.708617e-01
5.709269e-01
5.711131e-01
5.713976e-01
5.717530e-01
5.721080e-01
5.724467e-01
5.726579e-01
0.000000e+00
1.000000e+00
5.733493e-01
5.736232e-01
5.739753e-01
5.743342e-01
5.746747e-01
5.749609e-01
5.751536e-01
5.752213e-01
5.751518e-01
5.749579e-01
5.746761e-01
5.743630e-01
5.740308e-01
5.736768e-01
5.732353e-01
0.000000e+00
1.000000e+00
5.740460e-01
5.750372e-01
5.761934e-01
5.773716e-01
5.784889e-01
5.794280e-01
5.800609e-01
5.802847e-01
5.800598e-01
5.794256e-01
5.784897e-01
5.774034e-01
5.762690e-01
5.751066e-01
5.738332e-01
0.000000e+00
1.000000e+00
5.823701e-01
5.907847e-01
6.014071e-01
6.119007e-01
6.218563e-01
6.302339e-01
6.358990e-01
6.379383e-01
6.359778e-01
6.303960e-01
6.220929e-01
6.121082e-01
6.015375e-01
5.912151e-01
5.814448e-01
0.000000e+00
1.000000e+00
5.815159e-01
5.892145e-01
5.988680e-01
6.084232e-01
6.174875e-01
6.251143e-01
6.302714e-01
6.321271e-01
6.303378e-01
6.252582e-01
6.177162e-01
6.086295e-01
5.990157e-01
5.896080e-01
5.807143e-01
0.000000e+00
1.000000e+00
5.804954e-01
5.874107e-01
5.958810e-01
6.043313e-01
6.123474e-01
6.190914e-01
6.236504e-01
6.252896e-01
6.237076e-01
6.192160e-01
6.125441e-01
6.045011e-01
5.960086e-01
5.876900e-01
5.797919e-01
0.000000e+00
1.000000e+00
5.793544e-01
5.853401e-01
5.925187e-01
5.997254e-01
6.065617e-01
6.123120e-01
6.161978e-01
6.175943e-01
6.162466e-01
6.124141e-01
6.067229e-01
5.998648e-01
5.926320e-01
5.855375e-01
5.787703e-01
0.000000e+00
1.000000e+00
5.781512e-01
5.830757e-01
5.888980e-01
5.947662e-01
6.003324e-01
6.050133e-01
6.081747e-01
6.093097e-01
6.082141e-01
6.050915e-01
6.004594e-01
5.948789e-01
5.889986e-01
5.832198e-01
5.776694e-01
0.000000e+00
1.000000e+00
5.769343e-01
5.807306e-01
5.851779e-01
5.896718e-01
5.939340e-01
5.975173e-01
5.999358e-01
6.008021e-01
5.999630e-01
5.975731e-01
5.940280e-01
5.897589e-01
5.852641e-01
5.808370e-01
5.765421e-01
0.000000e+00
1.000000e+00
5.757705e-01
5.784328e-01
5.815505e-01
5.847050e-01
5.876965e-01
5.902109e-01
5.919068e-01
5.925124e-01
5.919219e-01
5.902457e-01
5.877593e-01
5.847679e-01
5.816226e-01
5.785132e-01
5.754403e-01
0.000000e+00
1.000000e+00
5.747106e-01
5.763213e-01
5.782231e-01
5.801493e-01
5.819758e-01
5.835107e-01
5.845454e-01
5.849136e-01
5.845512e-01
5.835244e-01
5.820081e-01
5.801850e-01
5.782806e-01
5.763823e-01
5.744353e-01
0.000000e+00
1.000000e+00
5.738189e-01
5.745218e-01
5.753913e-01
5.762726e-01
5.771083e-01
5.778106e-01
5.782840e-01
5.784521e-01
5.782852e-01
5.778140e-01
5.771186e-01
5.762843e-01
5.754266e-01
5.745650e-01
5.735650e-01
0.000000e+00
1.000000e+00
5.731396e-01
5.731383e-01
5.732230e-01
5.733036e-01
5.733802e-01
5.734448e-01
5.734883e-01
5.735035e-01
5.734873e-01
5.734435e-01
5.733799e-01
5.733050e-01
5.732396e-01
5.731703e-01
5.729195e-01
0.000000e+00
1.000000e+00
5.726968e-01
5.722438e-01
5.718228e-01
5.713865e-01
5.709729e-01
5.706253e-01
5.703912e-01
5.703082e-01
5.703906e-01
5.706250e-01
5.709752e-01
5.713888e-01
5.718299e-01
5.722657e-01
5.726028e-01
0.000000e+00
1.000000e+00
5.724906e-01
5.718665e-01
5.712307e-01
5.705758e-01
5.699548e-01
5.694330e-01
5.690815e-01
5.689571e-01
5.690818e-01
5.694349e-01
5.699620e-01
5.705845e-01
5.712377e-01
5.718884e-01
5.724215e-01
0.000000e+00
1.000000e+00
5.725435e-01
5.719908e-01
5.714225e-01
5.708386e-01
5.702849e-01
5.698197e-01
5.695062e-01
5.693953e-01
5.695065e-01
5.698214e-01
5.702924e-01
5.708541e-01
5.714361e-01
5.720157e-01
5.724316e-01
0.000000e+00
1.000000e+00
5.728240e-01
5.725639e-01
5.723183e-01
5.720651e-01
5.718251e-01
5.716234e-01
5.714875e-01
5.714391e-01
5.714867e-01
5.716229e-01
5.718294e-01
5.720827e-01
5.723395e-01
5.725936e-01
5.727135e-01
0.000000e+00
1.000000e+00
5.732907e-01
5.735091e-01
5.737985e-01
5.740919e-01
5.743703e-01
5.746042e-01
5.747617e-01
5.748171e-01
5.747602e-01
5.746016e-01
5.743702e-01
5.741085e-01
5.738342e-01
5.735487e-01
5.731426e-01
0.000000e+00
1.000000e+00
5.739048e-01
5.747369e-01
5.757245e-01
5.767294e-01
5.776823e-01
5.784832e-01
5.790228e-01
5.792136e-01
5.790216e-01
5.784806e-01
5.776811e-01
5.767515e-01
5.757817e-01
5.747913e-01
5.737342e-01
0.000000e+00
1.000000e+00
5.746069e-01
5.761592e-01
5.779562e-01
5.797851e-01
5.815196e-01
5.829775e-01
5.839601e-01
5.843083e-01
5.839604e-01
5.829774e-01
5.815284e-01
5.798298e-01
5.780317e-01
5.762279e-01
5.743694e-01
0.000000e+00
1.000000e+00
5.827497e-01
5.915180e-01
6.026390e-01
6.135843e-01
6.239688e-01
6.327085e-01
6.386205e-01
6.407461e-01
6.386967e-01
6.328851e-01
6.242273e-01
6.138092e-01
6.027682e-01
5.919914e-01
5.818243e-01
0.000000e+00
1.000000e+00
5.819837e-01
5.900292e-01
6.002625e-01
6.103312e-01
6.198834e-01
6.279220e-01
6.333594e-01
6.353152e-01
6.334211e-01
6.280839e-01
6.201297e-01
6.105487e-01
6.004075e-01
5.904885e-01
5.811337e-01
0.000000e+00
1.000000e+00
5.810418e-01
5.882898e-01
5.973994e-01
6.064118e-01
6.149612e-01
6.221548e-01
6.270197e-01
6.287701e-01
6.270711e-01
6.222986e-01
6.151768e-01
6.065969e-01
5.975323e-01
5.886569e-01
5.802544e-01
0.000000e+00
1.000000e+00
5.799499e-01
5.862847e-01
5.941170e-01
6.019162e-01
6.093146e-01
6.155385e-01
6.197466e-01
6.212607e-01
6.197898e-01
6.156605e-01
6.094931e-01
6.020685e-01
5.942345e-01
5.865550e-01
5.792555e-01
0.000000e+00
1.000000e+00
5.787558e-01
5.840577e-01
5.905283e-01
5.970007e-01
6.031402e-01
6.083040e-01
6.117939e-01
6.130492e-01
6.118296e-01
6.084021e-01
6.032826e-01
5.971245e-01
5.906327e-01
5.842578e-01
5.781660e-01
0.000000e+00
1.000000e+00
5.775125e-01
5.817201e-01
5.867947e-01
5.918870e-01
5.967171e-01
6.007788e-01
6.035222e-01
6.045078e-01
6.035502e-01
6.008512e-01
5.968254e-01
5.919833e-01
5.868836e-01
5.818661e-01
5.770334e-01
0.000000e+00
1.000000e+00
5.762995e-01
5.794032e-01
5.831164e-01
5.868497e-01
5.903906e-01
5.933675e-01
5.953769e-01
5.960965e-01
5.953958e-01
5.934130e-01
5.904669e-01
5.869196e-01
5.831881e-01
5.795081e-01
5.759146e-01
0.000000e+00
1.000000e+00
5.751963e-01
5.772530e-01
5.797137e-01
5.821902e-01
5.845389e-01
5.865131e-01
5.878447e-01
5.883196e-01
5.878540e-01
5.865339e-01
5.845845e-01
5.822337e-01
5.797687e-01
5.773258e-01
5.748881e-01
0.000000e+00
1.000000e+00
5.742732e-01
5.754051e-01
5.767977e-01
5.781980e-01
5.795259e-01
5.806421e-01
5.813946e-01
5.816622e-01
5.813972e-01
5.806490e-01
5.795460e-01
5.782158e-01
5.768340e-01
5.754558e-01
5.740038e-01
0.000000e+00
1.000000e+00
5.735579e-01
5.739746e-01
5.745504e-01
5.751208e-01
5.756619e-01
5.761166e-01
5.764232e-01
5.765315e-01
5.764225e-01
5.761167e-01
5.756625e-01
5.751196e-01
5.745634e-01
5.740108e-01
5.733368e-01
0.000000e+00
1.000000e+00
5.730807e-01
5.730453e-01
5.730883e-01
5.731191e-01
5.731482e-01
5.731727e-01
5.731891e-01
5.731947e-01
5.731883e-01
5.731710e-01
5.731451e-01
5.731150e-01
5.730891e-01
5.730674e-01
5.729745e-01
0.000000e+00
1.000000e+00
5.728716e-01
5.726468e-01
5.724580e-01
5.722563e-01
5.720651e-01
5.719044e-01
5.717961e-01
5.717577e-01
5.717960e-01
5.719046e-01
5.720665e-01
5.722568e-01
5.724561e-01
5.726650e-01
5.727645e-01
0.000000e+00
1.000000e+00
5.729234e-01
5.727641e-01
5.726370e-01
5.725016e-01
5.723732e-01
5.722653e-01
5.721925e-01
5.721667e-01
5.721923e-01
5.722653e-01
5.723752e-01
5.725058e-01
5.726392e-01
5.727818e-01
5.728017e-01
0.000000e+00
1.000000e+00
5.732080e-01
5.733419e-01
5.735398e-01
5.737377e-01
5.739254e-01
5.740832e-01
5.741893e-01
5.742266e-01
5.741883e-01
5.740814e-01
5.739249e-01
5.737431e-01
5.735534e-01
5.733665e-01
5.730571e-01
0.000000e+00
1.000000e+00
5.736833e-01
5.742992e-01
5.750396e-01
5.757914e-01
5.765043e-01
5.771034e-01
5.775070e-01
5.776496e-01
5.775056e-01
5.771003e-01
5.765007e-01
5.758010e-01
5.750723e-01
5.743367e-01
5.735101e-01
0.000000e+00
1.000000e+00
5.743025e-01
5.755426e-01
5.769901e-01
5.784622e-01
5.798582e-01
5.810314e-01
5.818220e-01
5.821020e-01
5.818215e-01
5.810295e-01
5.798593e-01
5.784931e-01
5.770474e-01
5.755952e-01
5.741095e-01
0.000000e+00
1.000000e+00
5.750151e-01
5.769792e-01
5.792444e-01
5.815489e-01
5.837343e-01
5.855711e-01
5.868093e-01
5.872484e-01
5.868110e-01
5.855748e-01
5.837547e-01
5.816057e-01
5.793151e-01
5.770441e-01
5.747579e-01
0.000000e+00
1.000000e+00
5.828833e-01
5.918798e-01
6.031655e-01
6.143090e-01
6.248801e-01
6.337764e-01
6.397940e-01
6.419582e-01
6.398739e-01
6.339602e-01
6.251561e-01
6.145516e-01
6.033028e-01
5.923273e-01
5.819906e-01
0.000000e+00
1.000000e+00
5.821860e-01
5.905119e-01
6.009358e-01
6.112562e-01
6.210459e-01
6.292832e-01
6.348541e-01
6.368565e-01
6.349212e-01
6.294541e-01
6.213024e-01
6.114792e-01
6.010809e-01
5.909145e-01
5.813330e-01
0.000000e+00
1.000000e+00
5.812591e-01
5.888595e-01
5.981885e-01
6.074914e-01
6.163164e-01
6.237419e-01
6.287634e-01
6.305680e-01
6.288196e-01
6.238953e-01
6.165424e-01
6.076842e-01
5.983238e-01
5.891595e-01
5.804905e-01
0.000000e+00
1.000000e+00
5.801657e-01
5.868884e-01
5.949796e-01
6.030953e-01
6.107943e-01
6.172717e-01
6.216514e-01
6.232247e-01
6.216991e-01
6.174035e-01
6.109826e-01
6.032538e-01
5.950974e-01
5.871030e-01
5.795141e-01
0.000000e+00
1.000000e+00
5.789947e-01
5.846606e-01
5.914205e-01
5.982206e-01
6.046712e-01
6.100972e-01
6.137646e-01
6.150814e-01
6.138050e-01
6.102042e-01
6.048219e-01
5.983496e-01
5.915253e-01
5.848248e-01
5.784349e-01
0.000000e+00
1.000000e+00
5.777653e-01
5.823036e-01
5.876758e-01
5.930921e-01
5.982294e-01
6.025496e-01
6.054676e-01
6.065142e-01
6.055003e-01
6.026291e-01
5.983434e-01
5.931915e-01
5.877640e-01
5.824254e-01
5.772955e-01
0.000000e+00
1.000000e+00
5.765532e-01
5.799485e-01
5.839513e-01
5.879923e-01
5.918247e-01
5.950466e-01
5.972214e-01
5.980000e-01
5.972448e-01
5.950996e-01
5.919054e-01
5.880650e-01
5.840232e-01
5.800391e-01
5.761637e-01
0.000000e+00
1.000000e+00
5.754351e-01
5.777499e-01
5.804807e-01
5.832402e-01
5.858571e-01
5.880568e-01
5.895408e-01
5.900705e-01
5.895538e-01
5.880858e-01
5.859077e-01
5.832881e-01
5.805352e-01
5.778126e-01
5.751383e-01
0.000000e+00
1.000000e+00
5.744906e-01
5.758520e-01
5.774897e-01
5.791459e-01
5.807165e-01
5.820368e-01
5.829273e-01
5.832446e-01
5.829331e-01
5.820490e-01
5.807419e-01
5.791719e-01
5.775316e-01
5.758951e-01
5.742571e-01
0.000000e+00
1.000000e+00
5.737619e-01
5.743783e-01
5.751758e-01
5.759776e-01
5.767382e-01
5.773774e-01
5.778085e-01
5.779614e-01
5.778093e-01
5.773799e-01
5.767438e-01
5.759816e-01
5.751934e-01
5.744054e-01
5.735647e-01
0.000000e+00
1.000000e+00
5.732772e-01
5.734176e-01
5.736683e-01
5.739133e-01
5.741455e-01
5.743406e-01
5.744721e-01
5.745184e-01
5.744714e-01
5.743391e-01
5.741425e-01
5.739089e-01
5.736694e-01
5.734303e-01
5.731485e-01
0.000000e+00
1.000000e+00
5.730588e-01
5.730034e-01
5.730164e-01
5.730209e-01
5.730250e-01
5.730285e-01
5.730308e-01
5.730316e-01
5.730306e-01
5.730280e-01
5.730237e-01
5.730182e-01
5.730125e-01
5.730150e-01
5.729574e-01
0.000000e+00
1.000000e+00
5.731040e-01
5.731210e-01
5.731973e-01
5.732686e-01
5.733362e-01
5.733930e-01
5.734312e-01
5.734446e-01
5.734309e-01
5.733924e-01
5.733354e-01
5.732671e-01
5.731967e-01
5.731335e-01
5.730016e-01
0.000000e+00
1.000000e+00
5.733935e-01
5.737123e-01
5.741215e-01
5.745342e-01
5.749255e-01
5.752543e-01
5.754758e-01
5.755539e-01
5.754747e-01
5.752522e-01
5.749228e-01
5.745341e-01
5.741340e-01
5.737357e-01
5.732206e-01
0.000000e+00
1.000000e+00
5.738769e-01
5.746917e-01
5.756558e-01
5.766351e-01
5.775637e-01
5.783441e-01
5.788697e-01
5.790556e-01
5.788683e-01
5.783404e-01
5.775584e-01
5.766446e-01
5.756905e-01
5.747279e-01
5.736779e-01
0.000000e+00
1.000000e+00
5.745057e-01
5.759608e-01
5.776463e-01
5.793607e-01
5.809863e-01
5.823526e-01
5.832733e-01
5.835995e-01
5.832732e-01
5.823514e-01
5.809897e-01
5.793984e-01
5.777089e-01
5.760106e-01
5.742892e-01
0.000000e+00
1.000000e+00
5.752354e-01
5.774219e-01
5.799398e-01
5.825011e-01
5.849299e-01
5.869714e-01
5.883476e-01
5.888361e-01
5.883507e-01
5.869784e-01
5.849553e-01
5.825619e-01
5.800099e-01
5.774828e-01
5.749666e-01
0.000000e+00
1.000000e+00
5.828051e-01
5.918251e-01
6.029207e-01
6.139763e-01
6.244651e-01
6.332917e-01
6.392613e-01
6.414120e-01
6.393500e-01
6.334748e-01
6.247488e-01
6.142235e-01
6.030621e-01
5.921851e-01
5.819276e-01
0.000000e+00
1.000000e+00
5.821109e-01
5.905267e-01
6.008013e-01
6.110738e-01
6.208194e-01
6.290194e-01
6.345634e-01
6.365568e-01
6.346423e-01
6.291919e-01
6.210799e-01
6.112972e-01
6.009480e-01
5.908373e-01
5.812921e-01
0.000000e+00
1.000000e+00
5.811775e-01
5.888950e-01
5.981393e-01
6.074253e-01
6.162353e-01
6.236475e-01
6.286583e-01
6.304579e-01
6.287273e-01
6.238032e-01
6.164669e-01
6.076242e-01
5.982815e-01
5.891372e-01
5.804790e-01
0.000000e+00
1.000000e+00
5.801113e-01
5.869287e-01
5.949844e-01
6.031030e-01
6.108044e-01
6.172830e-01
6.216618e-01
6.232327e-01
6.217216e-01
6.174162e-01
6.109970e-01
6.032657e-01
5.951079e-01
5.871140e-01
5.795181e-01
0.000000e+00
1.000000e+00
5.789647e-01
5.846987e-01
5.914435e-01
5.982527e-01
6.047115e-01
6.101437e-01
6.138137e-01
6.151290e-01
6.138649e-01
6.102513e-01
6.048659e-01
5.983858e-01
5.915542e-01
5.848473e-01
5.784434e-01
0.000000e+00
1.000000e+00
5.777490e-01
5.823217e-01
5.876817e-01
5.931011e-01
5.982412e-01
6.025634e-01
6.054818e-01
6.065261e-01
6.055225e-01
6.026453e-01
5.983594e-01
5.932063e-01
5.877773e-01
5.824381e-01
5.772977e-01
0.000000e+00
1.000000e+00
5.765411e-01
5.799345e-01
5.839141e-01
5.879422e-01
5.917625e-01
5.949744e-01
5.971416e-01
5.979156e-01
5.971696e-01
5.950322e-01
5.918471e-01
5.880216e-01
5.839941e-01
5.800255e-01
5.761528e-01
0.000000e+00
1.000000e+00
5.754062e-01
5.776985e-01
5.803858e-01
5.831110e-01
5.856953e-01
5.878675e-01
5.893320e-01
5.898538e-01
5.893467e-01
5.879004e-01
5.857476e-01
5.831642e-01
5.804484e-01
5.777626e-01
5.751255e-01
0.000000e+00
1.000000e+00
5.744374e-01
5.757607e-01
5.773350e-01
5.789342e-01
5.804507e-01
5.817252e-01
5.825845e-01
5.828903e-01
5.825907e-01
5.817393e-01
5.804762e-01
5.789629e-01
5.773828e-01
5.758040e-01
5.742567e-01
0.000000e+00
1.000000e+00
5.736994e-01
5.742534e-01
5.749714e-01
5.756978e-01
5.763868e-01
5.769660e-01
5.773565e-01
5.774951e-01
5.773576e-01
5.769691e-01
5.763928e-01
5.757044e-01
5.749934e-01
5.742774e-01
5.735515e-01
0.000000e+00
1.000000e+00
5.732050e-01
5.732728e-01
5.734353e-01
5.735942e-01
5.737448e-01
5.738714e-01
5.739565e-01
5.739864e-01
5.739555e-01
5.738691e-01
5.737416e-01
5.735924e-01
5.734398e-01
5.732825e-01
5.730758e-01
0.000000e+00
1.000000e+00
5.729912e-01
5.728556e-01
5.727802e-01
5.726973e-01
5.726187e-01
5.725525e-01
5.725079e-01
5.724920e-01
5.725074e-01
5.725512e-01
5.726164e-01
5.726963e-01
5.727787e-01
5.728549e-01
5.728901e-01
0.000000e+00
1.000000e+00
5.730433e-01
5.729857e-01
5.729827e-01
5.729747e-01
5.729670e-01
5.729605e-01
5.729560e-01
5.729543e-01
5.729554e-01
5.729591e-01
5.729647e-01
5.729739e-01
5.729846e-01
5.729868e-01
5.729320e-01
0.000000e+00
1.000000e+00
5.733388e-01
5.736030e-01
5.739486e-01
5.742972e-01
5.746279e-01
5.749056e-01
5.750926e-01
5.751584e-01
5.750912e-01
5.749027e-01
5.746234e-01
5.742943e-01
5.739622e-01
5.736165e-01
5.732131e-01
0.000000e+00
1.000000e+00
5.738366e-01
5.746178e-01
5.755379e-01
5.764736e-01
5.773609e-01
5.781064e-01
5.786086e-01
5.787860e-01
5.786068e-01
5.781020e-01
5.773533e-01
5.764766e-01
5.755736e-01
5.746455e-01
5.736648e-01
0.000000e+00
1.000000e+00
5.744931e-01
5.759257e-01
5.775898e-01
5.792832e-01
5.808890e-01
5.822385e-01
5.831480e-01
5.834700e-01
5.831475e-01
5.822368e-01
5.808888e-01
5.793130e-01
5.776561e-01
5.759681e-01
5.742717e-01
0.000000e+00
1.000000e+00
5.752417e-01
5.774251e-01
5.799449e-01
5.825081e-01
5.849388e-01
5.869817e-01
5.883589e-01
5.888477e-01
5.883619e-01
5.869888e-01
5.849616e-01
5.825658e-01
5.800185e-01
5.774806e-01
5.749624e-01
0.000000e+00
1.000000e+00
5.823876e-01
5.912667e-01
6.018851e-01
6.125541e-01
6.226779e-01
6.311975e-01
6.369598e-01
6.390379e-01
6.370557e-01
6.313731e-01
6.229581e-01
6.127925e-01
6.020233e-01
5.915259e-01
5.816130e-01
0.000000e+00
1.000000e+00
5.817134e-01
5.899884e-01
5.998297e-01
6.097386e-01
6.191407e-01
6.270519e-01
6.324000e-01
6.343261e-01
6.324884e-01
6.272206e-01
6.193966e-01
6.099536e-01
5.999736e-01
5.902213e-01
5.809925e-01
0.000000e+00
1.000000e+00
5.808284e-01
5.883537e-01
5.972116e-01
6.061517e-01
6.146341e-01
6.217706e-01
6.265930e-01
6.283280e-01
6.266729e-01
6.219232e-01
6.148627e-01
6.063471e-01
5.973553e-01
5.885508e-01
5.801976e-01
0.000000e+00
1.000000e+00
5.797918e-01
5.863833e-01
5.940769e-01
6.018582e-01
6.092405e-01
6.154504e-01
6.196447e-01
6.211511e-01
6.197137e-01
6.155808e-01
6.094320e-01
6.020221e-01
5.942068e-01
5.865431e-01
5.792429e-01
0.000000e+00
1.000000e+00
5.786482e-01
5.841426e-01
5.905315e-01
5.970032e-01
6.031423e-01
6.083054e-01
6.117907e-01
6.130397e-01
6.118466e-01
6.084124e-01
6.032967e-01
5.971403e-01
5.906512e-01
5.842749e-01
5.781671e-01
0.000000e+00
1.000000e+00
5.774269e-01
5.817431e-01
5.867435e-01
5.918161e-01
5.966276e-01
6.006731e-01
6.034024e-01
6.043775e-01
6.034419e-01
6.007557e-01
5.967457e-01
5.919267e-01
5.868497e-01
5.818499e-01
5.770149e-01
0.000000e+00
1.000000e+00
5.762060e-01
5.793255e-01
5.829335e-01
5.865993e-01
5.900760e-01
5.929985e-01
5.949688e-01
5.956701e-01
5.949903e-01
5.930533e-01
5.901590e-01
5.866840e-01
5.830240e-01
5.794090e-01
5.758559e-01
0.000000e+00
1.000000e+00
5.750607e-01
5.770504e-01
5.793541e-01
5.816985e-01
5.839216e-01
5.857899e-01
5.870488e-01
5.874952e-01
5.870560e-01
5.858147e-01
5.839690e-01
5.817538e-01
5.794293e-01
5.771144e-01
5.748111e-01
0.000000e+00
1.000000e+00
5.740833e-01
5.750779e-01
5.762571e-01
5.774582e-01
5.785972e-01
5.795544e-01
5.801993e-01
5.804276e-01
5.802002e-01
5.795604e-01
5.786144e-01
5.774826e-01
5.763095e-01
5.751214e-01
5.739366e-01
0.000000e+00
1.000000e+00
5.733373e-01
5.735495e-01
5.738612e-01
5.741777e-01
5.744779e-01
5.747302e-01
5.749002e-01
5.749601e-01
5.748992e-01
5.747290e-01
5.744797e-01
5.741878e-01
5.738894e-01
5.735741e-01
5.732230e-01
0.000000e+00
1.000000e+00
5.728463e-01
5.725622e-01
5.723156e-01
5.720610e-01
5.718196e-01
5.716166e-01
5.714797e-01
5.714307e-01
5.714779e-01
5.716134e-01
5.718180e-01
5.720682e-01
5.723292e-01
5.725751e-01
5.727308e-01
0.000000e+00
1.000000e+00
5.726373e-01
5.721549e-01
5.716778e-01
5.711878e-01
5.707231e-01
5.703324e-01
5.700691e-01
5.699755e-01
5.700680e-01
5.703302e-01
5.707223e-01
5.711959e-01
5.716847e-01
5.721621e-01
5.725358e-01
0.000000e+00
1.000000e+00
5.727107e-01
5.723115e-01
5.719226e-01
5.715231e-01
5.711442e-01
5.708257e-01
5.706109e-01
5.705346e-01
5.706100e-01
5.708236e-01
5.711424e-01
5.715317e-01
5.719307e-01
5.723230e-01
5.725837e-01
0.000000e+00
1.000000e+00
5.730216e-01
5.729689e-01
5.729517e-01
5.729323e-01
5.729138e-01
5.728981e-01
5.728873e-01
5.728830e-01
5.728856e-01
5.728946e-01
5.729087e-01
5.729365e-01
5.729690e-01
5.729807e-01
5.729416e-01
0.000000e+00
1.000000e+00
5.735427e-01
5.740334e-01
5.746189e-01
5.752152e-01
5.757806e-01
5.762556e-01
5.765754e-01
5.766881e-01
5.765731e-01
5.762505e-01
5.757720e-01
5.752157e-01
5.746523e-01
5.740588e-01
5.734431e-01
0.000000e+00
1.000000e+00
5.742299e-01
5.753959e-01
5.767561e-01
5.781417e-01
5.794557e-01
5.805599e-01
5.813039e-01
5.815671e-01
5.813026e-01
5.805565e-01
5.794495e-01
5.781591e-01
5.768218e-01
5.754375e-01
5.740700e-01
0.000000e+00
1.000000e+00
5.750079e-01
5.769506e-01
5.791984e-01
5.814860e-01
5.836553e-01
5.854786e-01
5.867075e-01
5.871433e-01
5.867090e-01
5.854819e-01
5.836680e-01
5.815364e-01
5.792784e-01
5.770051e-01
5.747582e-01
0.000000e+00
1.000000e+00
5.817556e-01
5.901734e-01
6.000813e-01
6.100798e-01
6.195667e-01
6.275496e-01
6.329474e-01
6.348945e-01
6.330435e-01
6.277107e-01
6.198256e-01
6.102922e-01
6.002115e-01
5.903738e-01
5.810649e-01
0.000000e+00
1.000000e+00
5.810852e-01
5.888909e-01
5.980368e-01
6.072797e-01
6.160492e-01
6.234270e-01
6.284125e-01
6.302078e-01
6.285009e-01
6.235832e-01
6.162856e-01
6.074768e-01
5.981773e-01
5.890750e-01
5.804468e-01
0.000000e+00
1.000000e+00
5.802232e-01
5.872413e-01
5.954169e-01
6.036919e-01
6.115423e-01
6.181458e-01
6.226058e-01
6.242091e-01
6.226849e-01
6.182894e-01
6.117564e-01
6.038771e-01
5.955620e-01
5.874062e-01
5.796516e-01
0.000000e+00
1.000000e+00
5.791926e-01
5.852531e-01
5.922672e-01
5.993791e-01
6.061253e-01
6.117989e-01
6.156288e-01
6.170016e-01
6.156927e-01
6.119232e-01
6.063054e-01
5.995386e-01
5.924038e-01
5.853933e-01
5.786939e-01
0.000000e+00
1.000000e+00
5.780367e-01
5.829898e-01
5.886937e-01
5.944862e-01
5.999803e-01
6.046000e-01
6.077166e-01
6.088294e-01
6.077608e-01
6.047001e-01
6.001258e-01
5.946230e-01
5.888229e-01
5.831095e-01
5.776099e-01
0.000000e+00
1.000000e+00
5.768075e-01
5.805601e-01
5.848665e-01
5.892459e-01
5.933995e-01
5.968914e-01
5.992457e-01
6.000828e-01
5.992691e-01
5.969611e-01
5.935089e-01
5.893589e-01
5.849851e-01
5.806603e-01
5.764473e-01
0.000000e+00
1.000000e+00
5.755777e-01
5.781087e-01
5.810114e-01
5.839678e-01
5.867715e-01
5.891282e-01
5.907164e-01
5.912788e-01
5.907229e-01
5.891621e-01
5.868413e-01
5.840526e-01
5.811174e-01
5.781920e-01
5.752758e-01
0.000000e+00
1.000000e+00
5.744275e-01
5.758016e-01
5.773886e-01
5.790075e-01
5.805428e-01
5.818330e-01
5.827020e-01
5.830088e-01
5.827006e-01
5.818398e-01
5.805718e-01
5.790556e-01
5.774775e-01
5.758701e-01
5.742142e-01
0.000000e+00
1.000000e+00
5.734404e-01
5.738060e-01
5.742592e-01
5.747227e-01
5.751622e-01
5.755315e-01
5.757801e-01
5.758672e-01
5.757774e-01
5.755289e-01
5.751695e-01
5.747483e-01
5.743176e-01
5.738518e-01
5.733217e-01
0.000000e+00
1.000000e+00
5.726867e-01
5.722673e-01
5.718489e-01
5.714222e-01
5.710177e-01
5.706778e-01
5.704486e-01
5.703668e-01
5.704468e-01
5.706758e-01
5.710253e-01
5.714477e-01
5.718903e-01
5.722976e-01
5.725988e-01
0.000000e+00
1.000000e+00
5.722070e-01
5.712854e-01
5.703118e-01
5.693175e-01
5.683746e-01
5.675822e-01
5.670482e-01
5.668588e-01
5.670475e-01
5.675818e-01
5.683837e-01
5.693431e-01
5.703414e-01
5.713045e-01
5.721372e-01
0.000000e+00
1.000000e+00
5.720149e-01
5.709011e-01
5.697102e-01
5.684935e-01
5.673398e-01
5.663703e-01
5.657170e-01
5.654856e-01
5.657170e-01
5.663707e-01
5.673481e-01
5.685173e-01
5.697307e-01
5.709178e-01
5.718982e-01
0.000000e+00
1.000000e+00
5.721070e-01
5.710964e-01
5.700158e-01
5.689122e-01
5.678657e-01
5.669862e-01
5.663935e-01
5.661837e-01
5.663936e-01
5.669861e-01
5.678705e-01
5.689380e-01
5.700363e-01
5.711157e-01
5.719722e-01
0.000000e+00
1.000000e+00
5.724521e-01
5.718057e-01
5.711267e-01
5.704334e-01
5.697759e-01
5.692233e-01
5.688507e-01
5.687184e-01
5.688495e-01
5.692209e-01
5.697743e-01
5.704611e-01
5.711533e-01
5.718228e-01
5.723635e-01
0.000000e+00
1.000000e+00
5.730018e-01
5.729319e-01
5.728908e-01
5.728490e-01
5.728093e-01
5.727758e-01
5.727530e-01
5.727442e-01
5.727507e-01
5.727712e-01
5.728025e-01
5.728665e-01
5.729248e-01
5.729580e-01
5.729435e-01
0.000000e+00
1.000000e+00
5.737149e-01
5.743633e-01
5.751346e-01
5.759215e-01
5.766678e-01
5.772948e-01
5.777172e-01