<?xml version="1.0"?>
<VTKFile type="StructuredGrid" version="0.1">
  <StructuredGrid WholeExtent="0 16 0 16 0 16">
    <Piece Extent="0 16 0 16 0 16">
      <PointData Scalars="temperature" Vectors="velocity">
        <DataArray type="Float32" Name="temperature" format="ascii">
1.000000e+00
5.730668e-01
5.730254e-01
5.730416e-01
5.730557e-01
5.730691e-01
5.730804e-01
5.730879e-01
5.730906e-01
5.730881e-01
5.730806e-01
5.730695e-01
5.730566e-01
5.730421e-01
5.730444e-01
5.728214e-01
0.000000e+00
1.000000e+00
5.729353e-01
5.728123e-01
5.727076e-01
5.725979e-01
5.724938e-01
5.724063e-01
5.723474e-01
5.723264e-01
5.723471e-01
5.724058e-01
5.724934e-01
5.725984e-01
5.727059e-01
5.729184e-01
5.723352e-01
0.000000e+00
1.000000e+00
5.727221e-01
5.723549e-01
5.719898e-01
5.716151e-01
5.712597e-01
5.709612e-01
5.707600e-01
5.706886e-01
5.707596e-01
5.709608e-01
5.712609e-01
5.716196e-01
5.719893e-01
5.724679e-01
5.724227e-01
0.000000e+00
1.000000e+00
5.723693e-01
5.716352e-01
5.708615e-01
5.700703e-01
5.693201e-01
5.686899e-01
5.682653e-01
5.681151e-01
5.682660e-01
5.686924e-01
5.693274e-01
5.700835e-01
5.708689e-01
5.716917e-01
5.722341e-01
0.000000e+00
1.000000e+00
5.718917e-01
5.706509e-01
5.693193e-01
5.679589e-01
5.666691e-01
5.655855e-01
5.648558e-01
5.645982e-01
5.648589e-01
5.655934e-01
5.666851e-01
5.679829e-01
5.693380e-01
5.706969e-01
5.717608e-01
0.000000e+00
1.000000e+00
5.712849e-01
5.694185e-01
5.673882e-01
5.653148e-01
5.633490e-01
5.616979e-01
5.605864e-01
5.601950e-01
5.605937e-01
5.617134e-01
5.633756e-01
5.653514e-01
5.674179e-01
5.694640e-01
5.711790e-01
0.000000e+00
1.000000e+00
5.705806e-01
5.679738e-01
5.651260e-01
5.622173e-01
5.594598e-01
5.571440e-01
5.555859e-01
5.550381e-01
5.555984e-01
5.571691e-01
5.594981e-01
5.622678e-01
5.651673e-01
5.680237e-01
5.704899e-01
0.000000e+00
1.000000e+00
5.698034e-01
5.663750e-01
5.626231e-01
5.587903e-01
5.551569e-01
5.521060e-01
5.500540e-01
5.493334e-01
5.500727e-01
5.521425e-01
5.552073e-01
5.588560e-01
5.626756e-01
5.664296e-01
5.697295e-01
0.000000e+00
1.000000e+00
5.689964e-01
5.646970e-01
5.599961e-01
5.551933e-01
5.506406e-01
5.468183e-01
5.442480e-01
5.433465e-01
5.442733e-01
5.468675e-01
5.507032e-01
5.552742e-01
5.600590e-01
5.647575e-01
5.689301e-01
0.000000e+00
1.000000e+00
5.681917e-01
5.630243e-01
5.573767e-01
5.516067e-01
5.461376e-01
5.415463e-01
5.384596e-01
5.373776e-01
5.384910e-01
5.416081e-01
5.462110e-01
5.517027e-01
5.574483e-01
5.630883e-01
5.681355e-01
0.000000e+00
1.000000e+00
5.674264e-01
5.614411e-01
5.548980e-01
5.482131e-01
5.418771e-01
5.365585e-01
5.329832e-01
5.317301e-01
5.330198e-01
5.366307e-01
5.419602e-01
5.483226e-01
5.549765e-01
5.615088e-01
5.673820e-01
0.000000e+00
1.000000e+00
5.667432e-01
5.600245e-01
5.526805e-01
5.451774e-01
5.380663e-01
5.320971e-01
5.280846e-01
5.266781e-01
5.281253e-01
5.321762e-01
5.381585e-01
5.452981e-01
5.527636e-01
5.600937e-01
5.667099e-01
0.000000e+00
1.000000e+00
5.661708e-01
5.588360e-01
5.508204e-01
5.426312e-01
5.348700e-01
5.283553e-01
5.239757e-01
5.224403e-01
5.240192e-01
5.284378e-01
5.349698e-01
5.427602e-01
5.509069e-01
5.589077e-01
5.661451e-01
0.000000e+00
1.000000e+00
5.657296e-01
5.579170e-01
5.493820e-01
5.406624e-01
5.323987e-01
5.254620e-01
5.207984e-01
5.191627e-01
5.208429e-01
5.255453e-01
5.325029e-01
5.407956e-01
5.494713e-01
5.579899e-01
5.657075e-01
0.000000e+00
1.000000e+00
5.654295e-01
5.572877e-01
5.483959e-01
5.393129e-01
5.307047e-01
5.234786e-01
5.186199e-01
5.169149e-01
5.186640e-01
5.235604e-01
5.308105e-01
5.394447e-01
5.484885e-01
5.573626e-01
5.654076e-01
0.000000e+00
1.000000e+00
5.652611e-01
5.569467e-01
5.478613e-01
5.385813e-01
5.297865e-01
5.224034e-01
5.174385e-01
5.156954e-01
5.174811e-01
5.224817e-01
5.298895e-01
5.387086e-01
5.479547e-01
5.570246e-01
5.652512e-01
0.000000e+00
1.000000e+00
5.651981e-01
5.568706e-01
5.477480e-01
5.384275e-01
5.295950e-01
5.221808e-01
5.171955e-01
5.154455e-01
5.172392e-01
5.222613e-01
5.296992e-01
5.385625e-01
5.478488e-01
5.569693e-01
5.652136e-01
0.000000e+00
1.000000e+00
5.731531e-01
5.732372e-01
5.733755e-01
5.735123e-01
5.736421e-01
5.737511e-01
5.738244e-01
5.738503e-01
5.738240e-01
5.737504e-01
5.736415e-01
5.735136e-01
5.733777e-01
5.732385e-01
5.729048e-01
0.000000e+00
1.000000e+00
5.729311e-01
5.727974e-01
5.726826e-01
5.725638e-01
5.724510e-01
5.723562e-01
5.722922e-01
5.722693e-01
5.722917e-01
5.723556e-01
5.724511e-01
5.725688e-01
5.726850e-01
5.728670e-01
5.723127e-01
0.000000e+00
1.000000e+00
5.725663e-01
5.720845e-01
5.715646e-01
5.710326e-01
5.705281e-01
5.701042e-01
5.698184e-01
5.697171e-01
5.698183e-01
5.701048e-01
5.705314e-01
5.710453e-01
5.715728e-01
5.721675e-01
5.721989e-01
0.000000e+00
1.000000e+00
5.720951e-01
5.710831e-01
5.699972e-01
5.688868e-01
5.678340e-01
5.669494e-01
5.663536e-01
5.661432e-01
5.663559e-01
5.669553e-01
5.678460e-01
5.689070e-01
5.700158e-01
5.711429e-01
5.719297e-01
0.000000e+00
1.000000e+00
5.714848e-01
5.698007e-01
5.679891e-01
5.661376e-01
5.643822e-01
5.629076e-01
5.619149e-01
5.615652e-01
5.619212e-01
5.629210e-01
5.644047e-01
5.661664e-01
5.680174e-01
5.698508e-01
5.713143e-01
0.000000e+00
1.000000e+00
5.707382e-01
5.682642e-01
5.655827e-01
5.628426e-01
5.602449e-01
5.580632e-01
5.565951e-01
5.560787e-01
5.566065e-01
5.580850e-01
5.602783e-01
5.628835e-01
5.656207e-01
5.683167e-01
5.706008e-01
0.000000e+00
1.000000e+00
5.698895e-01
5.665231e-01
5.628572e-01
5.591108e-01
5.555595e-01
5.525774e-01
5.505715e-01
5.498670e-01
5.505890e-01
5.526091e-01
5.556046e-01
5.591668e-01
5.629072e-01
5.665818e-01
5.697767e-01
0.000000e+00
1.000000e+00
5.689854e-01
5.646518e-01
5.599292e-01
5.551018e-01
5.505261e-01
5.466845e-01
5.441013e-01
5.431949e-01
5.441260e-01
5.467286e-01
5.505828e-01
5.551755e-01
5.599909e-01
5.647179e-01
5.688921e-01
0.000000e+00
1.000000e+00
5.680713e-01
5.627438e-01
5.569428e-01
5.510125e-01
5.453919e-01
5.406739e-01
5.375022e-01
5.363901e-01
5.375341e-01
5.407328e-01
5.454592e-01
5.511045e-01
5.570153e-01
5.628168e-01
5.679873e-01
0.000000e+00
1.000000e+00
5.671784e-01
5.608979e-01
5.540536e-01
5.470565e-01
5.404255e-01
5.348599e-01
5.311191e-01
5.298079e-01
5.311575e-01
5.349336e-01
5.405022e-01
5.471664e-01
5.541356e-01
5.609762e-01
5.671136e-01
0.000000e+00
1.000000e+00
5.663619e-01
5.592104e-01
5.514131e-01
5.434414e-01
5.358873e-01
5.295474e-01
5.252862e-01
5.237927e-01
5.253300e-01
5.296325e-01
5.359734e-01
5.435675e-01
5.515024e-01
5.592949e-01
5.663145e-01
0.000000e+00
1.000000e+00
5.656669e-01
5.577653e-01
5.491512e-01
5.403449e-01
5.320003e-01
5.249970e-01
5.202897e-01
5.186398e-01
5.203373e-01
5.250890e-01
5.320958e-01
5.404841e-01
5.492459e-01
5.578545e-01
5.656302e-01
0.000000e+00
1.000000e+00
5.651194e-01
5.566235e-01
5.473632e-01
5.378973e-01
5.289277e-01
5.213997e-01
5.163393e-01
5.145652e-01
5.163891e-01
5.214945e-01
5.290308e-01
5.380451e-01
5.474606e-01
5.567152e-01
5.650909e-01
0.000000e+00
1.000000e+00
5.647345e-01
5.558193e-01
5.461030e-01
5.361724e-01
5.267621e-01
5.188639e-01
5.135542e-01
5.116919e-01
5.136045e-01
5.189585e-01
5.268706e-01
5.363226e-01
5.462016e-01
5.559130e-01
5.647134e-01
0.000000e+00
1.000000e+00
5.645114e-01
5.553608e-01
5.453834e-01
5.351878e-01
5.255260e-01
5.174162e-01
5.119635e-01
5.100503e-01
5.120131e-01
5.175081e-01
5.256382e-01
5.353319e-01
5.454812e-01
5.554469e-01
5.644996e-01
0.000000e+00
1.000000e+00
5.644376e-01
5.552330e-01
5.451818e-01
5.349126e-01
5.251808e-01
5.170116e-01
5.115185e-01
5.095903e-01
5.115667e-01
5.171001e-01
5.252922e-01
5.350499e-01
5.452784e-01
5.553272e-01
5.644437e-01
0.000000e+00
1.000000e+00
5.645781e-01
5.553973e-01
5.454512e-01
5.352829e-01
5.256466e-01
5.175573e-01
5.121171e-01
5.102064e-01
5.121621e-01
5.176405e-01
5.257520e-01
5.354242e-01
5.455602e-01
5.555078e-01
5.645195e-01
0.000000e+00
1.000000e+00
5.733894e-01
5.736898e-01
5.740852e-01
5.744845e-01
5.748632e-01
5.751813e-01
5.753955e-01
5.754710e-01
5.753944e-01
5.751793e-01
5.748613e-01
5.744865e-01
5.740959e-01
5.737000e-01
5.732956e-01
0.000000e+00
1.000000e+00
5.730486e-01
5.730184e-01
5.730281e-01
5.730370e-01
5.730453e-01
5.730522e-01
5.730566e-01
5.730578e-01
5.730554e-01
5.730501e-01
5.730443e-01
5.730448e-01
5.730344e-01
5.730452e-01
5.727574e-01
0.000000e+00
1.000000e+00
5.725478e-01
5.720434e-01
5.714976e-01
5.709412e-01
5.704136e-01
5.699701e-01
5.696711e-01
5.695650e-01
5.696709e-01
5.699709e-01
5.704190e-01
5.709621e-01
5.715119e-01
5.720816e-01
5.722832e-01
0.000000e+00
1.000000e+00
5.719130e-01
5.707523e-01
5.694768e-01
5.681740e-01
5.669385e-01
5.659004e-01
5.652012e-01
5.649543e-01
5.652046e-01
5.659080e-01
5.669560e-01
5.682002e-01
5.695013e-01
5.707926e-01
5.717681e-01
0.000000e+00
1.000000e+00
5.711636e-01
5.691586e-01
5.669842e-01
5.647613e-01
5.626538e-01
5.608837e-01
5.596924e-01
5.592733e-01
5.597019e-01
5.609009e-01
5.626849e-01
5.647956e-01
5.670169e-01
5.692043e-01
5.709979e-01
0.000000e+00
1.000000e+00
5.702813e-01
5.673049e-01
5.640828e-01
5.607890e-01
5.576665e-01
5.550444e-01
5.532806e-01
5.526610e-01
5.532967e-01
5.550712e-01
5.577099e-01
5.608356e-01
5.641257e-01
5.673583e-01
5.701351e-01
0.000000e+00
1.000000e+00
5.692912e-01
5.652568e-01
5.608775e-01
5.564003e-01
5.521566e-01
5.485937e-01
5.461978e-01
5.453569e-01
5.462206e-01
5.486306e-01
5.522121e-01
5.564622e-01
5.609334e-01
5.653178e-01
5.691726e-01
0.000000e+00
1.000000e+00
5.682654e-01
5.631073e-01
5.575139e-01
5.517949e-01
5.463747e-01
5.418247e-01
5.387656e-01
5.376924e-01
5.387951e-01
5.418733e-01
5.464412e-01
5.518749e-01
5.575801e-01
5.631750e-01
5.681613e-01
0.000000e+00
1.000000e+00
5.672338e-01
5.609670e-01
5.541649e-01
5.472095e-01
5.406184e-01
5.350864e-01
5.313676e-01
5.300634e-01
5.314044e-01
5.351499e-01
5.406946e-01
5.473104e-01
5.542405e-01
5.610395e-01
5.671500e-01
0.000000e+00
1.000000e+00
5.662683e-01
5.589514e-01
5.510130e-01
5.428945e-01
5.352021e-01
5.287465e-01
5.244071e-01
5.228854e-01
5.244502e-01
5.288254e-01
5.352868e-01
5.430159e-01
5.510993e-01
5.590306e-01
5.661968e-01
0.000000e+00
1.000000e+00
5.654135e-01
5.571705e-01
5.482283e-01
5.390825e-01
5.304175e-01
5.231459e-01
5.182579e-01
5.165440e-01
5.183061e-01
5.232373e-01
5.305103e-01
5.392228e-01
5.483254e-01
5.572574e-01
5.653537e-01
0.000000e+00
1.000000e+00
5.647115e-01
5.557134e-01
5.459486e-01
5.359620e-01
5.265007e-01
5.185607e-01
5.132232e-01
5.113514e-01
5.132748e-01
5.186602e-01
5.266005e-01
5.361167e-01
5.460563e-01
5.558078e-01
5.646629e-01
0.000000e+00
1.000000e+00
5.641906e-01
5.546388e-01
5.442657e-01
5.336581e-01
5.236084e-01
5.151742e-01
5.095041e-01
5.075152e-01
5.095576e-01
5.152771e-01
5.237148e-01
5.338196e-01
5.443812e-01
5.547439e-01
5.641532e-01
0.000000e+00
1.000000e+00
5.638661e-01
5.539722e-01
5.432192e-01
5.322253e-01
5.218090e-01
5.130667e-01
5.071891e-01
5.051267e-01
5.072430e-01
5.131692e-01
5.219226e-01
5.323853e-01
5.433364e-01
5.541002e-01
5.638468e-01
0.000000e+00
1.000000e+00
5.637315e-01
5.537070e-01
5.428006e-01
5.316523e-01
5.210887e-01
5.122221e-01
5.062605e-01
5.041682e-01
5.063138e-01
5.123217e-01
5.212086e-01
5.317999e-01
5.429109e-01
5.538367e-01
5.637469e-01
0.000000e+00
1.000000e+00
5.637656e-01
5.538129e-01
5.429621e-01
5.318737e-01
5.213662e-01
5.125461e-01
5.066154e-01
5.045337e-01
5.066678e-01
5.126424e-01
5.214868e-01
5.320129e-01
5.430788e-01
5.539262e-01
5.637828e-01
0.000000e+00
1.000000e+00
5.640381e-01
5.542352e-01
5.436320e-01
5.327922e-01
5.225198e-01
5.138966e-01
5.080976e-01
5.060613e-01
5.081467e-01
5.139871e-01
5.226362e-01
5.329362e-01
5.437490e-01
5.543221e-01
5.639463e-01
0.000000e+00
1.000000e+00
5.737381e-01
5.743999e-01
5.751990e-01
5.760097e-01
5.767785e-01
5.774245e-01
5.778596e-01
5.780133e-01
5.778582e-01
5.774218e-01
5.767762e-01
5.760163e-01
5.752239e-01
5.744258e-01
5.735921e-01
0.000000e+00
1.000000e+00
5.732804e-01
5.734996e-01
5.737827e-01
5.740703e-01
5.743429e-01
5.745718e-01
5.747258e-01
5.747798e-01
5.747238e-01
5.745681e-01
5.743405e-01
5.740804e-01
5.737988e-01
5.735263e-01
5.730878e-01
0.000000e+00
1.000000e+00
5.726726e-01
5.722640e-01
5.718431e-01
5.714145e-01
5.710080e-01
5.706663e-01
5.704360e-01
5.703540e-01
5.704350e-01
5.706653e-01
5.710133e-01
5.714431e-01
5.718617e-01
5.722922e-01
5.724959e-01
0.000000e+00
1.000000e+00
5.718860e-01
5.706857e-01
5.693693e-01
5.680268e-01
5.667538e-01
5.656842e-01
5.649639e-01
5.647099e-01
5.649678e-01
5.656924e-01
5.667747e-01
5.680650e-01
5.694019e-01
5.707121e-01
5.717959e-01
0.000000e+00
1.000000e+00
5.709634e-01
5.687827e-01
5.663928e-01
5.639510e-01
5.616359e-01
5.596915e-01
5.583830e-01
5.579231e-01
5.583946e-01
5.597119e-01
5.616718e-01
5.639962e-01
5.664369e-01
5.688181e-01
5.708621e-01
0.000000e+00
1.000000e+00
5.699289e-01
5.666094e-01
5.629955e-01
5.592998e-01
5.557965e-01
5.528552e-01
5.508774e-01
5.501837e-01
5.508982e-01
5.528877e-01
5.558466e-01
5.593568e-01
5.630480e-01
5.666576e-01
5.698175e-01
0.000000e+00
1.000000e+00
5.688219e-01
5.642547e-01
5.593118e-01
5.542565e-01
5.494653e-01
5.454436e-01
5.427400e-01
5.417921e-01
5.427684e-01
5.454856e-01
5.495283e-01
5.543283e-01
5.593722e-01
5.643146e-01
5.686937e-01
0.000000e+00
1.000000e+00
5.676692e-01
5.618308e-01
5.555182e-01
5.490628e-01
5.429456e-01
5.378114e-01
5.343601e-01
5.331496e-01
5.343944e-01
5.378628e-01
5.430207e-01
5.491532e-01
5.555853e-01
5.618994e-01
5.675522e-01
0.000000e+00
1.000000e+00
5.665396e-01
5.594666e-01
5.518193e-01
5.439991e-01
5.365893e-01
5.303704e-01
5.261896e-01
5.247231e-01
5.262299e-01
5.304347e-01
5.366751e-01
5.441111e-01
5.518951e-01
5.595431e-01
5.664358e-01
0.000000e+00
1.000000e+00
5.655010e-01
5.572947e-01
5.484233e-01
5.393511e-01
5.307560e-01
5.235424e-01
5.186927e-01
5.169914e-01
5.187386e-01
5.236212e-01
5.308509e-01
5.394847e-01
5.485130e-01
5.573820e-01
5.654112e-01
0.000000e+00
1.000000e+00
5.646296e-01
5.554368e-01
5.455190e-01
5.353769e-01
5.257687e-01
5.177045e-01
5.122826e-01
5.103801e-01
5.123328e-01
5.177954e-01
5.258699e-01
5.355280e-01
5.456242e-01
5.555335e-01
5.645326e-01
0.000000e+00
1.000000e+00
5.639333e-01
5.539851e-01
5.432500e-01
5.322720e-01
5.218719e-01
5.131426e-01
5.072732e-01
5.052133e-01
5.073265e-01
5.132425e-01
5.219780e-01
5.324331e-01
5.433721e-01
5.540901e-01
5.638452e-01
0.000000e+00
1.000000e+00
5.634442e-01
5.529948e-01
5.417017e-01
5.301524e-01
5.192104e-01
5.100262e-01
5.038507e-01
5.016831e-01
5.039059e-01
5.101310e-01
5.193230e-01
5.303107e-01
5.418385e-01
5.531184e-01
5.633744e-01
0.000000e+00
1.000000e+00
5.631784e-01
5.524825e-01
5.408965e-01
5.290485e-01
5.178231e-01
5.084008e-01
5.020651e-01
4.998412e-01
5.021212e-01
5.085068e-01
5.179448e-01
5.291946e-01
5.410301e-01
5.526362e-01
5.631106e-01
0.000000e+00
1.000000e+00
5.631289e-01
5.524246e-01
5.408001e-01
5.289151e-01
5.176539e-01
5.082016e-01
5.018458e-01
4.996148e-01
5.019018e-01
5.083063e-01
5.177839e-01
5.290484e-01
5.409219e-01
5.525832e-01
5.630664e-01
0.000000e+00
1.000000e+00
5.632904e-01
5.527722e-01
5.413385e-01
5.296513e-01
5.185770e-01
5.092814e-01
5.030311e-01
5.008373e-01
5.030867e-01
5.093835e-01
5.187062e-01
5.297878e-01
5.414687e-01
5.528906e-01
5.632476e-01
0.000000e+00
1.000000e+00
5.636791e-01
5.534544e-01
5.424123e-01
5.311228e-01
5.204249e-01
5.114449e-01
5.054065e-01
5.032868e-01
5.054598e-01
5.115423e-01
5.205523e-01
5.312710e-01
5.425382e-01
5.535360e-01
5.635829e-01
0.000000e+00
1.000000e+00
5.742096e-01
5.753697e-01
5.767185e-01
5.780904e-01
5.793914e-01
5.804848e-01
5.812215e-01
5.814822e-01
5.812206e-01
5.804828e-01
5.793920e-01
5.781108e-01
5.767643e-01
5.754077e-01
5.740831e-01
0.000000e+00
1.000000e+00
5.736440e-01
5.742528e-01
5.749628e-01
5.756863e-01
5.763724e-01
5.769489e-01
5.773372e-01
5.774741e-01
5.773350e-01
5.769446e-01
5.763692e-01
5.757003e-01
5.749993e-01
5.742898e-01
5.735074e-01
0.000000e+00
1.000000e+00
5.729167e-01
5.727685e-01
5.726335e-01
5.724969e-01
5.723672e-01
5.722580e-01
5.721842e-01
5.721575e-01
5.721825e-01
5.722552e-01
5.723720e-01
5.725285e-01
5.726624e-01
5.728038e-01
5.728153e-01
0.000000e+00
1.000000e+00
5.720037e-01
5.709149e-01
5.697272e-01
5.685172e-01
5.673699e-01
5.664059e-01
5.657566e-01
5.655276e-01
5.657597e-01
5.664128e-01
5.673938e-01
5.685655e-01
5.697670e-01
5.709434e-01
5.719728e-01
0.000000e+00
1.000000e+00
5.709201e-01
5.687186e-01
5.662879e-01
5.638073e-01
5.614552e-01
5.594796e-01
5.581504e-01
5.576840e-01
5.581635e-01
5.595027e-01
5.614970e-01
5.638616e-01
5.663422e-01
5.687505e-01
5.709187e-01
0.000000e+00
1.000000e+00
5.697320e-01
5.662417e-01
5.624183e-01
5.585088e-01
5.548028e-01
5.516915e-01
5.496001e-01
5.488676e-01
5.496239e-01
5.517287e-01
5.548602e-01
5.585749e-01
5.624790e-01
5.662833e-01
5.697178e-01
0.000000e+00
1.000000e+00
5.684921e-01
5.635948e-01
5.582802e-01
5.528433e-01
5.476910e-01
5.433671e-01
5.404615e-01
5.394444e-01
5.404946e-01
5.434141e-01
5.477632e-01
5.529276e-01
5.583480e-01
5.636490e-01
5.684287e-01
0.000000e+00
1.000000e+00
5.672362e-01
5.609121e-01
5.540830e-01
5.470980e-01
5.404803e-01
5.349270e-01
5.311949e-01
5.298867e-01
5.312330e-01
5.349800e-01
5.405652e-01
5.472044e-01
5.541581e-01
5.609777e-01
5.671355e-01
0.000000e+00
1.000000e+00
5.660321e-01
5.583435e-01
5.500637e-01
5.415974e-01
5.335766e-01
5.268451e-01
5.223196e-01
5.207315e-01
5.223610e-01
5.269067e-01
5.336712e-01
5.417263e-01
5.501473e-01
5.584209e-01
5.659011e-01
0.000000e+00
1.000000e+00
5.649465e-01
5.560388e-01
5.464568e-01
5.366618e-01
5.273815e-01
5.195921e-01
5.143546e-01
5.125163e-01
5.144011e-01
5.196674e-01
5.274839e-01
5.368117e-01
5.465517e-01
5.561252e-01
5.648059e-01
0.000000e+00
1.000000e+00
5.640426e-01
5.541260e-01
5.434653e-01
5.325697e-01
5.222458e-01
5.135795e-01
5.077518e-01
5.057059e-01
5.078026e-01
5.136664e-01
5.223527e-01
5.327349e-01
5.435760e-01
5.542186e-01
5.638998e-01
0.000000e+00
1.000000e+00
5.634008e-01
5.527028e-01
5.412370e-01
5.295212e-01
5.184192e-01
5.090991e-01
5.028313e-01
5.006304e-01
5.028848e-01
5.091947e-01
5.185298e-01
5.296893e-01
5.413692e-01
5.527993e-01
5.632179e-01
0.000000e+00
1.000000e+00
5.629486e-01
5.518101e-01
5.398466e-01
5.276171e-01
5.160281e-01
5.062991e-01
4.997563e-01
4.974588e-01
4.998119e-01
5.064013e-01
5.161469e-01
5.277719e-01
5.399989e-01
5.519248e-01
5.627798e-01
0.000000e+00
1.000000e+00
5.627170e-01
5.514562e-01
5.392960e-01
5.268605e-01
5.150770e-01
5.051853e-01
4.985333e-01
4.961977e-01
4.985904e-01
5.052920e-01
5.152076e-01
5.269955e-01
5.394393e-01
5.515928e-01
5.626011e-01
0.000000e+00
1.000000e+00
5.627717e-01
5.516059e-01
5.395258e-01
5.271725e-01
5.154675e-01
5.056423e-01
4.990354e-01
4.967160e-01
4.990931e-01
5.057508e-01
5.156033e-01
5.273036e-01
5.396608e-01
5.517392e-01
5.626842e-01
0.000000e+00
1.000000e+00
5.630344e-01
5.521903e-01
5.404343e-01
5.284150e-01
5.170266e-01
5.074674e-01
5.010400e-01
4.987843e-01
5.010980e-01
5.075751e-01
5.171575e-01
5.285663e-01
5.405757e-01
5.522994e-01
5.629804e-01
0.000000e+00
1.000000e+00
5.635412e-01
5.531252e-01
5.418981e-01
5.304193e-01
5.195426e-01
5.104130e-01
5.042744e-01
5.021204e-01
5.043311e-01
5.105173e-01
5.196741e-01
5.305847e-01
5.420204e-01
5.532137e-01
5.634055e-01
0.000000e+00
1.000000e+00
5.748141e-01
5.765799e-01
5.786167e-01
5.806896e-01
5.826555e-01
5.843078e-01
5.854215e-01
5.858162e-01
5.854222e-01
5.843098e-01
5.826687e-01
5.807343e-01
5.786805e-01
5.766318e-01
5.746551e-01
0.000000e+00
1.000000e+00
5.741510e-01
5.752685e-01
5.765546e-01
5.778661e-01
5.791099e-01
5.801553e-01
5.808597e-01
5.811088e-01
5.808582e-01
5.801520e-01
5.791100e-01
5.778940e-01
5.766175e-01
5.753210e-01
5.739826e-01
0.000000e+00
1.000000e+00
5.733025e-01
5.735592e-01
5.738715e-01
5.741920e-01
5.744960e-01
5.747516e-01
5.749238e-01
5.749843e-01
5.749220e-01
5.747479e-01
5.744998e-01
5.742257e-01
5.739217e-01
5.736086e-01
5.731961e-01
0.000000e+00
1.000000e+00
5.722725e-01
5.714552e-01
5.705730e-01
5.696756e-01
5.688248e-01
5.681101e-01
5.676286e-01
5.674583e-01
5.676299e-01
5.681145e-01
5.688517e-01
5.697334e-01
5.706211e-01
5.714948e-01
5.722202e-01
0.000000e+00
1.000000e+00
5.710510e-01
5.689934e-01
5.667153e-01
5.643930e-01
5.621912e-01
5.603420e-01
5.590981e-01
5.586613e-01
5.591098e-01
5.603648e-01
5.622407e-01
5.644551e-01
5.667815e-01
5.690332e-01
5.710594e-01
0.000000e+00
1.000000e+00
5.697217e-01
5.662472e-01
5.624219e-01
5.585136e-01
5.548084e-01
5.516978e-01
5.496070e-01
5.488755e-01
5.496319e-01
5.517369e-01
5.548760e-01
5.585853e-01
5.624926e-01
5.662912e-01
5.697515e-01
0.000000e+00
1.000000e+00
5.683496e-01
5.633408e-01
5.578805e-01
5.522950e-01
5.470019e-01
5.425604e-01
5.395769e-01
5.385337e-01
5.396122e-01
5.426104e-01
5.470860e-01
5.523860e-01
5.579551e-01
5.633943e-01
5.683498e-01
0.000000e+00
1.000000e+00
5.669850e-01
5.604304e-01
5.533303e-01
5.460666e-01
5.391859e-01
5.334132e-01
5.295348e-01
5.281763e-01
5.295748e-01
5.334683e-01
5.392827e-01
5.461836e-01
5.534098e-01
5.604936e-01
5.669426e-01
0.000000e+00
1.000000e+00
5.657220e-01
5.576867e-01
5.490382e-01
5.401950e-01
5.318188e-01
5.247896e-01
5.200640e-01
5.184054e-01
5.201043e-01
5.248494e-01
5.319231e-01
5.403387e-01
5.491265e-01
5.577633e-01
5.656031e-01
0.000000e+00
1.000000e+00
5.646235e-01
5.552789e-01
5.452658e-01
5.350353e-01
5.253416e-01
5.172042e-01
5.117316e-01
5.098090e-01
5.117750e-01
5.172741e-01
5.254497e-01
5.351991e-01
5.453646e-01
5.553616e-01
5.644439e-01
0.000000e+00
1.000000e+00
5.637607e-01
5.533494e-01
5.422283e-01
5.308776e-01
5.201203e-01
5.110897e-01
5.050164e-01
5.028830e-01
5.050657e-01
5.111724e-01
5.202327e-01
5.310547e-01
5.423428e-01
5.534203e-01
5.635265e-01
0.000000e+00
1.000000e+00
5.632352e-01
5.519892e-01
5.400704e-01
5.279225e-01
5.164091e-01
5.067435e-01
5.002431e-01
4.979597e-01
5.002955e-01
5.068365e-01
5.165251e-01
5.280993e-01
5.402082e-01
5.520389e-01
5.628679e-01
0.000000e+00
1.000000e+00
5.627824e-01
5.511958e-01
5.388509e-01
5.262524e-01
5.143122e-01
5.042883e-01
4.975470e-01
4.951793e-01
4.976026e-01
5.043903e-01
5.144374e-01
5.264139e-01
5.390072e-01
5.512719e-01
5.625014e-01
0.000000e+00
1.000000e+00
5.625535e-01
5.509842e-01
5.385519e-01
5.258427e-01
5.137987e-01
5.036880e-01
4.968885e-01
4.945010e-01
4.969465e-01
5.037966e-01
5.139336e-01
5.259882e-01
5.387043e-01
5.511022e-01
5.624031e-01
0.000000e+00
1.000000e+00
5.626699e-01
5.513254e-01
5.390917e-01
5.265812e-01
5.147268e-01
5.047756e-01
4.980839e-01
4.957347e-01
4.981424e-01
5.048869e-01
5.148607e-01
5.267336e-01
5.392440e-01
5.514464e-01
5.625728e-01
0.000000e+00
1.000000e+00
5.630479e-01
5.521302e-01
5.403455e-01
5.282951e-01
5.168776e-01
5.072942e-01
5.008505e-01
4.985895e-01
5.009097e-01
5.074058e-01
5.170045e-01
5.284682e-01
5.404868e-01
5.522382e-01
5.629754e-01
0.000000e+00
1.000000e+00
5.636201e-01
5.532941e-01
5.421630e-01
5.307819e-01
5.199987e-01
5.109481e-01
5.048632e-01
5.027290e-01
5.049220e-01
5.110580e-01
5.201292e-01
5.309635e-01
5.422733e-01
5.533979e-01
5.634317e-01
0.000000e+00
1.000000e+00
5.755307e-01
5.779906e-01
5.808338e-01
5.837255e-01
5.864681e-01
5.887734e-01
5.903277e-01
5.908795e-01
5.903318e-01
5.887847e-01
5.865041e-01
5.837937e-01
5.809124e-01
5.780561e-01
5.753395e-01
0.000000e+00
1.000000e+00
5.747884e-01
5.765125e-01
5.785085e-01
5.805417e-01
5.824702e-01
5.840913e-01
5.851840e-01
5.855713e-01
5.851847e-01
5.840923e-01
5.824850e-01
5.805979e-01
5.785952e-01
5.765814e-01
5.745804e-01
0.000000e+00
1.000000e+00
5.738371e-01
5.746125e-01
5.755231e-01
5.764538e-01
5.773367e-01
5.780788e-01
5.785790e-01
5.787558e-01
5.785775e-01
5.780751e-01
5.773402e-01
5.764942e-01
5.756038e-01
5.746790e-01
5.737189e-01
0.000000e+00
1.000000e+00
5.726866e-01
5.722962e-01
5.718900e-01
5.714790e-01
5.710894e-01
5.707625e-01
5.705426e-01
5.704653e-01
5.705439e-01
5.707654e-01
5.711166e-01
5.715404e-01
5.719521e-01
5.723493e-01
5.726220e-01
0.000000e+00
1.000000e+00
5.713602e-01
5.696102e-01
5.676808e-01
5.657155e-01
5.638522e-01
5.622875e-01
5.612353e-01
5.608657e-01
5.612448e-01
5.623081e-01
5.639094e-01
5.657847e-01
5.677582e-01
5.696617e-01
5.713287e-01
0.000000e+00
1.000000e+00
5.699090e-01
5.666425e-01
5.630355e-01
5.593541e-01
5.558641e-01
5.529342e-01
5.509656e-01
5.502767e-01
5.509892e-01
5.529735e-01
5.559406e-01
5.594304e-01
5.631196e-01
5.666932e-01
5.699178e-01
0.000000e+00
1.000000e+00
5.684231e-01
5.635267e-01
5.581666e-01
5.526865e-01
5.474928e-01
5.431346e-01
5.402077e-01
5.391849e-01
5.402430e-01
5.431860e-01
5.475861e-01
5.527790e-01
5.582495e-01
5.635825e-01
5.684353e-01
0.000000e+00
1.000000e+00
5.669651e-01
5.604371e-01
5.533387e-01
5.460768e-01
5.391980e-01
5.334277e-01
5.295519e-01
5.281950e-01
5.295915e-01
5.334849e-01
5.393054e-01
5.461949e-01
5.534222e-01
5.604991e-01
5.669544e-01
0.000000e+00
1.000000e+00
5.656282e-01
5.575597e-01
5.488420e-01
5.399262e-01
5.314823e-01
5.243972e-01
5.196346e-01
5.179628e-01
5.196726e-01
5.244580e-01
5.315981e-01
5.400725e-01
5.489323e-01
5.576362e-01
5.655440e-01
0.000000e+00
1.000000e+00
5.645166e-01
5.550811e-01
5.449593e-01
5.346183e-01
5.248200e-01
5.165944e-01
5.110617e-01
5.091163e-01
5.111007e-01
5.166621e-01
5.249373e-01
5.347843e-01
5.450578e-01
5.551647e-01
5.643361e-01
0.000000e+00
1.000000e+00
5.638216e-01
5.531749e-01
5.419195e-01
5.304541e-01
5.195874e-01
5.104638e-01
5.043272e-01
5.021700e-01
5.043737e-01
5.105446e-01
5.197073e-01
5.306298e-01
5.420239e-01
5.532176e-01
5.634219e-01
0.000000e+00
1.000000e+00
5.635656e-01
5.518908e-01
5.398521e-01
5.276201e-01
5.160284e-01
5.062969e-01
4.997520e-01
4.974530e-01
4.998048e-01
5.063917e-01
5.161554e-01
5.277999e-01
5.399726e-01
5.518933e-01
5.627983e-01
0.000000e+00
1.000000e+00
5.630576e-01
5.512007e-01
5.388077e-01
5.261907e-01
5.142338e-01
5.041962e-01
4.974458e-01
4.950750e-01
4.975018e-01
5.043002e-01
5.143677e-01
5.263566e-01
5.389461e-01
5.512372e-01
5.624893e-01
0.000000e+00
1.000000e+00
5.627035e-01
5.511235e-01
5.387476e-01
5.261115e-01
5.141359e-01
5.040823e-01
4.973213e-01
4.949470e-01
4.973786e-01
5.041910e-01
5.142709e-01
5.262689e-01
5.388968e-01
5.512147e-01
5.624439e-01
0.000000e+00
1.000000e+00
5.628815e-01
5.516318e-01
5.395671e-01
5.272339e-01
5.155471e-01
5.057366e-01
4.991394e-01
4.968235e-01
4.991974e-01
5.058481e-01
5.156769e-01
5.274067e-01
5.397202e-01
5.517346e-01
5.627029e-01
0.000000e+00
1.000000e+00
5.632941e-01
5.526239e-01
5.411205e-01
5.293569e-01
5.182116e-01
5.088570e-01
5.025675e-01
5.003612e-01
5.026268e-01
5.089701e-01
5.183359e-01
5.295404e-01
5.412555e-01
5.527402e-01
5.631972e-01
0.000000e+00
1.000000e+00
5.639189e-01
5.539799e-01
5.432368e-01
5.322513e-01
5.218436e-01
5.131088e-01
5.072371e-01
5.051789e-01
5.072969e-01
5.132220e-01
5.219731e-01
5.324375e-01
5.433436e-01
5.541005e-01
5.636714e-01
0.000000e+00
1.000000e+00
5.763117e-01
5.795453e-01
5.832788e-01
5.870735e-01
5.906726e-01
5.936983e-01
5.957387e-01
5.964642e-01
5.957481e-01
5.937242e-01
5.907350e-01
5.871582e-01
5.833696e-01
5.796277e-01
5.760782e-01
0.000000e+00
1.000000e+00
5.755008e-01
5.779324e-01
5.807396e-01
5.835968e-01
5.863070e-01
5.885855e-01
5.901219e-01
5.906675e-01
5.901260e-01
5.885962e-01
5.863496e-01
5.836833e-01
5.808436e-01
5.780170e-01
5.752578e-01
0.000000e+00
1.000000e+00
5.744683e-01
5.758809e-01
5.775134e-01
5.791794e-01
5.807597e-01
5.820882e-01
5.829838e-01
5.833011e-01
5.829838e-01
5.820867e-01
5.807742e-01
5.792435e-01
5.776261e-01
5.759666e-01
5.743182e-01
0.000000e+00
1.000000e+00
5.732266e-01
5.733989e-01
5.736182e-01
5.738457e-01
5.740619e-01
5.742443e-01
5.743679e-01
5.744119e-01
5.743685e-01
5.742450e-01
5.740853e-01
5.739047e-01
5.737050e-01
5.734693e-01
5.731603e-01
0.000000e+00
1.000000e+00
5.718238e-01
5.705412e-01
5.691402e-01
5.677142e-01
5.663625e-01
5.652275e-01
5.644643e-01
5.641966e-01
5.644726e-01
5.652449e-01
5.664243e-01
5.677906e-01
5.692281e-01
5.706060e-01
5.717795e-01
0.000000e+00
1.000000e+00
5.702866e-01
5.674096e-01
5.642355e-01
5.609981e-01
5.579291e-01
5.553525e-01
5.536211e-01
5.530152e-01
5.536426e-01
5.553906e-01
5.580111e-01
5.610773e-01
5.643352e-01
5.674716e-01
5.702853e-01
0.000000e+00
1.000000e+00
5.687137e-01
5.641483e-01
5.591346e-01
5.540124e-01
5.491576e-01
5.450838e-01
5.423479e-01
5.413917e-01
5.423823e-01
5.451353e-01
5.492560e-01
5.541034e-01
5.592284e-01
5.642062e-01
5.687538e-01
0.000000e+00
1.000000e+00
5.671934e-01
5.609412e-01
5.541229e-01
5.471501e-01
5.405444e-01
5.350031e-01
5.312814e-01
5.299783e-01
5.313208e-01
5.350611e-01
5.406579e-01
5.472606e-01
5.542119e-01
5.610000e-01
5.672323e-01
0.000000e+00
1.000000e+00
5.658041e-01
5.579861e-01
5.495072e-01
5.408351e-01
5.326219e-01
5.257313e-01
5.210997e-01
5.194732e-01
5.211369e-01
5.257932e-01
5.327470e-01
5.409702e-01
5.495975e-01
5.580540e-01
5.657834e-01
0.000000e+00
1.000000e+00
5.646426e-01
5.554728e-01
5.455805e-01
5.354673e-01
5.258857e-01
5.178423e-01
5.124322e-01
5.105298e-01
5.124700e-01
5.179111e-01
5.260139e-01
5.356217e-01
5.456755e-01
5.555527e-01
5.645387e-01
0.000000e+00
1.000000e+00
5.639173e-01
5.535839e-01
5.425766e-01
5.313538e-01
5.207176e-01
5.117871e-01
5.057796e-01
5.036680e-01
5.058250e-01
5.118680e-01
5.208477e-01
5.315172e-01
5.426725e-01
5.536321e-01
5.636257e-01
0.000000e+00
1.000000e+00
5.637897e-01
5.523797e-01
5.406206e-01
5.286722e-01
5.173490e-01
5.078434e-01
5.014497e-01
4.992039e-01
5.015019e-01
5.079377e-01
5.174852e-01
5.288388e-01
5.407237e-01
5.523813e-01
5.630307e-01
0.000000e+00
1.000000e+00
5.634164e-01
5.518113e-01
5.397486e-01
5.274786e-01
5.158499e-01
5.060881e-01
4.995232e-01
4.972174e-01
4.995776e-01
5.061901e-01
5.159872e-01
5.276384e-01
5.398636e-01
5.518271e-01
5.627747e-01
0.000000e+00
1.000000e+00
5.630923e-01
5.518651e-01
5.398996e-01
5.276897e-01
5.161180e-01
5.064033e-01
4.998700e-01
4.975757e-01
4.999253e-01
5.065094e-01
5.162501e-01
5.278558e-01
5.400345e-01
5.519408e-01
5.627793e-01
0.000000e+00
1.000000e+00
5.632841e-01
5.525192e-01
5.409550e-01
5.291335e-01
5.179326e-01
5.085303e-01
5.022080e-01
4.999890e-01
5.022646e-01
5.086401e-01
5.180592e-01
5.293142e-01
5.410878e-01
5.526197e-01
5.631024e-01
0.000000e+00
1.000000e+00
5.637675e-01
5.536643e-01
5.427492e-01
5.315854e-01
5.210092e-01
5.121328e-01
5.061656e-01