<?xml version="1.0"?>
<VTKFile type="StructuredGrid" version="0.1">
  <StructuredGrid WholeExtent="0 16 0 16 0 16">
    <Piece Extent="0 16 0 16 0 16">
      <PointData Scalars="temperature" Vectors="velocity">
        <DataArray type="Float32" Name="temperature" format="ascii">
1.000000e+00
5.733839e-01
5.736907e-01
5.740828e-01
5.744812e-01
5.748590e-01
5.751766e-01
5.753905e-01
5.754655e-01
5.753878e-01
5.751713e-01
5.748536e-01
5.745054e-01
5.741293e-01
5.737418e-01
5.731611e-01
0.000000e+00
1.000000e+00
5.726353e-01
5.721650e-01
5.716907e-01
5.712059e-01
5.707464e-01
5.703606e-01
5.701009e-01
5.700086e-01
5.701001e-01
5.703592e-01
5.707492e-01
5.712599e-01
5.717452e-01
5.722186e-01
5.724381e-01
0.000000e+00
1.000000e+00
5.717547e-01
5.703585e-01
5.688601e-01
5.673303e-01
5.658802e-01
5.646624e-01
5.638426e-01
5.635532e-01
5.638457e-01
5.646691e-01
5.658971e-01
5.674052e-01
5.689292e-01
5.704183e-01
5.715788e-01
0.000000e+00
1.000000e+00
5.707594e-01
5.683063e-01
5.656462e-01
5.629299e-01
5.603550e-01
5.581925e-01
5.567372e-01
5.562244e-01
5.567455e-01
5.582092e-01
5.603867e-01
5.630093e-01
5.657190e-01
5.683654e-01
5.706036e-01
0.000000e+00
1.000000e+00
5.696796e-01
5.660691e-01
5.621436e-01
5.581343e-01
5.543335e-01
5.511415e-01
5.489936e-01
5.482377e-01
5.490077e-01
5.511682e-01
5.543782e-01
5.582172e-01
5.622174e-01
5.661276e-01
5.695454e-01
0.000000e+00
1.000000e+00
5.685560e-01
5.637326e-01
5.584861e-01
5.531265e-01
5.480457e-01
5.437789e-01
5.409080e-01
5.398983e-01
5.409281e-01
5.438161e-01
5.481030e-01
5.532161e-01
5.585603e-01
5.637908e-01
5.684351e-01
0.000000e+00
1.000000e+00
5.674377e-01
5.614031e-01
5.548404e-01
5.481349e-01
5.417784e-01
5.364405e-01
5.328493e-01
5.315867e-01
5.328755e-01
5.364885e-01
5.418485e-01
5.482331e-01
5.549155e-01
5.614619e-01
5.673288e-01
0.000000e+00
1.000000e+00
5.663836e-01
5.592000e-01
5.513935e-01
5.434154e-01
5.358529e-01
5.295026e-01
5.252308e-01
5.237293e-01
5.252631e-01
5.295615e-01
5.359362e-01
5.435248e-01
5.514694e-01
5.592582e-01
5.662808e-01
0.000000e+00
1.000000e+00
5.654526e-01
5.572440e-01
5.483343e-01
5.392268e-01
5.305941e-01
5.233458e-01
5.184702e-01
5.167568e-01
5.185078e-01
5.234145e-01
5.306900e-01
5.393478e-01
5.484143e-01
5.573008e-01
5.653612e-01
0.000000e+00
1.000000e+00
5.646981e-01
5.556445e-01
5.458332e-01
5.358026e-01
5.262954e-01
5.183131e-01
5.129440e-01
5.110572e-01
5.129853e-01
5.183892e-01
5.264009e-01
5.359308e-01
5.459244e-01
5.556936e-01
5.646246e-01
0.000000e+00
1.000000e+00
5.641605e-01
5.544867e-01
5.440233e-01
5.333248e-01
5.231851e-01
5.146719e-01
5.089456e-01
5.069330e-01
5.089891e-01
5.147526e-01
5.232973e-01
5.334489e-01
5.441368e-01
5.545286e-01
5.640568e-01
0.000000e+00
1.000000e+00
5.638629e-01
5.538235e-01
5.429865e-01
5.319058e-01
5.214040e-01
5.125868e-01
5.066557e-01
5.045707e-01
5.066998e-01
5.126689e-01
5.215201e-01
5.320167e-01
5.431188e-01
5.538808e-01
5.636030e-01
0.000000e+00
1.000000e+00
5.638052e-01
5.536712e-01
5.427486e-01
5.315805e-01
5.209957e-01
5.121086e-01
5.061302e-01
5.040281e-01
5.061734e-01
5.121893e-01
5.211142e-01
5.316777e-01
5.428788e-01
5.537669e-01
5.633595e-01
0.000000e+00
1.000000e+00
5.639716e-01
5.540115e-01
5.432810e-01
5.323098e-01
5.219113e-01
5.131803e-01
5.073065e-01
5.052407e-01
5.073475e-01
5.132569e-01
5.220267e-01
5.323972e-01
5.434102e-01
5.541955e-01
5.631456e-01
0.000000e+00
1.000000e+00
5.643411e-01
5.547979e-01
5.445114e-01
5.339945e-01
5.240263e-01
5.156563e-01
5.100251e-01
5.080441e-01
5.100631e-01
5.157270e-01
5.241305e-01
5.340851e-01
5.446406e-01
5.550414e-01
5.634084e-01
0.000000e+00
1.000000e+00
5.648857e-01
5.559636e-01
5.463362e-01
5.364931e-01
5.271634e-01
5.193294e-01
5.140585e-01
5.122041e-01
5.140932e-01
5.193934e-01
5.272521e-01
5.365939e-01
5.464601e-01
5.562549e-01
5.640866e-01
0.000000e+00
1.000000e+00
5.655314e-01
5.574344e-01
5.486346e-01
5.396402e-01
5.311151e-01
5.239570e-01
5.191413e-01
5.174476e-01
5.191745e-01
5.240179e-01
5.311952e-01
5.397499e-01
5.487543e-01
5.578929e-01
5.641255e-01
0.000000e+00
1.000000e+00
5.726730e-01
5.722326e-01
5.717987e-01
5.713536e-01
5.709316e-01
5.705773e-01
5.703385e-01
5.702537e-01
5.703375e-01
5.705759e-01
5.709349e-01
5.713900e-01
5.718369e-01
5.722803e-01
5.724593e-01
0.000000e+00
1.000000e+00
5.718978e-01
5.706459e-01
5.693119e-01
5.679488e-01
5.666566e-01
5.655712e-01
5.648404e-01
5.645823e-01
5.648429e-01
5.655775e-01
5.666742e-01
5.680059e-01
5.693605e-01
5.706962e-01
5.717099e-01
0.000000e+00
1.000000e+00
5.709897e-01
5.687734e-01
5.663790e-01
5.639332e-01
5.616146e-01
5.596672e-01
5.583564e-01
5.578943e-01
5.583633e-01
5.596818e-01
5.616439e-01
5.639990e-01
5.664457e-01
5.688325e-01
5.708229e-01
0.000000e+00
1.000000e+00
5.699665e-01
5.666539e-01
5.630605e-01
5.593896e-01
5.559096e-01
5.529869e-01
5.510199e-01
5.503273e-01
5.510320e-01
5.530103e-01
5.559498e-01
5.594588e-01
5.631266e-01
5.667107e-01
5.698092e-01
0.000000e+00
1.000000e+00
5.688608e-01
5.643538e-01
5.594601e-01
5.544600e-01
5.497200e-01
5.457393e-01
5.430606e-01
5.421181e-01
5.430782e-01
5.457722e-01
5.497717e-01
5.545356e-01
5.595289e-01
5.644131e-01
5.687131e-01
0.000000e+00
1.000000e+00
5.677156e-01
5.619670e-01
5.557247e-01
5.493456e-01
5.432985e-01
5.382203e-01
5.348036e-01
5.336019e-01
5.348271e-01
5.382635e-01
5.433627e-01
5.494299e-01
5.557956e-01
5.620278e-01
5.675776e-01
0.000000e+00
1.000000e+00
5.665874e-01
5.596101e-01
5.520371e-01
5.442967e-01
5.369594e-01
5.307982e-01
5.266534e-01
5.251960e-01
5.266830e-01
5.308523e-01
5.370377e-01
5.443911e-01
5.521105e-01
5.596736e-01
5.664559e-01
0.000000e+00
1.000000e+00
5.655398e-01
5.574135e-01
5.486014e-01
5.395925e-01
5.310534e-01
5.238836e-01
5.190606e-01
5.173652e-01
5.190960e-01
5.239482e-01
5.311463e-01
5.396984e-01
5.486775e-01
5.574786e-01
5.654086e-01
0.000000e+00
1.000000e+00
5.646361e-01
5.555078e-01
5.456213e-01
5.355124e-01
5.259312e-01
5.178869e-01
5.124759e-01
5.105740e-01
5.125160e-01
5.179606e-01
5.260375e-01
5.356269e-01
5.457030e-01
5.555752e-01
5.645025e-01
0.000000e+00
1.000000e+00
5.639306e-01
5.540086e-01
5.432770e-01
5.323029e-01
5.219023e-01
5.131703e-01
5.072968e-01
5.052322e-01
5.073402e-01
5.132507e-01
5.220177e-01
5.324247e-01
5.433646e-01
5.540751e-01
5.637933e-01
0.000000e+00
1.000000e+00
5.634627e-01
5.530026e-01
5.417037e-01
5.301491e-01
5.191987e-01
5.100052e-01
5.038211e-01
5.016470e-01
5.038662e-01
5.100894e-01
5.193173e-01
5.302753e-01
5.418033e-01
5.530641e-01
5.633585e-01
0.000000e+00
1.000000e+00
5.632494e-01
5.525384e-01
5.409769e-01
5.291542e-01
5.179498e-01
5.085428e-01
5.022148e-01
4.999899e-01
5.022603e-01
5.086278e-01
5.180678e-01
5.292740e-01
5.410929e-01
5.525965e-01
5.631588e-01
0.000000e+00
1.000000e+00
5.632853e-01
5.526230e-01
5.411078e-01
5.293333e-01
5.181742e-01
5.088051e-01
5.025024e-01
5.002861e-01
5.025469e-01
5.088882e-01
5.182910e-01
5.294410e-01
5.412295e-01
5.526819e-01
5.632559e-01
0.000000e+00
1.000000e+00
5.635549e-01
5.532256e-01
5.420481e-01
5.306204e-01
5.197896e-01
5.106959e-01
5.045783e-01
5.024267e-01
5.046207e-01
5.107747e-01
5.199014e-01
5.307255e-01
5.421655e-01
5.533013e-01
5.633466e-01
0.000000e+00
1.000000e+00
5.640412e-01
5.542857e-01
5.437033e-01
5.328865e-01
5.226342e-01
5.140259e-01
5.082346e-01
5.061976e-01
5.082740e-01
5.140986e-01
5.227351e-01
5.329977e-01
5.438060e-01
5.543760e-01
5.637594e-01
0.000000e+00
1.000000e+00
5.647124e-01
5.557229e-01
5.459491e-01
5.359617e-01
5.264951e-01
5.185461e-01
5.131981e-01
5.113168e-01
5.132340e-01
5.186118e-01
5.265828e-01
5.360765e-01
5.460510e-01
5.558663e-01
5.644674e-01
0.000000e+00
1.000000e+00
5.655419e-01
5.574479e-01
5.486492e-01
5.396590e-01
5.311375e-01
5.239817e-01
5.191672e-01
5.174733e-01
5.191989e-01
5.240398e-01
5.312137e-01
5.397761e-01
5.487609e-01
5.577902e-01
5.643116e-01
0.000000e+00
1.000000e+00
5.720627e-01
5.709699e-01
5.698217e-01
5.686467e-01
5.675327e-01
5.665968e-01
5.659665e-01
5.657436e-01
5.659679e-01
5.666010e-01
5.675455e-01
5.686843e-01
5.698574e-01
5.710159e-01
5.718566e-01
0.000000e+00
1.000000e+00
5.712685e-01
5.693361e-01
5.672621e-01
5.651422e-01
5.631324e-01
5.614442e-01
5.603075e-01
5.599066e-01
5.603128e-01
5.614560e-01
5.631569e-01
5.651881e-01
5.673035e-01
5.693828e-01
5.710931e-01
0.000000e+00
1.000000e+00
5.703391e-01
5.674132e-01
5.642508e-01
5.610193e-01
5.579557e-01
5.553824e-01
5.536503e-01
5.530400e-01
5.536599e-01
5.554018e-01
5.579900e-01
5.610739e-01
5.643077e-01
5.674668e-01
5.701866e-01
0.000000e+00
1.000000e+00
5.692941e-01
5.652428e-01
5.608530e-01
5.563672e-01
5.521145e-01
5.485428e-01
5.461390e-01
5.452925e-01
5.461533e-01
5.485705e-01
5.521589e-01
5.564276e-01
5.609117e-01
5.652971e-01
5.691516e-01
0.000000e+00
1.000000e+00
5.681681e-01
5.628968e-01
5.571811e-01
5.513397e-01
5.458021e-01
5.411516e-01
5.380221e-01
5.369208e-01
5.380419e-01
5.411889e-01
5.458586e-01
5.514084e-01
5.572435e-01
5.629543e-01
5.680373e-01
0.000000e+00
1.000000e+00
5.670090e-01
5.604768e-01
5.533944e-01
5.461551e-01
5.392926e-01
5.335297e-01
5.296524e-01
5.282883e-01
5.296781e-01
5.335776e-01
5.393634e-01
5.462340e-01
5.534603e-01
5.605373e-01
5.668873e-01
0.000000e+00
1.000000e+00
5.658786e-01
5.581095e-01
5.496911e-01
5.410846e-01
5.329266e-01
5.260765e-01
5.214681e-01
5.198473e-01
5.214998e-01
5.261353e-01
5.330136e-01
5.411745e-01
5.497609e-01
5.581735e-01
5.657637e-01
0.000000e+00
1.000000e+00
5.648448e-01
5.559355e-01
5.462911e-01
5.364295e-01
5.270826e-01
5.192347e-01
5.139554e-01
5.120990e-01
5.139926e-01
5.193039e-01
5.271856e-01
5.365298e-01
5.463647e-01
5.560024e-01
5.647285e-01
0.000000e+00
1.000000e+00
5.639750e-01
5.540942e-01
5.434119e-01
5.324879e-01
5.221347e-01
5.134424e-01
5.075952e-01
5.055392e-01
5.076367e-01
5.135202e-01
5.222507e-01
5.325995e-01
5.434882e-01
5.541634e-01
5.638555e-01
0.000000e+00
1.000000e+00
5.633267e-01
5.527064e-01
5.412421e-01
5.295177e-01
5.184067e-01
5.090783e-01
5.028031e-01
5.005965e-01
5.028476e-01
5.091623e-01
5.185292e-01
5.296452e-01
5.413207e-01
5.527751e-01
5.631957e-01
0.000000e+00
1.000000e+00
5.629373e-01
5.518592e-01
5.399172e-01
5.277045e-01
5.161309e-01
5.064140e-01
4.998774e-01
4.975786e-01
4.999234e-01
5.065015e-01
5.162539e-01
5.278435e-01
5.400082e-01
5.519280e-01
5.627969e-01
0.000000e+00
1.000000e+00
5.628158e-01
5.515952e-01
5.395045e-01
5.271397e-01
5.154220e-01
5.055840e-01
4.989656e-01
4.966380e-01
4.990119e-01
5.056719e-01
5.155420e-01
5.272760e-01
5.396153e-01
5.516614e-01
5.626673e-01
0.000000e+00
1.000000e+00
5.629510e-01
5.519119e-01
5.399995e-01
5.278170e-01
5.162718e-01
5.065785e-01
5.000574e-01
4.977639e-01
5.001027e-01
5.066639e-01
5.163887e-01
5.279389e-01
5.401210e-01
5.519777e-01
5.628594e-01
0.000000e+00
1.000000e+00
5.633328e-01
5.527666e-01
5.413335e-01
5.296426e-01
5.185628e-01
5.092602e-01
5.030020e-01
5.008009e-01
5.030451e-01
5.093408e-01
5.186727e-01
5.297609e-01
5.414536e-01
5.528390e-01
5.631539e-01
0.000000e+00
1.000000e+00
5.639411e-01
5.540841e-01
5.433898e-01
5.324575e-01
5.220960e-01
5.133962e-01
5.075434e-01
5.054849e-01
5.075835e-01
5.134701e-01
5.221944e-01
5.325822e-01
5.434870e-01
5.541569e-01
5.637471e-01
0.000000e+00
1.000000e+00
5.647392e-01
5.557704e-01
5.460241e-01
5.360642e-01
5.266238e-01
5.186969e-01
5.133639e-01
5.114881e-01
5.134001e-01
5.187629e-01
5.267104e-01
5.361867e-01
5.461166e-01
5.558790e-01
5.645880e-01
0.000000e+00
1.000000e+00
5.656799e-01
5.577252e-01
5.490832e-01
5.402532e-01
5.318832e-01
5.248549e-01
5.201260e-01
5.184624e-01
5.201577e-01
5.249125e-01
5.319599e-01
5.403729e-01
5.491819e-01
5.579767e-01
5.647079e-01
0.000000e+00
1.000000e+00
5.715891e-01
5.699842e-01
5.682794e-01
5.665349e-01
5.648810e-01
5.634915e-01
5.625558e-01
5.622254e-01
5.625593e-01
5.634999e-01
5.648986e-01
5.665658e-01
5.683088e-01
5.700184e-01
5.713686e-01
0.000000e+00
1.000000e+00
5.707861e-01
5.683256e-01
5.656812e-01
5.629776e-01
5.604144e-01
5.582612e-01
5.568115e-01
5.563003e-01
5.568185e-01
5.582759e-01
5.604403e-01
5.630142e-01
5.657138e-01
5.683671e-01
5.706170e-01
0.000000e+00
1.000000e+00
5.698461e-01
5.663757e-01
5.626281e-01
5.587975e-01
5.551659e-01
5.521155e-01
5.500622e-01
5.493386e-01
5.500731e-01
5.521373e-01
5.552007e-01
5.588434e-01
5.626759e-01
5.664258e-01
5.697000e-01
0.000000e+00
1.000000e+00
5.687901e-01
5.641788e-01
5.591892e-01
5.540892e-01
5.492542e-01
5.451934e-01
5.424603e-01
5.414978e-01
5.424760e-01
5.452235e-01
5.492997e-01
5.541421e-01
5.592403e-01
5.642320e-01
5.686468e-01
0.000000e+00
1.000000e+00
5.676553e-01
5.618112e-01
5.554840e-01
5.490161e-01
5.428848e-01
5.377355e-01
5.342705e-01
5.330507e-01
5.342916e-01
5.377756e-01
5.429439e-01
5.490784e-01
5.555407e-01
5.618692e-01
5.675204e-01
0.000000e+00
1.000000e+00
5.664939e-01
5.593814e-01
5.516825e-01
5.438113e-01
5.363500e-01
5.300845e-01
5.258687e-01
5.243853e-01
5.258960e-01
5.301355e-01
5.364254e-01
5.438835e-01
5.517444e-01
5.594443e-01
5.663646e-01
0.000000e+00
1.000000e+00
5.653714e-01
5.570247e-01
5.479962e-01
5.387642e-01
5.300138e-01
5.226662e-01
5.177229e-01
5.159840e-01
5.177561e-01
5.227283e-01
5.301067e-01
5.388466e-01
5.480624e-01
5.570922e-01
5.652486e-01
0.000000e+00
1.000000e+00
5.643606e-01
5.548907e-01
5.446589e-01
5.341953e-01
5.242783e-01
5.159518e-01
5.103501e-01
5.083799e-01
5.103884e-01
5.160240e-01
5.243873e-01
5.342909e-01
5.447280e-01
5.549618e-01
5.642370e-01
0.000000e+00
1.000000e+00
5.635324e-01
5.531262e-01
5.418998e-01
5.304186e-01
5.195379e-01
5.104025e-01
5.042566e-01
5.020950e-01
5.042988e-01
5.104827e-01
5.196583e-01
5.305313e-01
5.419696e-01
5.532003e-01
5.633984e-01
0.000000e+00
1.000000e+00
5.629462e-01
5.518563e-01
5.399137e-01
5.277008e-01
5.161270e-01
5.064094e-01
4.998718e-01
4.975722e-01
4.999166e-01
5.064952e-01
5.162525e-01
5.278337e-01
5.399875e-01
5.519303e-01
5.627933e-01
0.000000e+00
1.000000e+00
5.626368e-01
5.511672e-01
5.388352e-01
5.262253e-01
5.142752e-01
5.042414e-01
4.974908e-01
4.951162e-01
4.975369e-01
5.043298e-01
5.143997e-01
5.263721e-01
5.389222e-01
5.512349e-01
5.624693e-01
0.000000e+00
1.000000e+00
5.626001e-01
5.510945e-01
5.387223e-01
5.260706e-01
5.140808e-01
5.040136e-01
4.972406e-01
4.948579e-01
4.972866e-01
5.041016e-01
5.142009e-01
5.262173e-01
5.388270e-01
5.511585e-01
5.624299e-01
0.000000e+00
1.000000e+00
5.628214e-01
5.516260e-01
5.395539e-01
5.272081e-01
5.155081e-01
5.056844e-01
4.990752e-01
4.967503e-01
4.991200e-01
5.057693e-01
5.156238e-01
5.273426e-01
5.396613e-01
5.516887e-01
5.627131e-01
0.000000e+00
1.000000e+00
5.633022e-01
5.527076e-01
5.412416e-01
5.295174e-01
5.184061e-01
5.090768e-01
5.028004e-01
5.005927e-01
5.028430e-01
5.091564e-01
5.185136e-01
5.296449e-01
5.413481e-01
5.527723e-01
5.631721e-01
0.000000e+00
1.000000e+00
5.640259e-01
5.542493e-01
5.436485e-01
5.328118e-01
5.225410e-01
5.139173e-01
5.081157e-01
5.060751e-01
5.081551e-01
5.139899e-01
5.226371e-01
5.329404e-01
5.437399e-01
5.543082e-01
5.638879e-01
0.000000e+00
1.000000e+00
5.649220e-01
5.561454e-01
5.466120e-01
5.368695e-01
5.276348e-01
5.198806e-01
5.146638e-01
5.128290e-01
5.146995e-01
5.199452e-01
5.277201e-01
5.369906e-01
5.466983e-01
5.562229e-01
5.648462e-01
0.000000e+00
1.000000e+00
5.659514e-01
5.582886e-01
5.499658e-01
5.414619e-01
5.334011e-01
5.266320e-01
5.220776e-01
5.204756e-01
5.221086e-01
5.266882e-01
5.334778e-01
5.415774e-01
5.500542e-01
5.584562e-01
5.652746e-01
0.000000e+00
1.000000e+00
5.712908e-01
5.693550e-01
5.672955e-01
5.651879e-01
5.631896e-01
5.615108e-01
5.603803e-01
5.599813e-01
5.603849e-01
5.615211e-01
5.632078e-01
5.652121e-01
5.673201e-01
5.693522e-01
5.710708e-01
0.000000e+00
1.000000e+00
5.704925e-01
5.677016e-01
5.647057e-01
5.616419e-01
5.587372e-01
5.562972e-01
5.546544e-01
5.540750e-01
5.546620e-01
5.563128e-01
5.587622e-01
5.616711e-01
5.647326e-01
5.677295e-01
5.702603e-01
0.000000e+00
1.000000e+00
5.695569e-01
5.657568e-01
5.616608e-01
5.574730e-01
5.535028e-01
5.501680e-01
5.479232e-01
5.471320e-01
5.479346e-01
5.501905e-01
5.535367e-01
5.575118e-01
5.617015e-01
5.658034e-01
5.693785e-01
0.000000e+00
1.000000e+00
5.685059e-01
5.635663e-01
5.582321e-01
5.527786e-01
5.476088e-01
5.432666e-01
5.403442e-01
5.393148e-01
5.403603e-01
5.432976e-01
5.476542e-01
5.528249e-01
5.582784e-01
5.636192e-01
5.683444e-01
0.000000e+00
1.000000e+00
5.673789e-01
5.612095e-01
5.545439e-01
5.477290e-01
5.412688e-01
5.358434e-01
5.321924e-01
5.309070e-01
5.322141e-01
5.358846e-01
5.413289e-01
5.477836e-01
5.545969e-01
5.612685e-01
5.672295e-01
0.000000e+00
1.000000e+00
5.662300e-01
5.587999e-01
5.507740e-01
5.425674e-01
5.347886e-01
5.282563e-01
5.238610e-01
5.223142e-01
5.238887e-01
5.283086e-01
5.348657e-01
5.426316e-01
5.508325e-01
5.588653e-01
5.660868e-01
0.000000e+00
1.000000e+00
5.651273e-01
5.564788e-01
5.471435e-01
5.375971e-01
5.285489e-01
5.209513e-01
5.158395e-01
5.140410e-01
5.158729e-01
5.210146e-01
5.286435e-01
5.376742e-01
5.472072e-01
5.565496e-01
5.649847e-01
0.000000e+00
1.000000e+00
5.641479e-01
5.544027e-01
5.438968e-01
5.331528e-01
5.229702e-01
5.144203e-01
5.086681e-01
5.066444e-01
5.087063e-01
5.144932e-01
5.230803e-01
5.332447e-01
5.439627e-01
5.544789e-01
5.640009e-01
0.000000e+00
1.000000e+00
5.633660e-01
5.527243e-01
5.412717e-01
5.295602e-01
5.184612e-01
5.091417e-01
5.028716e-01
5.006656e-01
5.029133e-01
5.092218e-01
5.185819e-01
5.296705e-01
5.413379e-01
5.528017e-01
5.632048e-01
0.000000e+00
1.000000e+00
5.628456e-01
5.515722e-01
5.394670e-01
5.270914e-01
5.153626e-01
5.055141e-01
4.988877e-01
4.965563e-01
4.989316e-01
5.055987e-01
5.154882e-01
5.272206e-01
5.395365e-01
5.516464e-01
5.626584e-01
0.000000e+00
1.000000e+00
5.626155e-01
5.510294e-01
5.386147e-01
5.259257e-01
5.138994e-01
5.038007e-01
4.970058e-01
4.946151e-01
4.970506e-01
5.038869e-01
5.140234e-01
5.260694e-01
5.386922e-01
5.510958e-01
5.623987e-01
0.000000e+00
1.000000e+00
5.626383e-01
5.511213e-01
5.387629e-01
5.261282e-01
5.141533e-01
5.040979e-01
4.973322e-01
4.949517e-01
4.973767e-01
5.041831e-01
5.142726e-01
5.262749e-01
5.388506e-01
5.511885e-01
5.624401e-01
0.000000e+00
1.000000e+00
5.629178e-01
5.518312e-01
5.398763e-01
5.276507e-01
5.160641e-01
5.063351e-01
4.997893e-01
4.974862e-01
4.998325e-01
5.064169e-01
5.161783e-01
5.277879e-01
5.399626e-01
5.518993e-01
5.627946e-01
0.000000e+00
1.000000e+00
5.634987e-01
5.530955e-01
5.418497e-01
5.303504e-01
5.194521e-01
5.103014e-01
5.041450e-01
5.019791e-01
5.041858e-01
5.103778e-01
5.195576e-01
5.304789e-01
5.419361e-01
5.531615e-01
5.633885e-01
0.000000e+00
1.000000e+00
5.642989e-01
5.548105e-01
5.445287e-01
5.340175e-01
5.240551e-01
5.156901e-01
5.100621e-01
5.080825e-01
5.100999e-01
5.157593e-01
5.241489e-01
5.341426e-01
5.446062e-01
5.548645e-01
5.642445e-01
0.000000e+00
1.000000e+00
5.652707e-01
5.568637e-01
5.477377e-01
5.384108e-01
5.295705e-01
5.221477e-01
5.171533e-01
5.153965e-01
5.171870e-01
5.222090e-01
5.296541e-01
5.385256e-01
5.478136e-01
5.569221e-01
5.652948e-01
0.000000e+00
1.000000e+00
5.663615e-01
5.591411e-01
5.513009e-01
5.432897e-01
5.356962e-01
5.293200e-01
5.250299e-01
5.235203e-01
5.250586e-01
5.293733e-01
5.357719e-01
5.433967e-01
5.513794e-01
5.592527e-01
5.659151e-01
0.000000e+00
1.000000e+00
5.711994e-01
5.691505e-01
5.669766e-01
5.647511e-01
5.626412e-01
5.608686e-01
5.596749e-01
5.592536e-01
5.596797e-01
5.608790e-01
5.626576e-01
5.647693e-01
5.669963e-01
5.690904e-01
5.712810e-01
0.000000e+00
1.000000e+00
5.704226e-01
5.675392e-01
5.644526e-01
5.612954e-01
5.583022e-01
5.557877e-01
5.540948e-01
5.534977e-01
5.541024e-01
5.558030e-01
5.583248e-01
5.613182e-01
5.644755e-01
5.675234e-01
5.701756e-01
0.000000e+00
1.000000e+00
5.695105e-01
5.656388e-01
5.614769e-01
5.572213e-01
5.531868e-01
5.497979e-01
5.475167e-01
5.467126e-01
5.475279e-01
5.498199e-01
5.532184e-01
5.572526e-01
5.615120e-01
5.656610e-01
5.692861e-01
0.000000e+00
1.000000e+00
5.684832e-01
5.634949e-01
5.581208e-01
5.526261e-01
5.474172e-01
5.430424e-01
5.400979e-01
5.390607e-01
5.401139e-01
5.430730e-01
5.474607e-01
5.526649e-01
5.581629e-01
5.635345e-01
5.682852e-01
0.000000e+00
1.000000e+00
5.673782e-01
5.611877e-01
5.545099e-01
5.476823e-01
5.412100e-01
5.357746e-01
5.321169e-01
5.308290e-01
5.321383e-01
5.358155e-01
5.412679e-01
5.477307e-01
5.545609e-01
5.612428e-01
5.672087e-01
0.000000e+00
1.000000e+00
5.662529e-01
5.588325e-01
5.508253e-01
5.426376e-01
5.348765e-01
5.283593e-01
5.239741e-01
5.224307e-01
5.240013e-01
5.284112e-01
5.349511e-01
5.426962e-01
5.508831e-01
5.588990e-01
5.660984e-01
0.000000e+00
1.000000e+00
5.651817e-01
5.565742e-01
5.472932e-01
5.378022e-01
5.288063e-01
5.212527e-01
5.161704e-01
5.143820e-01
5.162030e-01
5.213151e-01
5.288982e-01
5.378733e-01
5.473555e-01
5.566487e-01
5.650267e-01
0.000000e+00
1.000000e+00
5.642463e-01
5.545734e-01
5.441638e-01
5.335186e-01
5.234294e-01
5.149579e-01
5.092580e-01
5.072524e-01
5.092950e-01
5.150291e-01
5.235366e-01
5.336036e-01
5.442278e-01
5.546513e-01
5.640778e-01
0.000000e+00
1.000000e+00
5.635211e-01
5.529865e-01
5.416790e-01
5.301185e-01
5.191619e-01
5.099617e-01
5.037713e-01
5.015931e-01
5.038114e-01
5.100391e-01
5.192796e-01
5.302192e-01
5.417432e-01
5.530639e-01
5.633212e-01
0.000000e+00
1.000000e+00
5.630700e-01
5.519449e-01
5.400392e-01
5.278756e-01
5.163465e-01
5.066651e-01
5.001507e-01
4.978583e-01
5.001925e-01
5.067458e-01
5.164687e-01
5.279919e-01
5.401034e-01
5.520115e-01
5.628168e-01
0.000000e+00
1.000000e+00
5.629370e-01
5.515285e-01
5.393732e-01
5.269642e-01
5.152019e-01
5.053244e-01
4.986781e-01
4.963392e-01
4.987205e-01
5.054058e-01
5.153227e-01
5.270931e-01
5.394395e-01
5.515787e-01
5.626112e-01
0.000000e+00
1.000000e+00
5.629561e-01
5.517389e-01
5.397192e-01
5.274377e-01
5.157964e-01
5.060207e-01
4.994429e-01
4.971281e-01
4.994847e-01
5.061005e-01
5.159128e-01
5.275713e-01
5.397917e-01
5.517972e-01
5.627050e-01
0.000000e+00
1.000000e+00
5.632863e-01
5.525697e-01
5.410321e-01
5.292340e-01
5.180514e-01
5.086612e-01
5.023431e-01
5.001197e-01
5.023835e-01
5.087375e-01
5.181628e-01
5.293596e-01
5.411053e-01
5.526367e-01
5.631053e-01
0.000000e+00
1.000000e+00
5.639181e-01
5.539532e-01
5.431951e-01
5.321938e-01
5.217669e-01
5.130112e-01
5.071198e-01
5.050469e-01
5.071578e-01
5.130818e-01
5.218689e-01
5.323114e-01
5.432703e-01
5.540193e-01
5.637494e-01
0.000000e+00
1.000000e+00
5.647688e-01
5.557764e-01
5.460429e-01
5.360912e-01
5.266599e-01
5.187407e-01
5.134116e-01
5.115365e-01
5.134460e-01
5.188042e-01
5.267506e-01
5.362050e-01
5.461129e-01
5.558322e-01
5.646614e-01
0.000000e+00
1.000000e+00
5.657792e-01
5.579201e-01
5.493922e-01
5.406756e-01
5.324145e-01
5.254786e-01
5.208119e-01
5.191695e-01
5.208422e-01
5.255355e-01
5.324955e-01
5.407784e-01
5.494616e-01
5.579721e-01
5.657877e-01
0.000000e+00
1.000000e+00
5.669029e-01
5.602656e-01
5.530612e-01
5.456992e-01
5.387211e-01
5.328622e-01
5.289210e-01
5.275340e-01
5.289469e-01
5.329122e-01
5.387938e-01
5.457937e-01
5.531328e-01
5.603436e-01
5.666362e-01
0.000000e+00
1.000000e+00
5.713352e-01
5.694175e-01
5.673956e-01
5.653249e-01
5.633617e-01
5.617124e-01
5.606018e-01
5.602098e-01
5.606060e-01
5.617218e-01
5.633753e-01
5.653386e-01
5.674136e-01
5.693698e-01
5.721022e-01
0.000000e+00
1.000000e+00
5.706004e-01
5.678896e-01
5.650014e-01
5.620469e-01
5.592459e-01
5.568929e-01
5.553088e-01
5.547500e-01
5.553158e-01
5.569072e-01
5.592656e-01
5.620647e-01
5.650212e-01
5.678291e-01
5.707498e-01
0.000000e+00
1.000000e+00
5.697246e-01
5.660768e-01
5.621624e-01
5.581598e-01
5.543652e-01
5.511780e-01
5.490326e-01
5.482763e-01
5.490431e-01
5.511988e-01
5.543935e-01
5.581860e-01
5.621943e-01
5.660535e-01
5.697133e-01
0.000000e+00
1.000000e+00
5.687340e-01
5.640228e-01
5.589468e-01
5.537571e-01
5.488372e-01
5.447052e-01
5.419243e-01
5.409446e-01
5.419394e-01
5.447345e-01
5.488767e-01
5.537916e-01
5.589888e-01
5.640282e-01
5.686430e-01
0.000000e+00
1.000000e+00
5.676715e-01
5.618059e-01
5.554776e-01
5.490071e-01
5.428738e-01
5.377229e-01
5.342567e-01
5.330363e-01
5.342771e-01
5.377621e-01
5.429270e-01
5.490514e-01
5.555296e-01
5.618487e-01
5.674881e-01
0.000000e+00
1.000000e+00
5.665929e-01
5.595408e-01
5.519342e-01
5.441556e-01
5.367833e-01
5.305922e-01
5.264264e-01
5.249602e-01
5.264523e-01
5.306420e-01
5.368524e-01
5.442100e-01
5.519932e-01
5.596082e-01
5.664310e-01
0.000000e+00
1.000000e+00
5.655690e-01
5.573720e-01
5.485419e-01
5.395117e-01
5.309539e-01
5.237675e-01
5.189320e-01
5.172305e-01
5.189630e-01
5.238272e-01
5.310397e-01
5.395767e-01
5.486056e-01
5.574497e-01
5.654156e-01
0.000000e+00
1.000000e+00
5.646758e-01
5.554603e-01
5.455505e-01
5.354176e-01
5.258152e-01
5.177514e-01
5.123253e-01
5.104160e-01
5.123603e-01
5.178190e-01
5.259159e-01
5.354940e-01
5.456162e-01
5.555400e-01
5.645079e-01
0.000000e+00
1.000000e+00
5.639891e-01
5.539623e-01
5.432022e-01
5.322050e-01
5.217828e-01
5.130293e-01
5.071395e-01
5.050670e-01
5.071773e-01
5.131023e-01
5.218936e-01
5.322928e-01
5.432673e-01
5.540366e-01
5.637903e-01
0.000000e+00
1.000000e+00
5.636238e-01
5.530155e-01
5.416973e-01
5.301454e-01
5.191953e-01
5.099993e-01
5.038117e-01
5.016342e-01
5.038508e-01
5.100748e-01
5.193110e-01
5.302439e-01
5.417580e-01
5.530617e-01
5.633482e-01
0.000000e+00
1.000000e+00
5.636625e-01
5.526937e-01
5.411586e-01
5.294064e-01
5.182664e-01
5.089117e-01
5.026172e-01
5.004018e-01
5.026565e-01
5.089871e-01
5.183819e-01
5.295144e-01
5.412161e-01
5.527004e-01
5.631967e-01
0.000000e+00
1.000000e+00
5.636840e-01
5.529721e-01
5.416187e-01
5.300364e-01
5.190575e-01
5.098382e-01
5.036346e-01
5.014512e-01
5.036731e-01
5.099114e-01
5.191692e-01
5.301494e-01
5.416785e-01
5.529832e-01
5.633265e-01
0.000000e+00
1.000000e+00
5.639380e-01
5.538500e-01
5.430275e-01
5.319660e-01
5.214804e-01
5.126747e-01
5.067494e-01
5.046641e-01
5.067861e-01
5.127437e-01
5.215860e-01
5.320715e-01
5.430884e-01
5.538767e-01
5.637641e-01
0.000000e+00
1.000000e+00
5.645629e-01
5.552723e-01
5.452619e-01
5.350253e-01
5.253234e-01
5.171751e-01
5.116909e-01
5.097608e-01
5.117246e-01
5.172378e-01
5.254190e-01
5.351262e-01
5.453282e-01
5.553024e-01
5.644322e-01
0.000000e+00
1.000000e+00
5.654197e-01
5.571262e-01
5.481572e-01
5.389860e-01
5.302955e-01
5.229991e-01
5.180883e-01
5.163587e-01
5.181177e-01
5.230558e-01
5.303813e-01
5.390842e-01
5.482196e-01
5.571500e-01
5.653361e-01
0.000000e+00
1.000000e+00
5.664344e-01
5.592828e-01
5.515259e-01
5.435964e-01
5.360814e-01
5.297727e-01
5.255290e-01
5.240347e-01
5.255552e-01
5.298245e-01
5.361578e-01
5.436844e-01
5.515885e-01
5.593074e-01
5.664271e-01
0.000000e+00
1.000000e+00
5.675552e-01
5.616223e-01
5.551851e-01
5.486066e-01
5.423712e-01
5.371358e-01
5.336148e-01
5.323765e-01
5.336383e-01
5.371810e-01
5.424398e-01
5.486880e-01
5.552512e-01
5.616689e-01
5.673827e-01
0.000000e+00
1.000000e+00
5.717059e-01
5.701730e-01
5.685792e-01
5.669458e-01
5.653973e-01
5.640965e-01
5.632205e-01
5.629112e-01
5.632236e-01
5.641037e-01
5.654073e-01
5.669577e-01
5.686028e-01
5.702489e-01
5.727662e-01
0.000000e+00
1.000000e+00
5.710236e-01
5.687691e-01
5.663785e-01
5.639325e-01
5.616136e-01
5.596659e-01
5.583547e-01
5.578922e-01
5.583607e-01
5.596786e-01
5.616308e-01
5.639501e-01
5.664034e-01
5.687453e-01
5.716798e-01
0.000000e+00
1.000000e+00
5.702088e-01
5.670861e-01
5.637425e-01
5.603232e-01
5.570817e-01
5.543592e-01
5.525268e-01
5.518810e-01
5.525363e-01
5.543784e-01
5.571068e-01
5.603478e-01
5.637758e-01
5.670455e-01
5.705030e-01
0.000000e+00
1.000000e+00
5.692854e-01
5.651639e-01
5.607334e-01
5.562032e-01
5.519088e-01
5.483023e-01
5.458752e-01
5.450204e-01
5.458891e-01
5.483296e-01
5.519440e-01
5.562357e-01
5.607759e-01
5.651345e-01
5.694388e-01
0.000000e+00
1.000000e+00
5.682904e-01
5.630769e-01
5.574677e-01
5.517319e-01
5.462950e-01
5.417296e-01
5.386574e-01
5.375760e-01
5.386763e-01
5.417662e-01
5.463428e-01
5.517738e-01
5.575217e-01
5.630863e-01
5.681337e-01
0.000000e+00
1.000000e+00
5.672740e-01
5.609356e-01
5.541173e-01
5.471448e-01
5.405364e-01
5.349874e-01
5.312537e-01
5.299398e-01
5.312777e-01
5.350340e-01
5.405985e-01
5.471957e-01
5.541810e-01
5.609905e-01
5.670206e-01
0.000000e+00
1.000000e+00
5.663051e-01
5.588796e-01
5.509004e-01
5.427410e-01
5.350086e-01
5.285157e-01
5.241468e-01
5.226094e-01
5.241752e-01
5.285712e-01
5.350855e-01
5.428000e-01
5.509692e-01
5.589549e-01
5.660786e-01
0.000000e+00
1.000000e+00
5.654613e-01
5.570652e-01
5.480601e-01
5.388539e-01
5.301298e-01
5.228037e-01
5.178737e-01
5.161388e-01
5.179055e-01
5.228660e-01
5.302203e-01
5.389205e-01
5.481302e-01
5.571428e-01
5.652412e-01
0.000000e+00
1.000000e+00
5.648220e-01
5.556464e-01
5.458335e-01
5.358079e-01
5.263061e-01
5.183261e-01
5.129559e-01
5.110660e-01
5.129900e-01
5.183927e-01
5.264066e-01
5.358812e-01
5.459010e-01
5.557118e-01
5.646127e-01
0.000000e+00
1.000000e+00
5.644852e-01
5.547576e-01
5.444169e-01
5.338687e-01
5.238697e-01
5.154729e-01
5.098219e-01
5.078331e-01
5.098572e-01
5.155411e-01
5.239758e-01
5.339478e-01
5.444763e-01
5.547872e-01
5.642730e-01
0.000000e+00
1.000000e+00
5.645429e-01
5.544663e-01
5.439304e-01
5.332008e-01
5.230303e-01
5.144895e-01
5.087419e-01
5.067192e-01
5.087775e-01
5.145577e-01
5.231374e-01
5.332858e-01
5.439826e-01
5.544520e-01
5.642261e-01
0.000000e+00
1.000000e+00
5.646968e-01
5.547653e-01
5.444067e-01
5.338526e-01
5.238483e-01
5.154468e-01
5.097937e-01
5.078040e-01
5.098283e-01
5.155132e-01
5.239524e-01
5.339398e-01
5.444562e-01
5.547396e-01
5.644301e-01
0.000000e+00
1.000000e+00
5.649047e-01
5.556344e-01
5.457958e-01
5.357559e-01
5.262383e-01
5.182444e-01
5.128645e-01
5.109710e-01
5.128968e-01
5.183052e-01
5.263345e-01
5.358349e-01
5.458449e-01
5.556176e-01
5.649099e-01
0.000000e+00
1.000000e+00
5.654123e-01
5.570083e-01
5.479747e-01
5.387401e-01
5.299883e-01
5.226379e-01
5.176891e-01
5.159460e-01
5.177171e-01
5.226918e-01
5.300746e-01
5.388180e-01
5.480311e-01
5.570092e-01
5.656107e-01
0.000000e+00
1.000000e+00
5.662297e-01
5.588059e-01
5.507870e-01
5.425865e-01
5.348160e-01
5.282928e-01
5.239027e-01
5.223549e-01
5.239266e-01
5.283422e-01
5.348947e-01
5.426641e-01
5.508418e-01
5.588072e-01
5.664694e-01
0.000000e+00
1.000000e+00
5.672091e-01
5.608935e-01
5.540478e-01
5.470489e-01
5.404160e-01
5.348479e-01
5.311032e-01