<?xml version="1.0"?>
<VTKFile type="StructuredGrid" version="0.1">
  <StructuredGrid WholeExtent="0 16 0 16 0 16">
    <Piece Extent="0 16 0 16 0 16">
      <PointData Scalars="temperature" Vectors="velocity">
        <DataArray type="Float32" Name="temperature" format="ascii">
1.000000e+00
5.730751e-01
5.730243e-01
5.730414e-01
5.730555e-01
5.730689e-01
5.730802e-01
5.730877e-01
5.730904e-01
5.730878e-01
5.730804e-01
5.730694e-01
5.730563e-01
5.730419e-01
5.730456e-01
5.728287e-01
0.000000e+00
1.000000e+00
5.730605e-01
5.730168e-01
5.730298e-01
5.730395e-01
5.730487e-01
5.730563e-01
5.730615e-01
5.730632e-01
5.730614e-01
5.730563e-01
5.730489e-01
5.730415e-01
5.730323e-01
5.730368e-01
5.727988e-01
0.000000e+00
1.000000e+00
5.729478e-01
5.727727e-01
5.726452e-01
5.725131e-01
5.723879e-01
5.722826e-01
5.722116e-01
5.721864e-01
5.722114e-01
5.722822e-01
5.723874e-01
5.725175e-01
5.726515e-01
5.727999e-01
5.727703e-01
0.000000e+00
1.000000e+00
5.726949e-01
5.722665e-01
5.718514e-01
5.714261e-01
5.710228e-01
5.706840e-01
5.704556e-01
5.703747e-01
5.704555e-01
5.706840e-01
5.710230e-01
5.714364e-01
5.718651e-01
5.722860e-01
5.725686e-01
0.000000e+00
1.000000e+00
5.723092e-01
5.714888e-01
5.706319e-01
5.697563e-01
5.689261e-01
5.682286e-01
5.677587e-01
5.675925e-01
5.677594e-01
5.682308e-01
5.689294e-01
5.697768e-01
5.706566e-01
5.715160e-01
5.721532e-01
0.000000e+00
1.000000e+00
5.717972e-01
5.704475e-01
5.689996e-01
5.675214e-01
5.661199e-01
5.649425e-01
5.641495e-01
5.638695e-01
5.641523e-01
5.649488e-01
5.661284e-01
5.675535e-01
5.690365e-01
5.704872e-01
5.716264e-01
0.000000e+00
1.000000e+00
5.711766e-01
5.691718e-01
5.670006e-01
5.647844e-01
5.626833e-01
5.609184e-01
5.597301e-01
5.593110e-01
5.597358e-01
5.609302e-01
5.626985e-01
5.648280e-01
5.670484e-01
5.692189e-01
5.710196e-01
0.000000e+00
1.000000e+00
5.704704e-01
5.677120e-01
5.647141e-01
5.616539e-01
5.587528e-01
5.563161e-01
5.546759e-01
5.540978e-01
5.546849e-01
5.563338e-01
5.587752e-01
5.617085e-01
5.647723e-01
5.677648e-01
5.703329e-01
0.000000e+00
1.000000e+00
5.697109e-01
5.661370e-01
5.622478e-01
5.582773e-01
5.545133e-01
5.513522e-01
5.492248e-01
5.484757e-01
5.492379e-01
5.513767e-01
5.545436e-01
5.583431e-01
5.623150e-01
5.661942e-01
5.695893e-01
0.000000e+00
1.000000e+00
5.689359e-01
5.645280e-01
5.597284e-01
5.548281e-01
5.501829e-01
5.462819e-01
5.436568e-01
5.427331e-01
5.436742e-01
5.463134e-01
5.502210e-01
5.549046e-01
5.598039e-01
5.645901e-01
5.688285e-01
0.000000e+00
1.000000e+00
5.681862e-01
5.629696e-01
5.572885e-01
5.514877e-01
5.459891e-01
5.413715e-01
5.382645e-01
5.371716e-01
5.382858e-01
5.414096e-01
5.460341e-01
5.515743e-01
5.573704e-01
5.630344e-01
5.680929e-01
0.000000e+00
1.000000e+00
5.674987e-01
5.615408e-01
5.550515e-01
5.484252e-01
5.421442e-01
5.368697e-01
5.333209e-01
5.320729e-01
5.333457e-01
5.369138e-01
5.421953e-01
5.485199e-01
5.551390e-01
5.616083e-01
5.674180e-01
0.000000e+00
1.000000e+00
5.669051e-01
5.603071e-01
5.531201e-01
5.457812e-01
5.388247e-01
5.329832e-01
5.290530e-01
5.276709e-01
5.290802e-01
5.330319e-01
5.388807e-01
5.458827e-01
5.532110e-01
5.603757e-01
5.668349e-01
0.000000e+00
1.000000e+00
5.664304e-01
5.593151e-01
5.515677e-01
5.436560e-01
5.361568e-01
5.298596e-01
5.256226e-01
5.241319e-01
5.256510e-01
5.299112e-01
5.362164e-01
5.437612e-01
5.516611e-01
5.593874e-01
5.663696e-01
0.000000e+00
1.000000e+00
5.660882e-01
5.585911e-01
5.504355e-01
5.421059e-01
5.342105e-01
5.275804e-01
5.231193e-01
5.215498e-01
5.231490e-01
5.276340e-01
5.342734e-01
5.422123e-01
5.505280e-01
5.586651e-01
5.660224e-01
0.000000e+00
1.000000e+00
5.658713e-01
5.581414e-01
5.497321e-01
5.411431e-01
5.330018e-01
5.261652e-01
5.215652e-01
5.199466e-01
5.215955e-01
5.262202e-01
5.330693e-01
5.412469e-01
5.498251e-01
5.582232e-01
5.658285e-01
0.000000e+00
1.000000e+00
5.657638e-01
5.579516e-01
5.494402e-01
5.407441e-01
5.325019e-01
5.255811e-01
5.209251e-01
5.192878e-01
5.209583e-01
5.256414e-01
5.325796e-01
5.408459e-01
5.495430e-01
5.580847e-01
5.655466e-01
0.000000e+00
1.000000e+00
5.730472e-01
5.730299e-01
5.730537e-01
5.730720e-01
5.730894e-01
5.731040e-01
5.731139e-01
5.731174e-01
5.731140e-01
5.731042e-01
5.730898e-01
5.730722e-01
5.730526e-01
5.730276e-01
5.730001e-01
0.000000e+00
1.000000e+00
5.729290e-01
5.727942e-01
5.726826e-01
5.725639e-01
5.724513e-01
5.723567e-01
5.722929e-01
5.722704e-01
5.722929e-01
5.723567e-01
5.724518e-01
5.725658e-01
5.726834e-01
5.727979e-01
5.727102e-01
0.000000e+00
1.000000e+00
5.726789e-01
5.722951e-01
5.718979e-01
5.714894e-01
5.711020e-01
5.707764e-01
5.705569e-01
5.704790e-01
5.705565e-01
5.707759e-01
5.711025e-01
5.714957e-01
5.719033e-01
5.723168e-01
5.725932e-01
0.000000e+00
1.000000e+00
5.722974e-01
5.715118e-01
5.706678e-01
5.698052e-01
5.689871e-01
5.682996e-01
5.678362e-01
5.676721e-01
5.678362e-01
5.683003e-01
5.689900e-01
5.698185e-01
5.706810e-01
5.715322e-01
5.722084e-01
0.000000e+00
1.000000e+00
5.717766e-01
5.704402e-01
5.689873e-01
5.675042e-01
5.660978e-01
5.649161e-01
5.641200e-01
5.638384e-01
5.641215e-01
5.649203e-01
5.661058e-01
5.675258e-01
5.690083e-01
5.704658e-01
5.716705e-01
0.000000e+00
1.000000e+00
5.711262e-01
5.690987e-01
5.668851e-01
5.646258e-01
5.624836e-01
5.606839e-01
5.594719e-01
5.590440e-01
5.594764e-01
5.606934e-01
5.624982e-01
5.646572e-01
5.669159e-01
5.691332e-01
5.710160e-01
0.000000e+00
1.000000e+00
5.703675e-01
5.675303e-01
5.644283e-01
5.612621e-01
5.582602e-01
5.557385e-01
5.540408e-01
5.534422e-01
5.540490e-01
5.557545e-01
5.582823e-01
5.613047e-01
5.644698e-01
5.675720e-01
5.702619e-01
0.000000e+00
1.000000e+00
5.695335e-01
5.658020e-01
5.617215e-01
5.575561e-01
5.536071e-01
5.502902e-01
5.480577e-01
5.472713e-01
5.480703e-01
5.503135e-01
5.536377e-01
5.576102e-01
5.617736e-01
5.658502e-01
5.694431e-01
0.000000e+00
1.000000e+00
5.686661e-01
5.639994e-01
5.588989e-01
5.536918e-01
5.487553e-01
5.446094e-01
5.418194e-01
5.408372e-01
5.418366e-01
5.446403e-01
5.487945e-01
5.537582e-01
5.589609e-01
5.640519e-01
5.685871e-01
0.000000e+00
1.000000e+00
5.678105e-01
5.622190e-01
5.561115e-01
5.498756e-01
5.439641e-01
5.389997e-01
5.356591e-01
5.344837e-01
5.356808e-01
5.390381e-01
5.440116e-01
5.499535e-01
5.561827e-01
5.622765e-01
5.677446e-01
0.000000e+00
1.000000e+00
5.670119e-01
5.605571e-01
5.535097e-01
5.463136e-01
5.394922e-01
5.337638e-01
5.299095e-01
5.285536e-01
5.299353e-01
5.338092e-01
5.395469e-01
5.464027e-01
5.535883e-01
5.606158e-01
5.669578e-01
0.000000e+00
1.000000e+00
5.663117e-01
5.590988e-01
5.512268e-01
5.431883e-01
5.355686e-01
5.291700e-01
5.248649e-01
5.233507e-01
5.248941e-01
5.292215e-01
5.356292e-01
5.432866e-01
5.513124e-01
5.591596e-01
5.662663e-01
0.000000e+00
1.000000e+00
5.657407e-01
5.579097e-01
5.493652e-01
5.406399e-01
5.323694e-01
5.254243e-01
5.207517e-01
5.191082e-01
5.207834e-01
5.254806e-01
5.324344e-01
5.407456e-01
5.494557e-01
5.579696e-01
5.657018e-01
0.000000e+00
1.000000e+00
5.653191e-01
5.570304e-01
5.479891e-01
5.387562e-01
5.300046e-01
5.226557e-01
5.177113e-01
5.159718e-01
5.177443e-01
5.227148e-01
5.300729e-01
5.388650e-01
5.480830e-01
5.570911e-01
5.652876e-01
0.000000e+00
1.000000e+00
5.650583e-01
5.564762e-01
5.471229e-01
5.375705e-01
5.285159e-01
5.209125e-01
5.157965e-01
5.139967e-01
5.158304e-01
5.209733e-01
5.285873e-01
5.376798e-01
5.472149e-01
5.565371e-01
5.650252e-01
0.000000e+00
1.000000e+00
5.649437e-01
5.562408e-01
5.467549e-01
5.370669e-01
5.278840e-01
5.201728e-01
5.149843e-01
5.131590e-01
5.150187e-01
5.202349e-01
5.279600e-01
5.371715e-01
5.468434e-01
5.563184e-01
5.649176e-01
0.000000e+00
1.000000e+00
5.650214e-01
5.562945e-01
5.468502e-01
5.371979e-01
5.280489e-01
5.203663e-01
5.151971e-01
5.133783e-01
5.152310e-01
5.204282e-01
5.281292e-01
5.372941e-01
5.469527e-01
5.565016e-01
5.646013e-01
0.000000e+00
1.000000e+00
5.731776e-01
5.732745e-01
5.734376e-01
5.735975e-01
5.737492e-01
5.738766e-01
5.739625e-01
5.739929e-01
5.739624e-01
5.738762e-01
5.737481e-01
5.735961e-01
5.734385e-01
5.732802e-01
5.732483e-01
0.000000e+00
1.000000e+00
5.729473e-01
5.728024e-01
5.726952e-01
5.725810e-01
5.724726e-01
5.723816e-01
5.723202e-01
5.722985e-01
5.723200e-01
5.723809e-01
5.724724e-01
5.725822e-01
5.726974e-01
5.728060e-01
5.729854e-01
0.000000e+00
1.000000e+00
5.725661e-01
5.720362e-01
5.714929e-01
5.709346e-01
5.704051e-01
5.699602e-01
5.696604e-01
5.695543e-01
5.696605e-01
5.699605e-01
5.704080e-01
5.709422e-01
5.714985e-01
5.720438e-01
5.725745e-01
0.000000e+00
1.000000e+00
5.720365e-01
5.709595e-01
5.698047e-01
5.686231e-01
5.675026e-01
5.665611e-01
5.659269e-01
5.657027e-01
5.659283e-01
5.665650e-01
5.675108e-01
5.686401e-01
5.698192e-01
5.709737e-01
5.719958e-01
0.000000e+00
1.000000e+00
5.713635e-01
5.695770e-01
5.676381e-01
5.656566e-01
5.637778e-01
5.621993e-01
5.611363e-01
5.607611e-01
5.611403e-01
5.622085e-01
5.637923e-01
5.656824e-01
5.676606e-01
5.696002e-01
5.713060e-01
0.000000e+00
1.000000e+00
5.705601e-01
5.679188e-01
5.650406e-01
5.621002e-01
5.593124e-01
5.569704e-01
5.553938e-01
5.548378e-01
5.554015e-01
5.569862e-01
5.593348e-01
5.621359e-01
5.650723e-01
5.679509e-01
5.704964e-01
0.000000e+00
1.000000e+00
5.696549e-01
5.660435e-01
5.621039e-01
5.580793e-01
5.542638e-01
5.510590e-01
5.489020e-01
5.481421e-01
5.489142e-01
5.510824e-01
5.542955e-01
5.581270e-01
5.621458e-01
5.660836e-01
5.695935e-01
0.000000e+00
1.000000e+00
5.686884e-01
5.640363e-01
5.589609e-01
5.537763e-01
5.488611e-01
5.447331e-01
5.419552e-01
5.409774e-01
5.419725e-01
5.447647e-01
5.489025e-01
5.538370e-01
5.590129e-01
5.640840e-01
5.686323e-01
0.000000e+00
1.000000e+00
5.677106e-01
5.620018e-01
5.557757e-01
5.494153e-01
5.433859e-01
5.383225e-01
5.349155e-01
5.337168e-01
5.349379e-01
5.383625e-01
5.434367e-01
5.494900e-01
5.558367e-01
5.620541e-01
5.676624e-01
0.000000e+00
1.000000e+00
5.667747e-01
5.600533e-01
5.527250e-01
5.452388e-01
5.381424e-01
5.321832e-01
5.281739e-01
5.267636e-01
5.282011e-01
5.322313e-01
5.382020e-01
5.453268e-01
5.527953e-01
5.601096e-01
5.667361e-01
0.000000e+00
1.000000e+00
5.659324e-01
5.582986e-01
5.499781e-01
5.414782e-01
5.334212e-01
5.266556e-01
5.221040e-01
5.205031e-01
5.221352e-01
5.267108e-01
5.334881e-01
5.415791e-01
5.500574e-01
5.583563e-01
5.659030e-01
0.000000e+00
1.000000e+00
5.652267e-01
5.568284e-01
5.476763e-01
5.383272e-01
5.294654e-01
5.220242e-01
5.170180e-01
5.152573e-01
5.170524e-01
5.220852e-01
5.295380e-01
5.384377e-01
5.477653e-01
5.568876e-01
5.652031e-01
0.000000e+00
1.000000e+00
5.646874e-01
5.557062e-01
5.459190e-01
5.359217e-01
5.264455e-01
5.184885e-01
5.131353e-01
5.112525e-01
5.131719e-01
5.185540e-01
5.265222e-01
5.360383e-01
5.460166e-01
5.557633e-01
5.646692e-01
0.000000e+00
1.000000e+00
5.643308e-01
5.549642e-01
5.447570e-01
5.343310e-01
5.244488e-01
5.161508e-01
5.105681e-01
5.086043e-01
5.106057e-01
5.162189e-01
5.245283e-01
5.344488e-01
5.448606e-01
5.550204e-01
5.643136e-01
0.000000e+00
1.000000e+00
5.641646e-01
5.546038e-01
5.441943e-01
5.335607e-01
5.234816e-01
5.150180e-01
5.093237e-01
5.073207e-01
5.093621e-01
5.150874e-01
5.235639e-01
5.336773e-01
5.442940e-01
5.546599e-01
5.641471e-01
0.000000e+00
1.000000e+00
5.641638e-01
5.546045e-01
5.441951e-01
5.335621e-01
5.234835e-01
5.150203e-01
5.093261e-01
5.073230e-01
5.093643e-01
5.150897e-01
5.235687e-01
5.336721e-01
5.442917e-01
5.546876e-01
5.641366e-01
0.000000e+00
1.000000e+00
5.643688e-01
5.549201e-01
5.446988e-01
5.342523e-01
5.243506e-01
5.160360e-01
5.104416e-01
5.084734e-01
5.104788e-01
5.161041e-01
5.244380e-01
5.343545e-01
5.448078e-01
5.551511e-01
5.639261e-01
0.000000e+00
1.000000e+00
5.734330e-01
5.737811e-01
5.742310e-01
5.746839e-01
5.751134e-01
5.754743e-01
5.757174e-01
5.758032e-01
5.757162e-01
5.754722e-01
5.751110e-01
5.746825e-01
5.742370e-01
5.737952e-01
5.733246e-01
0.000000e+00
1.000000e+00
5.730863e-01
5.730724e-01
5.731170e-01
5.731586e-01
5.731981e-01
5.732313e-01
5.732537e-01
5.732614e-01
5.732528e-01
5.732293e-01
5.731966e-01
5.731602e-01
5.731262e-01
5.730831e-01
5.730522e-01
0.000000e+00
1.000000e+00
5.725815e-01
5.720373e-01
5.714938e-01
5.709362e-01
5.704075e-01
5.699633e-01
5.696640e-01
5.695581e-01
5.696639e-01
5.699634e-01
5.704117e-01
5.709446e-01
5.715050e-01
5.720435e-01
5.725477e-01
0.000000e+00
1.000000e+00
5.719078e-01
5.706640e-01
5.693425e-01
5.679905e-01
5.667086e-01
5.656317e-01
5.649065e-01
5.646504e-01
5.649091e-01
5.656380e-01
5.667217e-01
5.680092e-01
5.693601e-01
5.706820e-01
5.718042e-01
0.000000e+00
1.000000e+00
5.710807e-01
5.689657e-01
5.666830e-01
5.643491e-01
5.621362e-01
5.602774e-01
5.590260e-01
5.585848e-01
5.590324e-01
5.602913e-01
5.621573e-01
5.643799e-01
5.667109e-01
5.689959e-01
5.709719e-01
0.000000e+00
1.000000e+00
5.701216e-01
5.669859e-01
5.635832e-01
5.601047e-01
5.568070e-01
5.540371e-01
5.521729e-01
5.515164e-01
5.521840e-01
5.540594e-01
5.568366e-01
5.601457e-01
5.636195e-01
5.670231e-01
5.700195e-01
0.000000e+00
1.000000e+00
5.690672e-01
5.648003e-01
5.601617e-01
5.554201e-01
5.509251e-01
5.471500e-01
5.446098e-01
5.437158e-01
5.446262e-01
5.471816e-01
5.509653e-01
5.554734e-01
5.602067e-01
5.648450e-01
5.689759e-01
0.000000e+00
1.000000e+00
5.679672e-01
5.625142e-01
5.565829e-01
5.505202e-01
5.447731e-01
5.399470e-01
5.367000e-01
5.355578e-01
5.367220e-01
5.399880e-01
5.448251e-01
5.505882e-01
5.566367e-01
5.625667e-01
5.678911e-01
0.000000e+00
1.000000e+00
5.668807e-01
5.602524e-01
5.530423e-01
5.456727e-01
5.386871e-01
5.328213e-01
5.288751e-01
5.274873e-01
5.289027e-01
5.328716e-01
5.387501e-01
5.457567e-01
5.531040e-01
5.603081e-01
5.668175e-01
0.000000e+00
1.000000e+00
5.658695e-01
5.581454e-01
5.497437e-01
5.411568e-01
5.330176e-01
5.261835e-01
5.215860e-01
5.199694e-01
5.216186e-01
5.262420e-01
5.330901e-01
5.412568e-01
5.498155e-01
5.582062e-01
5.658182e-01
0.000000e+00
1.000000e+00
5.649896e-01
5.563128e-01
5.468745e-01
5.372289e-01
5.280865e-01
5.204101e-01
5.152461e-01
5.134303e-01
5.152827e-01
5.204754e-01
5.281663e-01
5.373430e-01
5.469565e-01
5.563762e-01
5.649447e-01
0.000000e+00
1.000000e+00
5.642862e-01
5.548490e-01
5.445823e-01
5.340911e-01
5.241473e-01
5.157980e-01
5.101813e-01
5.082062e-01
5.102206e-01
5.158685e-01
5.242324e-01
5.342143e-01
5.446757e-01
5.549135e-01
5.642452e-01
0.000000e+00
1.000000e+00
5.637870e-01
5.538134e-01
5.429600e-01
5.318704e-01
5.213595e-01
5.125341e-01
5.065968e-01
5.045086e-01
5.066379e-01
5.126086e-01
5.214485e-01
5.319964e-01
5.430661e-01
5.538749e-01
5.637521e-01
0.000000e+00
1.000000e+00
5.635036e-01
5.532271e-01
5.420414e-01
5.306131e-01
5.197812e-01
5.106863e-01
5.045677e-01
5.024155e-01
5.046095e-01
5.107632e-01
5.198732e-01
5.307352e-01
5.421589e-01
5.532871e-01
5.634716e-01
0.000000e+00
1.000000e+00
5.634377e-01
5.530767e-01
5.418068e-01
5.302920e-01
5.193779e-01
5.102136e-01
5.040483e-01
5.018800e-01
5.040909e-01
5.102915e-01
5.194723e-01
5.304103e-01
5.419198e-01
5.531367e-01
5.634109e-01
0.000000e+00
1.000000e+00
5.635566e-01
5.533246e-01
5.421939e-01
5.308221e-01
5.200435e-01
5.109928e-01
5.049036e-01
5.027620e-01
5.049456e-01
5.110695e-01
5.201386e-01
5.309338e-01
5.423022e-01
5.534151e-01
5.635136e-01
0.000000e+00
1.000000e+00
5.638882e-01
5.539073e-01
5.431146e-01
5.320833e-01
5.216275e-01
5.128479e-01
5.069410e-01
5.048633e-01
5.069815e-01
5.129226e-01
5.217218e-01
5.321906e-01
5.432343e-01
5.541338e-01
5.634552e-01
0.000000e+00
1.000000e+00
5.738147e-01
5.745602e-01
5.754509e-01
5.763544e-01
5.772112e-01
5.779312e-01
5.784163e-01
5.785878e-01
5.784155e-01
5.779306e-01
5.772127e-01
5.763581e-01
5.754668e-01
5.745877e-01
5.736037e-01
0.000000e+00
1.000000e+00
5.733535e-01
5.736250e-01
5.739812e-01
5.743422e-01
5.746844e-01
5.749720e-01
5.751656e-01
5.752335e-01
5.751634e-01
5.749683e-01
5.746822e-01
5.743456e-01
5.739989e-01
5.736492e-01
5.732476e-01
0.000000e+00
1.000000e+00
5.727200e-01
5.723302e-01
5.719515e-01
5.715627e-01
5.711943e-01
5.708847e-01
5.706763e-01
5.706022e-01
5.706755e-01
5.708837e-01
5.711984e-01
5.715729e-01
5.719735e-01
5.723475e-01
5.726297e-01
0.000000e+00
1.000000e+00
5.719184e-01
5.706691e-01
5.693500e-01
5.680009e-01
5.667219e-01
5.656476e-01
5.649243e-01
5.646691e-01
5.649273e-01
5.656548e-01
5.667382e-01
5.680213e-01
5.693750e-01
5.706958e-01
5.717688e-01
0.000000e+00
1.000000e+00
5.709459e-01
5.686641e-01
5.662112e-01
5.637033e-01
5.613257e-01
5.593288e-01
5.579850e-01
5.575117e-01
5.579934e-01
5.593467e-01
5.613535e-01
5.637371e-01
5.662451e-01
5.687047e-01
5.708207e-01
0.000000e+00
1.000000e+00
5.698394e-01
5.663721e-01
5.626241e-01
5.587918e-01
5.551588e-01
5.521079e-01
5.500551e-01
5.493329e-01
5.500693e-01
5.521362e-01
5.551965e-01
5.588392e-01
5.626668e-01
5.664191e-01
5.697295e-01
0.000000e+00
1.000000e+00
5.686432e-01
5.638870e-01
5.587352e-01
5.534672e-01
5.484735e-01
5.442803e-01
5.414593e-01
5.404674e-01
5.414797e-01
5.443195e-01
5.485220e-01
5.535275e-01
5.587862e-01
5.639405e-01
5.685387e-01
0.000000e+00
1.000000e+00
5.674166e-01
5.613348e-01
5.547412e-01
5.479987e-01
5.416078e-01
5.362418e-01
5.326322e-01
5.313633e-01
5.326588e-01
5.362922e-01
5.416688e-01
5.480738e-01
5.548003e-01
5.613940e-01
5.673200e-01
0.000000e+00
1.000000e+00
5.662292e-01
5.588607e-01
5.508693e-01
5.426977e-01
5.349527e-01
5.284500e-01
5.240760e-01
5.225384e-01
5.241083e-01
5.285106e-01
5.350262e-01
5.427898e-01
5.509372e-01
5.589231e-01
5.661461e-01
0.000000e+00
1.000000e+00
5.651501e-01
5.566124e-01
5.473503e-01
5.378800e-01
5.289044e-01
5.213687e-01
5.162999e-01
5.145180e-01
5.163372e-01
5.214378e-01
5.289894e-01
5.379889e-01
5.474277e-01
5.566799e-01
5.650839e-01
0.000000e+00
1.000000e+00
5.642409e-01
5.547201e-01
5.443877e-01
5.338244e-01
5.238129e-01
5.154076e-01
5.097536e-01
5.077659e-01
5.097947e-01
5.154829e-01
5.239065e-01
5.339473e-01
5.444754e-01
5.547879e-01
5.641882e-01
0.000000e+00
1.000000e+00
5.635474e-01
5.532806e-01
5.421329e-01
5.307378e-01
5.199380e-01
5.108705e-01
5.047710e-01
5.026264e-01
5.048146e-01
5.109502e-01
5.200372e-01
5.308683e-01
5.422334e-01
5.533496e-01
5.635055e-01
0.000000e+00
1.000000e+00
5.630939e-01
5.523472e-01
5.406695e-01
5.287347e-01
5.174232e-01
5.079258e-01
5.015367e-01
4.992902e-01
5.015822e-01
5.080090e-01
5.175264e-01
5.288647e-01
5.407849e-01
5.524163e-01
5.630626e-01
0.000000e+00
1.000000e+00
5.628934e-01
5.519270e-01
5.400114e-01
5.278342e-01
5.162929e-01
5.066024e-01
5.000832e-01
4.977905e-01
5.001290e-01
5.066872e-01
5.163988e-01
5.279568e-01
5.401394e-01
5.520046e-01
5.628546e-01
0.000000e+00
1.000000e+00
5.629251e-01
5.519917e-01
5.401126e-01
5.279727e-01
5.164665e-01
5.068056e-01
5.003066e-01
4.980214e-01
5.003529e-01
5.068912e-01
5.165747e-01
5.280902e-01
5.402290e-01
5.520736e-01
5.628903e-01
0.000000e+00
1.000000e+00
5.631634e-01
5.524862e-01
5.408845e-01
5.290292e-01
5.177926e-01
5.083578e-01
5.020107e-01
4.997789e-01
5.020560e-01
5.084411e-01
5.178979e-01
5.291401e-01
5.409966e-01
5.525954e-01
5.631143e-01
0.000000e+00
1.000000e+00
5.636150e-01
5.533292e-01
5.422107e-01
5.308457e-01
5.200739e-01
5.110292e-01
5.049444e-01
5.028046e-01
5.049877e-01
5.111095e-01
5.201743e-01
5.309578e-01
5.423408e-01
5.535458e-01
5.631912e-01
0.000000e+00
1.000000e+00
5.743229e-01
5.756046e-01
5.770892e-01
5.785975e-01
5.800279e-01
5.812299e-01
5.820398e-01
5.823266e-01
5.820399e-01
5.812315e-01
5.800360e-01
5.786109e-01
5.771189e-01
5.756448e-01
5.740589e-01
0.000000e+00
1.000000e+00
5.737579e-01
5.744614e-01
5.752914e-01
5.761359e-01
5.769369e-01
5.776100e-01
5.780634e-01
5.782234e-01
5.780616e-01
5.776070e-01
5.769374e-01
5.761451e-01
5.753226e-01
5.744998e-01
5.735896e-01
0.000000e+00
1.000000e+00
5.730089e-01
5.729282e-01
5.728860e-01
5.728426e-01
5.728016e-01
5.727673e-01
5.727442e-01
5.727356e-01
5.727429e-01
5.727653e-01
5.728051e-01
5.728559e-01
5.729200e-01
5.729587e-01
5.728694e-01
0.000000e+00
1.000000e+00
5.720718e-01
5.710015e-01
5.698693e-01
5.687120e-01
5.676150e-01
5.666938e-01
5.660737e-01
5.658551e-01
5.660766e-01
5.667004e-01
5.676330e-01
5.687358e-01
5.699078e-01
5.710371e-01
5.718891e-01
0.000000e+00
1.000000e+00
5.709721e-01
5.687137e-01
5.662885e-01
5.638092e-01
5.614590e-01
5.594855e-01
5.581578e-01
5.576907e-01
5.581674e-01
5.595058e-01
5.614920e-01
5.638450e-01
5.663322e-01
5.687611e-01
5.707973e-01
0.000000e+00
1.000000e+00
5.697338e-01
5.661356e-01
5.622542e-01
5.582855e-01
5.545236e-01
5.513649e-01
5.492402e-01
5.484934e-01
5.492570e-01
5.513982e-01
5.545694e-01
5.583356e-01
5.623038e-01
5.661897e-01
5.695850e-01
0.000000e+00
1.000000e+00
5.684144e-01
5.633784e-01
5.579405e-01
5.523793e-01
5.471083e-01
5.426827e-01
5.397062e-01
5.386603e-01
5.397298e-01
5.427283e-01
5.471660e-01
5.524452e-01
5.579988e-01
5.634397e-01
5.682851e-01
0.000000e+00
1.000000e+00
5.670785e-01
5.605878e-01
5.535748e-01
5.464022e-01
5.396043e-01
5.338972e-01
5.300588e-01
5.287100e-01
5.300889e-01
5.339549e-01
5.396748e-01
5.464838e-01
5.536403e-01
5.606554e-01
5.669713e-01
0.000000e+00
1.000000e+00
5.658047e-01
5.579286e-01
5.494148e-01
5.407068e-01
5.324544e-01
5.255263e-01
5.208666e-01
5.192291e-01
5.209026e-01
5.255950e-01
5.325377e-01
5.408054e-01
5.494885e-01
5.580009e-01
5.657176e-01
0.000000e+00
1.000000e+00
5.646702e-01
5.555642e-01
5.457152e-01
5.356421e-01
5.260961e-01
5.180822e-01
5.126919e-01
5.107974e-01
5.127328e-01
5.181598e-01
5.261912e-01
5.357567e-01
5.457979e-01
5.556389e-01
5.645946e-01
0.000000e+00
1.000000e+00
5.637411e-01
5.536338e-01
5.426934e-01
5.315054e-01
5.209028e-01
5.120016e-01
5.060144e-01
5.039097e-01
5.060588e-01
5.120854e-01
5.210078e-01
5.316325e-01
5.427862e-01
5.537077e-01
5.636689e-01
0.000000e+00
1.000000e+00
5.630627e-01
5.522346e-01
5.405013e-01
5.285046e-01
5.171353e-01
5.075901e-01
5.011694e-01
4.989121e-01
5.012162e-01
5.076777e-01
5.172479e-01
5.286385e-01
5.406061e-01
5.523115e-01
5.629936e-01
0.000000e+00
1.000000e+00
5.626563e-01
5.514125e-01
5.392107e-01
5.267378e-01
5.149167e-01
5.049921e-01
4.983161e-01
4.959692e-01
4.983650e-01
5.050832e-01
5.150346e-01
5.268721e-01
5.393269e-01
5.514942e-01
5.625970e-01
0.000000e+00
1.000000e+00
5.625449e-01
5.511597e-01
5.388150e-01
5.261962e-01
5.142367e-01
5.041955e-01
4.974408e-01
4.950660e-01
4.974900e-01
5.042876e-01
5.143563e-01
5.263238e-01
5.389327e-01
5.512543e-01
5.624642e-01
0.000000e+00
1.000000e+00
5.626679e-01
5.514315e-01
5.392404e-01
5.267787e-01
5.149682e-01
5.050521e-01
4.983819e-01
4.960370e-01
4.984309e-01
5.051440e-01
5.150880e-01
5.269003e-01
5.393484e-01
5.515332e-01
5.625930e-01
0.000000e+00
1.000000e+00
5.630160e-01
5.521576e-01
5.403734e-01
5.283294e-01
5.169144e-01
5.073302e-01
5.008831e-01
4.986167e-01
5.009306e-01
5.074185e-01
5.170276e-01
5.284432e-01
5.404868e-01
5.522749e-01
5.629291e-01
0.000000e+00
1.000000e+00
5.635739e-01
5.532402e-01
5.420719e-01
5.306555e-01
5.198353e-01
5.107504e-01
5.046390e-01
5.024905e-01
5.046841e-01
5.108345e-01
5.199404e-01
5.307744e-01
5.421896e-01
5.534202e-01
5.632466e-01
0.000000e+00
1.000000e+00
5.749529e-01
5.768873e-01
5.791011e-01
5.813525e-01
5.834875e-01
5.852817e-01
5.864905e-01
5.869183e-01
5.864913e-01
5.852876e-01
5.835057e-01
5.813793e-01
5.791429e-01
5.769385e-01
5.746857e-01
0.000000e+00
1.000000e+00
5.742907e-01
5.755614e-01
5.770168e-01
5.784984e-01
5.799035e-01
5.810842e-01
5.818797e-01
5.821609e-01
5.818777e-01
5.810823e-01
5.799097e-01
5.785185e-01
5.770648e-01
5.756124e-01
5.741264e-01
0.000000e+00
1.000000e+00
5.734333e-01
5.738206e-01
5.742832e-01
5.747555e-01
5.752035e-01
5.755800e-01
5.758338e-01
5.759233e-01
5.758323e-01
5.755775e-01
5.752063e-01
5.747735e-01
5.743306e-01
5.738652e-01
5.733264e-01
0.000000e+00
1.000000e+00
5.723863e-01
5.716634e-01
5.709042e-01
5.701290e-01
5.693944e-01
5.687779e-01
5.683634e-01
5.682174e-01
5.683657e-01
5.687830e-01
5.694124e-01
5.701574e-01
5.709553e-01
5.717115e-01
5.722504e-01
0.000000e+00
1.000000e+00
5.711674e-01
5.691313e-01
5.669417e-01
5.647036e-01
5.625825e-01
5.608016e-01
5.596040e-01
5.591831e-01
5.596138e-01
5.608221e-01
5.626187e-01
5.647431e-01
5.670015e-01
5.691941e-01
5.710498e-01
0.000000e+00
1.000000e+00
5.698173e-01
5.663090e-01
5.625257e-01
5.586573e-01
5.549908e-01
5.519127e-01
5.498429e-01
5.491162e-01
5.498613e-01
5.519490e-01
5.550427e-01
5.587085e-01
5.625865e-01
5.663770e-01
5.697161e-01
0.000000e+00
1.000000e+00
5.683951e-01
5.633235e-01
5.578549e-01
5.522624e-01
5.469622e-01
5.425127e-01
5.395207e-01
5.384702e-01
5.395466e-01
5.425628e-01
5.470281e-01
5.523275e-01
5.579198e-01
5.633957e-01
5.682802e-01
0.000000e+00
1.000000e+00
5.669782e-01
5.603380e-01
5.531844e-01
5.458683e-01
5.389352e-01
5.331150e-01
5.292010e-01
5.278263e-01
5.292334e-01
5.331776e-01
5.390149e-01
5.459506e-01
5.532560e-01
5.604133e-01
5.668394e-01
0.000000e+00
1.000000e+00
5.656436e-01
5.575335e-01
5.487977e-01
5.398632e-01
5.313968e-01
5.242894e-01
5.195093e-01
5.178298e-01
5.195474e-01
5.243629e-01
5.314898e-01
5.399631e-01
5.488761e-01
5.576131e-01
5.655031e-01
0.000000e+00
1.000000e+00
5.644717e-01
5.550860e-01
5.449695e-01
5.346227e-01
5.248180e-01
5.165870e-01
5.110508e-01
5.091052e-01
5.110935e-01
5.166694e-01
5.249227e-01
5.347385e-01
5.450543e-01
5.551674e-01
5.643501e-01
0.000000e+00
1.000000e+00
5.635319e-01
5.531412e-01
5.419266e-01
5.304570e-01
5.195882e-01
5.104635e-01
5.043258e-01
5.021685e-01
5.043721e-01
5.105522e-01
5.197024e-01
5.305843e-01
5.420177e-01
5.532235e-01
5.634465e-01
0.000000e+00
1.000000e+00
5.628704e-01
5.517956e-01
5.398186e-01
5.275709e-01
5.159642e-01
5.062198e-01
4.996651e-01
4.973609e-01
4.997138e-01
5.063127e-01
5.160864e-01
5.277039e-01
5.399154e-01
5.518808e-01
5.628303e-01
0.000000e+00
1.000000e+00
5.625154e-01
5.510851e-01
5.387036e-01
5.260443e-01
5.140473e-01
5.039752e-01
4.972001e-01
4.948184e-01
4.972503e-01
5.040708e-01
5.141750e-01
5.261776e-01
5.388030e-01
5.511786e-01
5.625041e-01
0.000000e+00
1.000000e+00
5.624751e-01
5.509906e-01
5.385545e-01
5.258401e-01
5.137905e-01
5.036742e-01
4.968694e-01
4.944774e-01
4.969205e-01
5.037711e-01
5.139191e-01
5.259700e-01
5.386531e-01
5.511022e-01
5.624478e-01
0.000000e+00
1.000000e+00
5.626910e-01
5.514507e-01
5.392741e-01
5.268250e-01
5.150270e-01
5.051219e-01
4.984594e-01
4.961177e-01
4.985098e-01
5.052174e-01
5.151527e-01
5.269520e-01
5.393735e-01
5.515754e-01
5.626779e-01
0.000000e+00
1.000000e+00
5.631316e-01
5.523797e-01
5.407239e-01
5.288093e-01
5.175174e-01
5.080369e-01
5.016600e-01
4.994189e-01
5.017086e-01
5.081278e-01
5.176341e-01
5.289290e-01
5.408267e-01
5.525089e-01
5.630804e-01
0.000000e+00
1.000000e+00
5.637756e-01
5.536677e-01
5.427412e-01
5.315716e-01
5.209856e-01
5.120978e-01
5.061194e-01
5.040183e-01
5.061653e-01
5.121836e-01
5.210934e-01
5.316933e-01
5.428426e-01
5.538077e-01
5.635961e-01
0.000000e+00
1.000000e+00
5.756780e-01
5.783578e-01
5.814097e-01
5.845134e-01
5.874568e-01
5.899305e-01
5.915975e-01
5.921880e-01
5.916004e-01
5.899441e-01
5.874858e-01
5.845522e-01
5.814612e-01
5.784276e-01
5.753778e-01
0.000000e+00
1.000000e+00
5.749372e-01
5.768820e-01
5.790869e-01
5.813331e-01
5.834632e-01
5.852533e-01
5.864593e-01
5.868861e-01
5.864582e-01
5.852557e-01
5.834797e-01
5.813682e-01
5.791490e-01
5.769505e-01
5.747190e-01
0.000000e+00
1.000000e+00
5.739897e-01
5.749699e-01
5.760846e-01
5.772221e-01
5.783009e-01
5.792075e-01
5.798183e-01
5.800341e-01
5.798165e-01
5.792050e-01
5.783059e-01
5.772492e-01
5.761492e-01
5.750502e-01
5.737945e-01
0.000000e+00
1.000000e+00
5.728419e-01
5.726284e-01
5.724136e-01
5.721956e-01
5.719892e-01
5.718167e-01
5.717015e-01
5.716614e-01
5.717031e-01
5.718194e-01
5.720039e-01
5.722290e-01
5.724743e-01
5.727278e-01
5.725643e-01
0.000000e+00
1.000000e+00
5.715300e-01
5.699026e-01
5.681483e-01
5.663557e-01
5.646571e-01
5.632317e-01
5.622737e-01
5.619372e-01
5.622825e-01
5.632497e-01
5.646939e-01
5.663998e-01
5.682226e-01
5.700436e-01
5.711802e-01
0.000000e+00
1.000000e+00
5.700943e-01
5.668908e-01
5.634367e-01
5.599048e-01
5.565580e-01
5.537485e-01
5.518600e-01
5.511975e-01
5.518785e-01
5.537850e-01
5.566129e-01
5.599608e-01
5.635172e-01
5.670638e-01
5.697783e-01
0.000000e+00
1.000000e+00
5.685973e-01
5.637348e-01
5.584986e-01
5.531439e-01
5.480699e-01
5.438105e-01
5.409470e-01
5.399426e-01
5.409740e-01
5.438626e-01
5.481405e-01
5.532098e-01
5.585781e-01
5.639076e-01
5.684048e-01
0.000000e+00
1.000000e+00
5.671176e-01
5.606105e-01
5.536102e-01
5.464520e-01
5.396691e-01
5.339752e-01
5.301465e-01
5.288025e-01
5.301799e-01
5.340399e-01
5.397546e-01
5.465299e-01
5.536917e-01
5.607673e-01
5.669947e-01
0.000000e+00
1.000000e+00
5.657596e-01
5.577118e-01
5.490743e-01
5.402434e-01
5.318755e-01
5.248506e-01
5.201261e-01
5.184665e-01
5.201648e-01
5.249257e-01
5.319747e-01
5.403370e-01
5.491595e-01
5.578479e-01
5.656578e-01
0.000000e+00
1.000000e+00
5.645776e-01
5.552214e-01
5.451790e-01
5.349115e-01
5.251820e-01
5.170136e-01
5.115194e-01
5.095888e-01
5.115626e-01
5.170971e-01
5.252930e-01
5.350204e-01
5.452679e-01
5.553400e-01
5.644910e-01
0.000000e+00
1.000000e+00
5.636339e-01
5.532870e-01
5.421557e-01
5.307723e-01
5.199851e-01
5.109285e-01
5.048366e-01
5.026956e-01
5.048833e-01
5.110182e-01
5.201051e-01
5.308931e-01
5.422478e-01
5.534097e-01
5.635485e-01
0.000000e+00
1.000000e+00
5.629851e-01
5.520050e-01
5.401482e-01
5.280232e-01
5.165329e-01
5.068861e-01
5.003971e-01
4.981163e-01
5.004465e-01
5.069806e-01
5.166591e-01
5.281504e-01
5.402428e-01
5.521573e-01
5.628896e-01
0.000000e+00
1.000000e+00
5.627033e-01
5.514013e-01
5.392022e-01
5.267276e-01
5.149057e-01
5.049805e-01
4.983042e-01
4.959574e-01
4.983545e-01
5.050769e-01
5.150338e-01
5.268566e-01
5.393016e-01
5.516039e-01
5.625536e-01
0.000000e+00
1.000000e+00
5.627088e-01
5.514446e-01
5.392693e-01
5.268195e-01
5.150212e-01
5.051162e-01
4.984537e-01
4.961122e-01
4.985048e-01
5.052141e-01
5.151498e-01
5.269496e-01
5.393720e-01
5.516798e-01
5.625617e-01
0.000000e+00
1.000000e+00
5.629954e-01
5.520635e-01
5.402359e-01
5.281420e-01
5.166810e-01
5.070592e-01
5.005877e-01
4.983136e-01
5.006381e-01
5.071553e-01
5.168055e-01
5.282706e-01
5.403381e-01
5.523049e-01
5.628817e-01
0.000000e+00
1.000000e+00
5.635086e-01
5.531567e-01
5.419418e-01
5.304767e-01
5.196111e-01
5.104890e-01
5.043537e-01