<?xml version="1.0"?>
<VTKFile type="StructuredGrid" version="0.1">
  <StructuredGrid WholeExtent="0 16 0 16 0 16">
    <Piece Extent="0 16 0 16 0 16">
      <PointData Scalars="temperature" Vectors="velocity">
        <DataArray type="Float32" Name="temperature" format="ascii">
1.000000e+00
5.813483e-01
5.882289e-01
5.972573e-01
6.062154e-01
6.147183e-01
6.218765e-01
6.267209e-01
6.284766e-01
6.268438e-01
6.221162e-01
6.150897e-01
6.065516e-01
5.975688e-01
5.887794e-01
5.796259e-01
0.000000e+00
1.000000e+00
5.803814e-01
5.865044e-01
5.944679e-01
6.023932e-01
6.099150e-01
6.162453e-01
6.205255e-01
6.220711e-01
6.206220e-01
6.164488e-01
6.102325e-01
6.026866e-01
5.947760e-01
5.870065e-01
5.789551e-01
0.000000e+00
1.000000e+00
5.792520e-01
5.845367e-01
5.912857e-01
5.980337e-01
6.044374e-01
6.098246e-01
6.134634e-01
6.147705e-01
6.135271e-01
6.099838e-01
6.046837e-01
5.982709e-01
5.915677e-01
5.849659e-01
5.779304e-01
0.000000e+00
1.000000e+00
5.780365e-01
5.823520e-01
5.877872e-01
5.932428e-01
5.984192e-01
6.027725e-01
6.057101e-01
6.067594e-01
6.057444e-01
6.028795e-01
5.986010e-01
5.934454e-01
5.880647e-01
5.827252e-01
5.770269e-01
0.000000e+00
1.000000e+00
5.767691e-01
5.800282e-01
5.840876e-01
5.881777e-01
5.920580e-01
5.953201e-01
5.975194e-01
5.983010e-01
5.975327e-01
5.953762e-01
5.921772e-01
5.883463e-01
5.843555e-01
5.803538e-01
5.759053e-01
0.000000e+00
1.000000e+00
5.754857e-01
5.776627e-01
5.803361e-01
5.830414e-01
5.856076e-01
5.877651e-01
5.892191e-01
5.897332e-01
5.892191e-01
5.877820e-01
5.856669e-01
5.831683e-01
5.805899e-01
5.779535e-01
5.747663e-01
0.000000e+00
1.000000e+00
5.742531e-01
5.753624e-01
5.767072e-01
5.780727e-01
5.793692e-01
5.804601e-01
5.811951e-01
5.814520e-01
5.811854e-01
5.804488e-01
5.793815e-01
5.781503e-01
5.769202e-01
5.756183e-01
5.737282e-01
0.000000e+00
1.000000e+00
5.731704e-01
5.732426e-01
5.733818e-01
5.735196e-01
5.736521e-01
5.737647e-01
5.738406e-01
5.738642e-01
5.738299e-01
5.737453e-01
5.736538e-01
5.735780e-01
5.735399e-01
5.734529e-01
5.726610e-01
0.000000e+00
1.000000e+00
5.724277e-01
5.714332e-01
5.705315e-01
5.696179e-01
5.687540e-01
5.680305e-01
5.675450e-01
5.673732e-01
5.675444e-01
5.680328e-01
5.687866e-01
5.696799e-01
5.706693e-01
5.716278e-01
5.713646e-01
0.000000e+00
1.000000e+00
5.718130e-01
5.700159e-01
5.683037e-01
5.665676e-01
5.649241e-01
5.635466e-01
5.626222e-01
5.622995e-01
5.626356e-01
5.635762e-01
5.649822e-01
5.666433e-01
5.684332e-01
5.702191e-01
5.703645e-01
0.000000e+00
1.000000e+00
5.711358e-01
5.690330e-01
5.667940e-01
5.645006e-01
5.623292e-01
5.605086e-01
5.592865e-01
5.588604e-01
5.593069e-01
5.605515e-01
5.623994e-01
5.645901e-01
5.669113e-01
5.692573e-01
5.697556e-01
0.000000e+00
1.000000e+00
5.708283e-01
5.685517e-01
5.660438e-01
5.634742e-01
5.610411e-01
5.590015e-01
5.576333e-01
5.571579e-01
5.576605e-01
5.590526e-01
5.611132e-01
5.635731e-01
5.661566e-01
5.688184e-01
5.691915e-01
0.000000e+00
1.000000e+00
5.708054e-01
5.685566e-01
5.660419e-01
5.634715e-01
5.610377e-01
5.589978e-01
5.576299e-01
5.571560e-01
5.576616e-01
5.590595e-01
5.611140e-01
5.635790e-01
5.661558e-01
5.688473e-01
5.693245e-01
0.000000e+00
1.000000e+00
5.710048e-01
5.690015e-01
5.667292e-01
5.644119e-01
5.622176e-01
5.603785e-01
5.591455e-01
5.587188e-01
5.591761e-01
5.604411e-01
5.622994e-01
5.645277e-01
5.668491e-01
5.693049e-01
5.697233e-01
0.000000e+00
1.000000e+00
5.713980e-01
5.698231e-01
5.680083e-01
5.661626e-01
5.644149e-01
5.629499e-01
5.619676e-01
5.616274e-01
5.619917e-01
5.630023e-01
5.644944e-01
5.662969e-01
5.681413e-01
5.700773e-01
5.708853e-01
0.000000e+00
1.000000e+00
5.719542e-01
5.709462e-01
5.697614e-01
5.685627e-01
5.674275e-01
5.664760e-01
5.658376e-01
5.656153e-01
5.658497e-01
5.665056e-01
5.674850e-01
5.687249e-01
5.699231e-01
5.713586e-01
5.718636e-01
0.000000e+00
1.000000e+00
5.726467e-01
5.722889e-01
5.718641e-01
5.714416e-01
5.710418e-01
5.707070e-01
5.704821e-01
5.704021e-01
5.704805e-01
5.707070e-01
5.710544e-01
5.716071e-01
5.720469e-01
5.733888e-01
5.681798e-01
0.000000e+00
1.000000e+00
5.822819e-01
5.898473e-01
5.998359e-01
6.097463e-01
6.191546e-01
6.270781e-01
6.324461e-01
6.344026e-01
6.326067e-01
6.273481e-01
6.195893e-01
6.101403e-01
6.001519e-01
5.903930e-01
5.808064e-01
0.000000e+00
1.000000e+00
5.813298e-01
5.882522e-01
5.972405e-01
6.061874e-01
6.146796e-01
6.218292e-01
6.266683e-01
6.284286e-01
6.268097e-01
6.220570e-01
6.150764e-01
6.065505e-01
5.975665e-01
5.887472e-01
5.799230e-01
0.000000e+00
1.000000e+00
5.802465e-01
5.863727e-01
5.942018e-01
6.020245e-01
6.094479e-01
6.156948e-01
6.199182e-01
6.214460e-01
6.200230e-01
6.158843e-01
6.097730e-01
6.023168e-01
5.944930e-01
5.868004e-01
5.789802e-01
0.000000e+00
1.000000e+00
5.790537e-01
5.842433e-01
5.907888e-01
5.973513e-01
6.035775e-01
6.088147e-01
6.123515e-01
6.136225e-01
6.124186e-01
6.089588e-01
6.038265e-01
5.975927e-01
5.910658e-01
5.846169e-01
5.780279e-01
0.000000e+00
1.000000e+00
5.777948e-01
5.819379e-01
5.871150e-01
5.923219e-01
5.972612e-01
6.014145e-01
6.042167e-01
6.052178e-01
6.042515e-01
6.015085e-01
5.974399e-01
5.925216e-01
5.873763e-01
5.822642e-01
5.769063e-01
0.000000e+00
1.000000e+00
5.765051e-01
5.795562e-01
5.833336e-01
5.871451e-01
5.907604e-01
5.937995e-01
5.958484e-01
5.965769e-01
5.958619e-01
5.938484e-01
5.908735e-01
5.873043e-01
5.835776e-01
5.798415e-01
5.757583e-01
0.000000e+00
1.000000e+00
5.752424e-01
5.772137e-01
5.796277e-01
5.820711e-01
5.843890e-01
5.863374e-01
5.876502e-01
5.881144e-01
5.876501e-01
5.863511e-01
5.844415e-01
5.821832e-01
5.798491e-01
5.774678e-01
5.746276e-01
0.000000e+00
1.000000e+00
5.740977e-01
5.750309e-01
5.761925e-01
5.773679e-01
5.784832e-01
5.794205e-01
5.800510e-01
5.802711e-01
5.800419e-01
5.794090e-01
5.784931e-01
5.774291e-01
5.763627e-01
5.752461e-01
5.736809e-01
0.000000e+00
1.000000e+00
5.731898e-01
5.731405e-01
5.732193e-01
5.732967e-01
5.733709e-01
5.734337e-01
5.734755e-01
5.734873e-01
5.734654e-01
5.734176e-01
5.733750e-01
5.733331e-01
5.733331e-01
5.733050e-01
5.728208e-01
0.000000e+00
1.000000e+00
5.725886e-01
5.716481e-01
5.708673e-01
5.700768e-01
5.693286e-01
5.687010e-01
5.682793e-01
5.681300e-01
5.682780e-01
5.687018e-01
5.693523e-01
5.701151e-01
5.709597e-01
5.717800e-01
5.720431e-01
0.000000e+00
1.000000e+00
5.719193e-01
5.706017e-01
5.692482e-01
5.678594e-01
5.665443e-01
5.654413e-01
5.647006e-01
5.644419e-01
5.647107e-01
5.654621e-01
5.665864e-01
5.679137e-01
5.693333e-01
5.707232e-01
5.716638e-01
0.000000e+00
1.000000e+00
5.715807e-01
5.700645e-01
5.684115e-01
5.667149e-01
5.651082e-01
5.637607e-01
5.628562e-01
5.625411e-01
5.628718e-01
5.637912e-01
5.651561e-01
5.667837e-01
5.684951e-01
5.702223e-01
5.711209e-01
0.000000e+00
1.000000e+00
5.715290e-01
5.700289e-01
5.683474e-01
5.666276e-01
5.649991e-01
5.636337e-01
5.627178e-01
5.624002e-01
5.627386e-01
5.636752e-01
5.650525e-01
5.667102e-01
5.684378e-01
5.702569e-01
5.709505e-01
0.000000e+00
1.000000e+00
5.717220e-01
5.704480e-01
5.689947e-01
5.675134e-01
5.661107e-01
5.649348e-01
5.641461e-01
5.638727e-01
5.641649e-01
5.649758e-01
5.661689e-01
5.676109e-01
5.691012e-01
5.707550e-01
5.708214e-01
0.000000e+00
1.000000e+00
5.721164e-01
5.712539e-01
5.702503e-01
5.692321e-01
5.682678e-01
5.674595e-01
5.669171e-01
5.667283e-01
5.669280e-01
5.674861e-01
5.683169e-01
5.693512e-01
5.703735e-01
5.715785e-01
5.715934e-01
0.000000e+00
1.000000e+00
5.726785e-01
5.723661e-01
5.719887e-01
5.716120e-01
5.712555e-01
5.709567e-01
5.707560e-01
5.706847e-01
5.707553e-01
5.709589e-01
5.712719e-01
5.717459e-01
5.721313e-01
5.729381e-01
5.718751e-01
0.000000e+00
1.000000e+00
5.733732e-01
5.736989e-01
5.740786e-01
5.744733e-01
5.748479e-01
5.751626e-01
5.753738e-01
5.754455e-01
5.753634e-01
5.751431e-01
5.748259e-01
5.745747e-01
5.742214e-01
5.746124e-01
5.681118e-01
0.000000e+00
1.000000e+00
5.829763e-01
5.912218e-01
6.019712e-01
6.126664e-01
6.228219e-01
6.313787e-01
6.371827e-01
6.393107e-01
6.373826e-01
6.316930e-01
6.233182e-01
6.131182e-01
6.022772e-01
5.917423e-01
5.814245e-01
0.000000e+00
1.000000e+00
5.820898e-01
5.897457e-01
5.995790e-01
6.093868e-01
6.186977e-01
6.265403e-01
6.318560e-01
6.338023e-01
6.320338e-01
6.268075e-01
6.191635e-01
6.098083e-01
5.998951e-01
5.902330e-01
5.805457e-01
0.000000e+00
1.000000e+00
5.810875e-01
5.879551e-01
5.966985e-01
6.054416e-01
6.137390e-01
6.207243e-01
6.254534e-01
6.271766e-01
6.255945e-01
6.209545e-01
6.141348e-01
6.057768e-01
5.969776e-01
5.883824e-01
5.796588e-01
0.000000e+00
1.000000e+00
5.799364e-01
5.858890e-01
5.933908e-01
6.009128e-01
6.080495e-01
6.140546e-01
6.181146e-01
6.195839e-01
6.182154e-01
6.142410e-01
6.083606e-01
6.011830e-01
5.936523e-01
5.862657e-01
5.787351e-01
0.000000e+00
1.000000e+00
5.786918e-01
5.836127e-01
5.897637e-01
5.959475e-01
6.018135e-01
6.067472e-01
6.100788e-01
6.112760e-01
6.101411e-01
6.068839e-01
6.020456e-01
5.961669e-01
5.900093e-01
5.839406e-01
5.776269e-01
0.000000e+00
1.000000e+00
5.774009e-01
5.812246e-01
5.859717e-01
5.907566e-01
5.952951e-01
5.991109e-01
6.016852e-01
6.026045e-01
6.017158e-01
5.991951e-01
5.954567e-01
5.909309e-01
5.861946e-01
5.815104e-01
5.764639e-01
0.000000e+00
1.000000e+00
5.761216e-01
5.788460e-01
5.822057e-01
5.856011e-01
5.888213e-01
5.915280e-01
5.933526e-01
5.940008e-01
5.933623e-01
5.915655e-01
5.889192e-01
5.857322e-01
5.824050e-01
5.790926e-01
5.753271e-01
0.000000e+00
1.000000e+00
5.749292e-01
5.766054e-01
5.786748e-01
5.807664e-01
5.827501e-01
5.844171e-01
5.855397e-01
5.859363e-01
5.855391e-01
5.844266e-01
5.827924e-01
5.808483e-01
5.788457e-01
5.768299e-01
5.742469e-01
0.000000e+00
1.000000e+00
5.739291e-01
5.746443e-01
5.755884e-01
5.765396e-01
5.774416e-01
5.781991e-01
5.787084e-01
5.788858e-01
5.787005e-01
5.781909e-01
5.774456e-01
5.765691e-01
5.757011e-01
5.748330e-01
5.732970e-01
0.000000e+00
1.000000e+00
5.732428e-01
5.730793e-01
5.731197e-01
5.731601e-01
5.731988e-01
5.732312e-01
5.732520e-01
5.732564e-01
5.732425e-01
5.732176e-01
5.731955e-01
5.731693e-01
5.731853e-01
5.732362e-01
5.724855e-01
0.000000e+00
1.000000e+00
5.726205e-01
5.719746e-01
5.713975e-01
5.708011e-01
5.702363e-01
5.697622e-01
5.694432e-01
5.693305e-01
5.694423e-01
5.697618e-01
5.702481e-01
5.708183e-01
5.714453e-01
5.721219e-01
5.720669e-01
0.000000e+00
1.000000e+00
5.722697e-01
5.713827e-01
5.704750e-01
5.695389e-01
5.686522e-01
5.679082e-01
5.674082e-01
5.672335e-01
5.674149e-01
5.679217e-01
5.686766e-01
5.695770e-01
5.705240e-01
5.715990e-01
5.713681e-01
0.000000e+00
1.000000e+00
5.721727e-01
5.713065e-01
5.703507e-01
5.693693e-01
5.684399e-01
5.676604e-01
5.671372e-01
5.669553e-01
5.671477e-01
5.676820e-01
5.684696e-01
5.694241e-01
5.704080e-01
5.716563e-01
5.709299e-01
0.000000e+00
1.000000e+00
5.723496e-01
5.716988e-01
5.709564e-01
5.701988e-01
5.694814e-01
5.688799e-01
5.684765e-01
5.683363e-01
5.684856e-01
5.689014e-01
5.695158e-01
5.702729e-01
5.710295e-01
5.721447e-01
5.709072e-01
0.000000e+00
1.000000e+00
5.727429e-01
5.724878e-01
5.721862e-01
5.718822e-01
5.715946e-01
5.713537e-01
5.711919e-01
5.711350e-01
5.711932e-01
5.713599e-01
5.716149e-01
5.719711e-01
5.722764e-01
5.729132e-01
5.717270e-01
0.000000e+00
1.000000e+00
5.733069e-01
5.735878e-01
5.739074e-01
5.742387e-01
5.745531e-01
5.748172e-01
5.749944e-01
5.750548e-01
5.749866e-01
5.748036e-01
5.745439e-01
5.743201e-01
5.740117e-01
5.741407e-01
5.715772e-01
0.000000e+00
1.000000e+00
5.740027e-01
5.749096e-01
5.759822e-01
5.770796e-01
5.781199e-01
5.789935e-01
5.795805e-01
5.797845e-01
5.795682e-01
5.789709e-01
5.780950e-01
5.771271e-01
5.760935e-01
5.755465e-01
5.694066e-01
0.000000e+00
1.000000e+00
5.834895e-01
5.922289e-01
6.035389e-01
6.148085e-01
6.255063e-01
6.345241e-01
6.406480e-01
6.429031e-01
6.408779e-01
6.348928e-01
6.260504e-01
6.153120e-01
6.038416e-01
5.927226e-01
5.818712e-01
0.000000e+00
1.000000e+00
5.826716e-01
5.908808e-01
6.013464e-01
6.118046e-01
6.217309e-01
6.300951e-01
6.357710e-01
6.378575e-01
6.359719e-01
6.304123e-01
6.222494e-01
6.122881e-01
6.016709e-01
5.913411e-01
5.810559e-01
0.000000e+00
1.000000e+00
5.817067e-01
5.891910e-01
5.986267e-01
6.080800e-01
6.170512e-01
6.246061e-01
6.297265e-01
6.316004e-01
6.298891e-01
6.248837e-01
6.175078e-01
6.084686e-01
5.989097e-01
5.895946e-01
5.802055e-01
0.000000e+00
1.000000e+00
5.805986e-01
5.871904e-01
5.954315e-01
6.037060e-01
6.115564e-01
6.181637e-01
6.226353e-01
6.242613e-01
6.227545e-01
6.183947e-01
6.119248e-01
6.040113e-01
5.956887e-01
5.875523e-01
5.793152e-01
0.000000e+00
1.000000e+00
5.793801e-01
5.849472e-01
5.918628e-01
5.988208e-01
6.054211e-01
6.109734e-01
6.147258e-01
6.160806e-01
6.148028e-01
6.111509e-01
6.057015e-01
5.990612e-01
5.921024e-01
5.852634e-01
5.782184e-01
0.000000e+00
1.000000e+00
5.780982e-01
5.825580e-01
5.880742e-01
5.936350e-01
5.989091e-01
6.033439e-01
6.063376e-01
6.074110e-01
6.063795e-01
6.034636e-01
5.991097e-01
5.938233e-01
5.882874e-01
5.828361e-01
5.770576e-01
0.000000e+00
1.000000e+00
5.768153e-01
5.801452e-01
5.842620e-01
5.884169e-01
5.923575e-01
5.956699e-01
5.979035e-01
5.986991e-01
5.979205e-01
5.957340e-01
5.924919e-01
5.885616e-01
5.844483e-01
5.803863e-01
5.758939e-01
0.000000e+00
1.000000e+00
5.756037e-01
5.778553e-01
5.806495e-01
5.834703e-01
5.861455e-01
5.883938e-01
5.899091e-01
5.904471e-01
5.899147e-01
5.884183e-01
5.862239e-01
5.835750e-01
5.808054e-01
5.780648e-01
5.747921e-01
0.000000e+00
1.000000e+00
5.745480e-01
5.758343e-01
5.774618e-01
5.791044e-01
5.806620e-01
5.819705e-01
5.828516e-01
5.831625e-01
5.828500e-01
5.819726e-01
5.806864e-01
5.791564e-01
5.775801e-01
5.760080e-01
5.738428e-01
0.000000e+00
1.000000e+00
5.737799e-01
5.742027e-01
5.748867e-01
5.755787e-01
5.762350e-01
5.767858e-01
5.771560e-01
5.772847e-01
5.771499e-01
5.767787e-01
5.762311e-01
5.755859e-01
5.749446e-01
5.743391e-01
5.729668e-01
0.000000e+00
1.000000e+00
5.731757e-01
5.730434e-01
5.730715e-01
5.730930e-01
5.731135e-01
5.731304e-01
5.731411e-01
5.731429e-01
5.731345e-01
5.731202e-01
5.731053e-01
5.730861e-01
5.730917e-01
5.731549e-01
5.725380e-01
0.000000e+00
1.000000e+00
5.727852e-01
5.724045e-01
5.720742e-01
5.717275e-01
5.713991e-01
5.711234e-01
5.709380e-01
5.708730e-01
5.709391e-01
5.711251e-01
5.714041e-01
5.717364e-01
5.720884e-01
5.726159e-01
5.715955e-01
0.000000e+00
1.000000e+00
5.726969e-01
5.722916e-01
5.718947e-01
5.714824e-01
5.710919e-01
5.707643e-01
5.705442e-01
5.704675e-01
5.705480e-01
5.707720e-01
5.711040e-01
5.715095e-01
5.719185e-01
5.727352e-01
5.708551e-01
0.000000e+00
1.000000e+00
5.728460e-01
5.726603e-01
5.724664e-01
5.722653e-01
5.720751e-01
5.719158e-01
5.718090e-01
5.717719e-01
5.718117e-01
5.719234e-01
5.720897e-01
5.723083e-01
5.725046e-01
5.732430e-01
5.707963e-01
0.000000e+00
1.000000e+00
5.732329e-01
5.734352e-01
5.736750e-01
5.739203e-01
5.741530e-01
5.743486e-01
5.744800e-01
5.745253e-01
5.744762e-01
5.743435e-01
5.741547e-01
5.739690e-01
5.737317e-01
5.739307e-01
5.717079e-01
0.000000e+00
1.000000e+00
5.737974e-01
5.745264e-01
5.753838e-01
5.762599e-01
5.770905e-01
5.777879e-01
5.782566e-01
5.784196e-01
5.782471e-01
5.777711e-01
5.770748e-01
5.762934e-01
5.754597e-01
5.749816e-01
5.715350e-01
0.000000e+00
1.000000e+00
5.744918e-01
5.758410e-01
5.774489e-01
5.790876e-01
5.806411e-01
5.819457e-01
5.828231e-01
5.831304e-01
5.828134e-01
5.819307e-01
5.806299e-01
5.791148e-01
5.775512e-01
5.762199e-01
5.713004e-01
0.000000e+00
1.000000e+00
5.837920e-01
5.927777e-01
6.044126e-01
6.160101e-01
6.270171e-01
6.362929e-01
6.425927e-01
6.449167e-01
6.428343e-01
6.367057e-01
6.275791e-01
6.165625e-01
6.047259e-01
5.932634e-01
5.821312e-01
0.000000e+00
1.000000e+00
5.830172e-01
5.915484e-01
6.024040e-01
6.132599e-01
6.235602e-01
6.322361e-01
6.381254e-01
6.402930e-01
6.383309e-01
6.325941e-01
6.240962e-01
6.138011e-01
6.027420e-01
5.920089e-01
5.813991e-01
0.000000e+00
1.000000e+00
5.821084e-01
5.899562e-01
5.998385e-01
6.097431e-01
6.191385e-01
6.270494e-01
6.324138e-01
6.343805e-01
6.325820e-01
6.273643e-01
6.196256e-01
6.101856e-01
6.001280e-01
5.903563e-01
5.805812e-01
0.000000e+00
1.000000e+00
5.810411e-01
5.880272e-01
5.967526e-01
6.055166e-01
6.138286e-01
6.208244e-01
6.255614e-01
6.272877e-01
6.256861e-01
6.210872e-01
6.142350e-01
6.058599e-01
5.970065e-01
5.883832e-01
5.797155e-01
0.000000e+00
1.000000e+00
5.798421e-01
5.858205e-01
5.932432e-01
6.007125e-01
6.077959e-01
6.137546e-01
6.177837e-01
6.192417e-01
6.178656e-01
6.139584e-01
6.081136e-01
6.009763e-01
5.934791e-01
5.861325e-01
5.786374e-01
0.000000e+00
1.000000e+00
5.785660e-01
5.834343e-01
5.894630e-01
5.955385e-01
6.013007e-01
6.061457e-01
6.094169e-01
6.105921e-01
6.094630e-01
6.062867e-01
6.015323e-01
5.957418e-01
5.896716e-01
5.837109e-01
5.774755e-01
0.000000e+00
1.000000e+00
5.772794e-01
5.809994e-01
5.856153e-01
5.902705e-01
5.946860e-01
5.983980e-01
6.009019e-01
6.017962e-01
6.009244e-01
5.984828e-01
5.948484e-01
5.904284e-01
5.857990e-01
5.812373e-01
5.763101e-01
0.000000e+00
1.000000e+00
5.760443e-01
5.786717e-01
5.819356e-01
5.852311e-01
5.883568e-01
5.909841e-01
5.927557e-01
5.933859e-01
5.927637e-01
5.910221e-01
5.884615e-01
5.853523e-01
5.820839e-01
5.788702e-01
5.751738e-01
0.000000e+00
1.000000e+00
5.749523e-01
5.765985e-01
5.786613e-01
5.807469e-01
5.827247e-01
5.843866e-01
5.855062e-01
5.859024e-01
5.855058e-01
5.843920e-01
5.827678e-01
5.808206e-01
5.787764e-01
5.767577e-01
5.742131e-01
0.000000e+00
1.000000e+00
5.741094e-01
5.749091e-01
5.759962e-01
5.770977e-01
5.781420e-01
5.790190e-01
5.796092e-01
5.798171e-01
5.796065e-01
5.790158e-01
5.781454e-01
5.771165e-01
5.760547e-01
5.750337e-01
5.733344e-01
0.000000e+00
1.000000e+00
5.735089e-01
5.737009e-01
5.740997e-01
5.745008e-01
5.748809e-01
5.751997e-01
5.754133e-01
5.754864e-01
5.754063e-01
5.751888e-01
5.748680e-01
5.744882e-01
5.741088e-01
5.737903e-01
5.729480e-01
0.000000e+00
1.000000e+00
5.731014e-01
5.730257e-01
5.730451e-01
5.730564e-01
5.730670e-01
5.730758e-01
5.730815e-01
5.730829e-01
5.730791e-01
5.730710e-01
5.730599e-01
5.730440e-01
5.730341e-01
5.732328e-01
5.718024e-01
0.000000e+00
1.000000e+00
5.730114e-01
5.728862e-01
5.728245e-01
5.727550e-01
5.726892e-01
5.726341e-01
5.725971e-01
5.725846e-01
5.725987e-01
5.726367e-01
5.726925e-01
5.727594e-01
5.728225e-01
5.734451e-01
5.705942e-01
0.000000e+00
1.000000e+00
5.731599e-01
5.732398e-01
5.733757e-01
5.735097e-01
5.736370e-01
5.737439e-01
5.738160e-01
5.738415e-01
5.738162e-01
5.737454e-01
5.736405e-01
5.735256e-01
5.733869e-01
5.739698e-01
5.705509e-01
0.000000e+00
1.000000e+00
5.735364e-01
5.740090e-01
5.745774e-01
5.751553e-01
5.757032e-01
5.761633e-01
5.764726e-01
5.765804e-01
5.764675e-01
5.761550e-01
5.756965e-01
5.751721e-01
5.746117e-01
5.745555e-01
5.712594e-01
0.000000e+00
1.000000e+00
5.741002e-01
5.751000e-01
5.762868e-01
5.774961e-01
5.786424e-01
5.796051e-01
5.802523e-01
5.804787e-01
5.802438e-01
5.795907e-01
5.786282e-01
5.775073e-01
5.763512e-01
5.755741e-01
5.711617e-01
0.000000e+00
1.000000e+00
5.747997e-01
5.764163e-01
5.783558e-01
5.803294e-01
5.822005e-01
5.837719e-01
5.848293e-01
5.852015e-01
5.848234e-01
5.837648e-01
5.821981e-01
5.803568e-01
5.784559e-01
5.766696e-01
5.724655e-01
0.000000e+00
1.000000e+00
5.838076e-01
5.928629e-01
6.045152e-01
6.161469e-01
6.271918e-01
6.365020e-01
6.428251e-01
6.451567e-01
6.430757e-01
6.369421e-01
6.277473e-01
6.167344e-01
6.048281e-01
5.933088e-01
5.821403e-01
0.000000e+00
1.000000e+00
5.831011e-01
5.917191e-01
6.026533e-01
6.136009e-01
6.239943e-01
6.327508e-01
6.386926e-01
6.408752e-01
6.388996e-01
6.331324e-01
6.245274e-01
6.141834e-01
6.029992e-01
5.921580e-01
5.814713e-01
0.000000e+00
1.000000e+00
5.822358e-01
5.901972e-01
6.002090e-01
6.102554e-01
6.197899e-01
6.278170e-01
6.332571e-01
6.352470e-01
6.334231e-01
6.281491e-01
6.202834e-01
6.107501e-01
6.005186e-01
5.905897e-01
5.806831e-01
0.000000e+00
1.000000e+00
5.811966e-01
5.883209e-01
5.972131e-01
6.061532e-01
6.146350e-01
6.217721e-01
6.266030e-01
6.283594e-01
6.267237e-01
6.220456e-01
6.150572e-01
6.065375e-01
5.974779e-01
5.886729e-01
5.798367e-01
0.000000e+00
1.000000e+00
5.800171e-01
5.861447e-01
5.937539e-01
6.014163e-01
6.086850e-01
6.147992e-01
6.189325e-01
6.204252e-01
6.190115e-01
6.150101e-01
6.090265e-01
6.017119e-01
5.940004e-01
5.864560e-01
5.787738e-01
0.000000e+00
1.000000e+00
5.787462e-01
5.837654e-01
5.899830e-01
5.962519e-01
6.021993e-01
6.072009e-01
6.105787e-01
6.117915e-01
6.106259e-01
6.073504e-01
6.024594e-01
5.964817e-01
5.902014e-01
5.840401e-01
5.776150e-01
0.000000e+00
1.000000e+00
5.774518e-01
5.813165e-01
5.861087e-01
5.909459e-01
5.955345e-01
5.993929e-01
6.019972e-01
6.029279e-01
6.020221e-01
5.994852e-01
5.957211e-01
5.911247e-01
5.863012e-01
5.815496e-01
5.764320e-01
0.000000e+00
1.000000e+00
5.761985e-01
5.789559e-01
5.823752e-01
5.858331e-01
5.891128e-01
5.918697e-01
5.937287e-01
5.943894e-01
5.937356e-01
5.919084e-01
5.892293e-01
5.859728e-01
5.825321e-01
5.791465e-01
5.752803e-01
0.000000e+00
1.000000e+00
5.750754e-01
5.768387e-01
5.790315e-01
5.812540e-01
5.833615e-01
5.851324e-01
5.863252e-01
5.867465e-01
5.863216e-01
5.851330e-01
5.834053e-01
5.813442e-01
5.791569e-01
5.769890e-01
5.742937e-01
0.000000e+00
1.000000e+00
5.741855e-01
5.751027e-01
5.762967e-01
5.775091e-01
5.786586e-01
5.796239e-01
5.802735e-01
5.805016e-01
5.802677e-01
5.796141e-01
5.786558e-01
5.775325e-01
5.763637e-01
5.752218e-01
5.733781e-01
0.000000e+00
1.000000e+00
5.735696e-01
5.738559e-01
5.743386e-01
5.748279e-01
5.752914e-01
5.756801e-01
5.759407e-01
5.760302e-01
5.759327e-01
5.756659e-01
5.752723e-01
5.748138e-01
5.743515e-01
5.739455e-01
5.729627e-01
0.000000e+00
1.000000e+00
5.731739e-01
5.731562e-01
5.732448e-01
5.733296e-01
5.734096e-01
5.734763e-01
5.735204e-01
5.735340e-01
5.735138e-01
5.734632e-01
5.733900e-01
5.733056e-01
5.732296e-01
5.733824e-01
5.717178e-01
0.000000e+00
1.000000e+00
5.730569e-01
5.730049e-01
5.730067e-01
5.730039e-01
5.730012e-01
5.729987e-01
5.729969e-01
5.729959e-01
5.729956e-01
5.729952e-01
5.729934e-01
5.729911e-01
5.729990e-01
5.736967e-01
5.701429e-01
0.000000e+00
1.000000e+00
5.732366e-01
5.733567e-01
5.735562e-01
5.737569e-01
5.739471e-01
5.741067e-01
5.742140e-01
5.742516e-01
5.742128e-01
5.741043e-01
5.739422e-01
5.737544e-01
5.735654e-01
5.742168e-01
5.701395e-01
0.000000e+00
1.000000e+00
5.736108e-01
5.741335e-01
5.747724e-01
5.754220e-01
5.760377e-01
5.765547e-01
5.769021e-01
5.770233e-01
5.768966e-01
5.765447e-01
5.760249e-01
5.754203e-01
5.748078e-01
5.747811e-01
5.708646e-01
0.000000e+00
1.000000e+00
5.741786e-01
5.752378e-01
5.765039e-01
5.777929e-01
5.790149e-01
5.800411e-01
5.807310e-01
5.809727e-01
5.807230e-01
5.800274e-01
5.789991e-01
5.777931e-01
5.765652e-01
5.757739e-01
5.707889e-01
0.000000e+00
1.000000e+00
5.748807e-01
5.765702e-01
5.785983e-01
5.806613e-01
5.826172e-01
5.842600e-01
5.853656e-01
5.857554e-01
5.853610e-01
5.842541e-01
5.826137e-01
5.806857e-01
5.787055e-01
5.767420e-01
5.727765e-01
0.000000e+00
1.000000e+00
5.835337e-01
5.924455e-01
6.038082e-01
6.151753e-01
6.259668e-01
6.350630e-01
6.412414e-01
6.435169e-01
6.414962e-01
6.355080e-01
6.264975e-01
6.157773e-01
6.041143e-01
5.928343e-01
5.819033e-01
0.000000e+00
1.000000e+00
5.828826e-01
5.913558e-01
6.020454e-01
6.127660e-01
6.229431e-01
6.315183e-01
6.373363e-01
6.394662e-01
6.375426e-01
6.319068e-01
6.234614e-01
6.133533e-01
6.023824e-01
5.917607e-01
5.812867e-01
0.000000e+00
1.000000e+00
5.820510e-01
5.898802e-01
5.996813e-01
6.095299e-01
6.188778e-01
6.267508e-01
6.320869e-01
6.340297e-01
6.322484e-01
6.270902e-01
6.193686e-01
6.100468e-01
6.000000e-01
5.902521e-01
5.805241e-01
0.000000e+00
1.000000e+00
5.810314e-01
5.880358e-01
5.967407e-01
6.055039e-01
6.138204e-01
6.208216e-01
6.255614e-01
6.272777e-01
6.256760e-01
6.210971e-01
6.142519e-01
6.059167e-01
5.970159e-01
5.883712e-01
5.796837e-01
0.000000e+00
1.000000e+00
5.798640e-01
5.858747e-01
5.933096e-01
6.008060e-01
6.079195e-01
6.139054e-01
6.179533e-01
6.194116e-01
6.180274e-01
6.141126e-01
6.082775e-01
6.011316e-01
5.935697e-01
5.861750e-01
5.786280e-01
0.000000e+00
1.000000e+00
5.785959e-01
5.834941e-01
5.895392e-01
5.956430e-01
6.014343e-01
6.063059e-01
6.095971e-01
6.107773e-01
6.096405e-01
6.064465e-01
6.017100e-01
5.959000e-01
5.897729e-01
5.837595e-01
5.774681e-01
0.000000e+00
1.000000e+00
5.772919e-01
5.810289e-01
5.856401e-01
5.903037e-01
5.947279e-01
5.984481e-01
6.009587e-01
6.018542e-01
6.009781e-01
5.985250e-01
5.949196e-01
5.905052e-01
5.858503e-01
5.812526e-01
5.762793e-01
0.000000e+00
1.000000e+00
5.760207e-01
5.786393e-01
5.818632e-01
5.851319e-01
5.882321e-01
5.908380e-01
5.925943e-01
5.932165e-01
5.925943e-01
5.908574e-01
5.883337e-01
5.852870e-01
5.820419e-01
5.788219e-01
5.751141e-01
0.000000e+00
1.000000e+00
5.748789e-01
5.764861e-01
5.784675e-01
5.804819e-01
5.823920e-01
5.839966e-01
5.850765e-01
5.854559e-01
5.850664e-01
5.839812e-01
5.824069e-01
5.805663e-01
5.786158e-01
5.766358e-01
5.741127e-01
0.000000e+00
1.000000e+00
5.739657e-01
5.747169e-01
5.756851e-01
5.766717e-01
5.776069e-01
5.783919e-01
5.789191e-01
5.791021e-01
5.789071e-01
5.783685e-01
5.775790e-01
5.766810e-01
5.757658e-01
5.748389e-01
5.732017e-01
0.000000e+00
1.000000e+00
5.733348e-01
5.734460e-01
5.736912e-01
5.739413e-01
5.741780e-01
5.743759e-01
5.745076e-01
5.745506e-01
5.744963e-01
5.743540e-01
5.741456e-01
5.739302e-01
5.737216e-01
5.735489e-01
5.726906e-01
0.000000e+00
1.000000e+00
5.729619e-01
5.727357e-01
5.725800e-01
5.724193e-01
5.722664e-01
5.721371e-01
5.720487e-01
5.720143e-01
5.720391e-01
5.721183e-01
5.722400e-01
5.724038e-01
5.725874e-01
5.729942e-01
5.714589e-01
0.000000e+00
1.000000e+00
5.728399e-01
5.725887e-01
5.723497e-01
5.721038e-01
5.718703e-01
5.716735e-01
5.715402e-01
5.714913e-01
5.715348e-01
5.716621e-01
5.718532e-01
5.720933e-01
5.723664e-01
5.733659e-01
5.699378e-01
0.000000e+00
1.000000e+00
5.730170e-01
5.729565e-01
5.729238e-01
5.728907e-01
5.728589e-01
5.728317e-01
5.728128e-01
5.728048e-01
5.728086e-01
5.728230e-01
5.728452e-01
5.728896e-01
5.729598e-01
5.738672e-01
5.698683e-01
0.000000e+00
1.000000e+00
5.734305e-01
5.737570e-01
5.741786e-01
5.746090e-01
5.750168e-01
5.753589e-01
5.755883e-01
5.756672e-01
5.755810e-01
5.753448e-01
5.749958e-01
5.746087e-01
5.742361e-01
5.744638e-01
5.706102e-01
0.000000e+00
1.000000e+00
5.740045e-01
5.748911e-01
5.759578e-01
5.770451e-01
5.780757e-01
5.789408e-01
5.795221e-01
5.797247e-01
5.795120e-01
5.789221e-01
5.780491e-01
5.770354e-01
5.760311e-01
5.753792e-01
5.705351e-01
0.000000e+00
1.000000e+00
5.747191e-01
5.762569e-01
5.781042e-01
5.799845e-01
5.817672e-01
5.832643e-01
5.842716e-01
5.846258e-01
5.842644e-01
5.832530e-01
5.817531e-01
5.799864e-01
5.782235e-01
5.763771e-01
5.729783e-01
0.000000e+00
1.000000e+00
5.829821e-01
5.915191e-01
6.022973e-01
6.131054e-01
6.233628e-01
6.320046e-01
6.378695e-01
6.400246e-01
6.381056e-01
6.324241e-01
6.238601e-01
6.136788e-01
6.025798e-01
5.918538e-01
5.814235e-01
0.000000e+00
1.000000e+00
5.823626e-01
5.904500e-01
6.005774e-01
6.107546e-01
6.204135e-01
6.285489e-01
6.340640e-01
6.360775e-01
6.342508e-01
6.289162e-01
6.209071e-01
6.113080e-01
6.008933e-01
5.908135e-01
5.808331e-01
0.000000e+00
1.000000e+00
5.815500e-01
5.889898e-01
5.982452e-01
6.075621e-01
6.164041e-01
6.238490e-01
6.288907e-01
6.307210e-01
6.290330e-01
6.241667e-01
6.168783e-01
6.080657e-01
5.985653e-01
5.893356e-01
5.800816e-01
0.000000e+00
1.000000e+00
5.805427e-01
5.871524e-01
5.953222e-01
6.035602e-01
6.113775e-01
6.179574e-01
6.224090e-01
6.240164e-01
6.225061e-01
6.182062e-01
6.117989e-01
6.039748e-01
5.956055e-01
5.874668e-01
5.792361e-01
0.000000e+00
1.000000e+00
5.793796e-01
5.849895e-01
5.918926e-01
5.988644e-01
6.054797e-01
6.110458e-01
6.148078e-01
6.161595e-01
6.148671e-01
6.112205e-01
6.058292e-01
5.992027e-01
5.921664e-01
5.852745e-01
5.781781e-01
0.000000e+00
1.000000e+00
5.781093e-01
5.825976e-01
5.881079e-01
5.936824e-01
5.989713e-01
6.034196e-01
6.064231e-01
6.074968e-01
6.064534e-01
6.035239e-01
5.992321e-01
5.939572e-01
5.883619e-01
5.828522e-01
5.770254e-01
0.000000e+00
1.000000e+00
5.767946e-01
5.801131e-01
5.841819e-01
5.883069e-01
5.922201e-01
5.955102e-01
5.977292e-01
5.985177e-01
5.977362e-01
5.955493e-01
5.923786e-01
5.885252e-01
5.844179e-01
5.803312e-01
5.758311e-01
0.000000e+00
1.000000e+00
5.755095e-01
5.776985e-01
5.803707e-01
5.830884e-01
5.856659e-01
5.878320e-01
5.892906e-01
5.898047e-01
5.892817e-01
5.878216e-01
5.857132e-01
5.832346e-01
5.805833e-01
5.778829e-01
5.746596e-01
0.000000e+00
1.000000e+00
5.743603e-01
5.755199e-01
5.769411e-01
5.783918e-01
5.797672e-01
5.809220e-01
5.816979e-01
5.819676e-01
5.816814e-01
5.808893e-01
5.797337e-01
5.784353e-01
5.771046e-01
5.756742e-01
5.736377e-01
0.000000e+00
1.000000e+00
5.734406e-01
5.737317e-01
5.741341e-01
5.745479e-01
5.749398e-01
5.752680e-01
5.754870e-01
5.755596e-01
5.754710e-01
5.752355e-01
5.748917e-01
5.745702e-01
5.742322e-01
5.738641e-01
5.726782e-01
0.000000e+00
1.000000e+00
5.728070e-01
5.724527e-01
5.721306e-01
5.718045e-01
5.714947e-01
5.712335e-01
5.710559e-01
5.709895e-01
5.710450e-01
5.712126e-01
5.714661e-01
5.718363e-01
5.721951e-01
5.725747e-01
5.720291e-01
0.000000e+00
1.000000e+00
5.724537e-01
5.717475e-01
5.710278e-01
5.702942e-01
5.695980e-01
5.690123e-01
5.686165e-01
5.684740e-01
5.686096e-01
5.689999e-01
5.695854e-01
5.703215e-01
5.710819e-01
5.720392e-01
5.708138e-01
0.000000e+00
1.000000e+00
5.723538e-01
5.716198e-01
5.708281e-01
5.700204e-01
5.692540e-01
5.686094e-01
5.681743e-01
5.680188e-01
5.681700e-01
5.686017e-01
5.692495e-01
5.700445e-01
5.708952e-01
5.724402e-01
5.694447e-01
0.000000e+00
1.000000e+00
5.725284e-01
5.720205e-01
5.714527e-01
5.708758e-01
5.703283e-01
5.698677e-01
5.695565e-01
5.694448e-01
5.695521e-01
5.698595e-01
5.703216e-01
5.709056e-01
5.715320e-01
5.729498e-01
5.694339e-01
0.000000e+00
1.000000e+00
5.729632e-01
5.728625e-01
5.727711e-01
5.726817e-01
5.725964e-01
5.725241e-01
5.724741e-01
5.724540e-01
5.724664e-01
5.725094e-01
5.725758e-01
5.727156e-01
5.728621e-01
5.735942e-01
5.703657e-01
0.000000e+00
1.000000e+00
5.735727e-01
5.740433e-01
5.746238e-01
5.752186e-01
5.757822e-01
5.762549e-01
5.765714e-01