<?xml version="1.0"?>
<VTKFile type="StructuredGrid" version="0.1">
  <StructuredGrid WholeExtent="0 16 0 16 0 16">
    <Piece Extent="0 16 0 16 0 16">
      <PointData Scalars="temperature" Vectors="velocity">
        <DataArray type="Float32" Name="temperature" format="ascii">
1.000000e+00
5.725970e-01
5.722909e-01
5.718516e-01
5.714246e-01
5.710208e-01
5.706830e-01
5.704564e-01
5.703765e-01
5.704572e-01
5.706883e-01
5.710487e-01
5.716426e-01
5.720613e-01
5.733397e-01
5.682357e-01
0.000000e+00
1.000000e+00
5.734519e-01
5.738575e-01
5.743151e-01
5.747979e-01
5.752564e-01
5.756424e-01
5.759021e-01
5.759911e-01
5.758921e-01
5.756231e-01
5.752378e-01
5.749561e-01
5.745244e-01
5.747189e-01
5.699707e-01
0.000000e+00
1.000000e+00
5.744316e-01
5.757021e-01
5.772183e-01
5.787732e-01
5.802478e-01
5.814870e-01
5.823205e-01
5.826110e-01
5.823065e-01
5.814638e-01
5.802291e-01
5.788698e-01
5.774614e-01
5.766247e-01
5.696668e-01
0.000000e+00
1.000000e+00
5.755566e-01
5.777889e-01
5.805059e-01
5.832755e-01
5.859024e-01
5.881096e-01
5.895947e-01
5.901167e-01
5.895866e-01
5.881082e-01
5.859304e-01
5.834030e-01
5.807606e-01
5.787598e-01
5.703936e-01
0.000000e+00
1.000000e+00
5.768059e-01
5.800508e-01
5.840797e-01
5.881685e-01
5.920485e-01
5.953109e-01
5.975093e-01
5.982890e-01
5.975184e-01
5.953480e-01
5.921391e-01
5.883555e-01
5.843295e-01
5.808593e-01
5.721287e-01
0.000000e+00
1.000000e+00
5.781060e-01
5.824046e-01
5.878065e-01
5.932699e-01
5.984540e-01
6.028143e-01
6.057571e-01
6.068080e-01
6.057885e-01
6.028924e-01
5.986039e-01
5.935110e-01
5.880612e-01
5.830547e-01
5.736044e-01
0.000000e+00
1.000000e+00
5.794239e-01
5.847412e-01
5.915182e-01
5.983512e-01
6.048350e-01
6.102895e-01
6.139734e-01
6.152953e-01
6.140293e-01
6.104115e-01
6.050553e-01
5.986561e-01
5.917832e-01
5.851894e-01
5.762707e-01
0.000000e+00
1.000000e+00
5.806906e-01
5.869390e-01
5.950264e-01
6.031543e-01
6.108668e-01
6.173574e-01
6.217466e-01
6.233309e-01
6.218374e-01
6.175465e-01
6.111923e-01
6.035469e-01
5.953189e-01
5.873405e-01
5.781916e-01
0.000000e+00
1.000000e+00
5.818109e-01
5.888817e-01
5.981426e-01
6.074190e-01
6.162220e-01
6.236346e-01
6.286555e-01
6.304819e-01
6.287985e-01
6.239252e-01
6.166785e-01
6.079085e-01
5.984767e-01
5.892769e-01
5.797942e-01
0.000000e+00
1.000000e+00
5.827156e-01
5.904686e-01
6.006961e-01
6.109112e-01
6.206076e-01
6.287788e-01
6.343239e-01
6.363580e-01
6.345299e-01
6.291864e-01
6.211860e-01
6.114957e-01
6.010959e-01
5.909011e-01
5.810275e-01
0.000000e+00
1.000000e+00
5.834482e-01
5.915994e-01
6.025468e-01
6.134458e-01
6.237959e-01
6.325236e-01
6.384552e-01
6.406463e-01
6.387183e-01
6.330312e-01
6.244717e-01
6.141124e-01
6.030333e-01
5.920866e-01
5.815646e-01
0.000000e+00
1.000000e+00
5.839747e-01
5.922152e-01
6.036142e-01
6.149144e-01
6.256480e-01
6.347024e-01
6.408617e-01
6.431451e-01
6.411594e-01
6.352720e-01
6.263929e-01
6.156346e-01
6.041440e-01
5.927658e-01
5.817690e-01
0.000000e+00
1.000000e+00
5.840937e-01
5.923602e-01
6.038881e-01
6.152901e-01
6.261190e-01
6.352549e-01
6.414760e-01
6.437885e-01
6.417840e-01
6.358510e-01
6.269114e-01
6.160360e-01
6.043925e-01
5.929432e-01
5.818323e-01
0.000000e+00
1.000000e+00
5.839090e-01
5.920489e-01
6.033810e-01
6.145904e-01
6.252418e-01
6.342331e-01
6.403612e-01
6.426469e-01
6.406633e-01
6.348325e-01
6.260601e-01
6.153324e-01
6.038201e-01
5.926276e-01
5.817885e-01
0.000000e+00
1.000000e+00
5.836692e-01
5.911970e-01
6.021581e-01
6.129287e-01
6.231627e-01
6.317996e-01
6.376828e-01
6.398778e-01
6.379717e-01
6.323691e-01
6.239625e-01
6.136387e-01
6.025837e-01
5.918470e-01
5.814325e-01
0.000000e+00
1.000000e+00
5.829899e-01
5.900399e-01
6.003501e-01
6.104553e-01
6.200563e-01
6.281565e-01
6.336697e-01
6.357216e-01
6.339435e-01
6.286830e-01
6.208109e-01
6.111226e-01
6.007791e-01
5.906711e-01
5.810524e-01
0.000000e+00
1.000000e+00
5.820073e-01
5.886508e-01
5.980690e-01
6.073281e-01
6.161245e-01
6.235435e-01
6.285885e-01
6.304602e-01
6.288358e-01
6.240310e-01
6.168220e-01
6.079478e-01
5.985192e-01
5.891930e-01
5.803798e-01
0.000000e+00
1.000000e+00
5.733506e-01
5.737003e-01
5.740678e-01
5.744587e-01
5.748299e-01
5.751419e-01
5.753516e-01
5.754231e-01
5.753424e-01
5.751244e-01
5.748145e-01
5.745958e-01
5.742357e-01
5.745654e-01
5.681578e-01
0.000000e+00
1.000000e+00
5.742306e-01
5.753080e-01
5.766003e-01
5.779265e-01
5.791841e-01
5.802407e-01
5.809513e-01
5.811989e-01
5.809388e-01
5.802186e-01
5.791623e-01
5.780115e-01
5.768068e-01
5.757138e-01
5.729075e-01
0.000000e+00
1.000000e+00
5.752498e-01
5.771980e-01
5.795795e-01
5.820063e-01
5.843077e-01
5.862411e-01
5.875419e-01
5.879992e-01
5.875338e-01
5.862354e-01
5.843207e-01
5.821065e-01
5.798247e-01
5.776571e-01
5.730429e-01
0.000000e+00
1.000000e+00
5.764172e-01
5.793304e-01
5.829450e-01
5.866147e-01
5.900960e-01
5.930223e-01
5.949936e-01
5.956920e-01
5.949984e-01
5.930472e-01
5.901636e-01
5.867771e-01
5.831945e-01
5.797290e-01
5.744505e-01
0.000000e+00
1.000000e+00
5.776942e-01
5.816351e-01
5.865933e-01
5.916087e-01
5.963671e-01
6.003688e-01
6.030684e-01
6.040311e-01
6.030926e-01
6.004308e-01
5.964904e-01
5.918310e-01
5.868610e-01
5.820010e-01
5.763124e-01
0.000000e+00
1.000000e+00
5.790350e-01
5.840192e-01
5.903775e-01
5.967893e-01
6.028727e-01
6.079894e-01
6.114440e-01
6.126815e-01
6.114902e-01
6.080918e-01
6.030605e-01
5.970812e-01
5.906645e-01
5.843896e-01
5.771784e-01
0.000000e+00
1.000000e+00
5.803754e-01
5.863634e-01
5.941141e-01
6.019047e-01
6.092967e-01
6.155162e-01
6.197202e-01
6.212343e-01
6.197977e-01
6.156788e-01
6.095815e-01
6.022877e-01
5.944301e-01
5.867219e-01
5.788721e-01
0.000000e+00
1.000000e+00
5.816311e-01
5.885392e-01
5.975998e-01
6.066753e-01
6.152870e-01
6.225367e-01
6.274448e-01
6.292260e-01
6.275729e-01
6.227988e-01
6.157061e-01
6.071636e-01
5.979679e-01
5.889535e-01
5.801267e-01
0.000000e+00
1.000000e+00
5.827331e-01
5.904183e-01
6.006302e-01
6.108207e-01
6.204923e-01
6.286412e-01
6.341699e-01
6.361964e-01
6.343705e-01
6.290375e-01
6.210575e-01
6.114113e-01
6.010750e-01
5.908846e-01
5.810452e-01
0.000000e+00
1.000000e+00
5.836453e-01
5.918822e-01
6.030211e-01
6.140917e-01
6.246043e-01
6.334708e-01
6.394999e-01
6.417317e-01
6.397786e-01
6.340004e-01
6.252971e-01
6.147669e-01
6.035826e-01
5.924075e-01
5.817199e-01
0.000000e+00
1.000000e+00
5.844015e-01
5.928157e-01
6.046296e-01
6.163028e-01
6.273942e-01
6.367559e-01
6.431315e-01
6.455068e-01
6.434686e-01
6.373819e-01
6.281871e-01
6.170665e-01
6.052925e-01
5.934405e-01
5.821826e-01
0.000000e+00
1.000000e+00
5.849174e-01
5.931671e-01
6.053877e-01
6.173596e-01
6.287360e-01
6.383400e-01
6.448843e-01
6.473277e-01
6.452471e-01
6.390136e-01
6.296035e-01
6.182175e-01
6.060498e-01
5.939470e-01
5.823397e-01
0.000000e+00
1.000000e+00
5.850196e-01
5.930070e-01
6.053021e-01
6.172518e-01
6.286031e-01
6.381868e-01
6.447216e-01
6.471613e-01
6.450808e-01
6.388723e-01
6.295178e-01
6.181526e-01
6.058988e-01
5.938881e-01
5.823124e-01
0.000000e+00
1.000000e+00
5.848136e-01
5.923840e-01
6.044069e-01
6.160305e-01
6.270706e-01
6.363910e-01
6.427473e-01
6.451230e-01
6.430848e-01
6.370592e-01
6.279910e-01
6.169086e-01
6.049495e-01
5.932950e-01
5.823504e-01
0.000000e+00
1.000000e+00
5.843018e-01
5.913689e-01
6.027998e-01
6.138315e-01
6.243065e-01
6.331460e-01
6.391692e-01
6.414214e-01
6.394847e-01
6.337714e-01
6.251797e-01
6.146292e-01
6.033119e-01
5.922671e-01
5.819005e-01
0.000000e+00
1.000000e+00
5.832188e-01
5.901578e-01
6.006154e-01
6.108252e-01
6.205216e-01
6.287003e-01
6.342665e-01
6.363405e-01
6.345555e-01
6.292649e-01
6.213101e-01
6.115318e-01
6.011139e-01
5.908650e-01
5.812901e-01
0.000000e+00
1.000000e+00
5.819979e-01
5.886249e-01
5.979676e-01
6.071884e-01
6.159462e-01
6.233301e-01
6.283480e-01
6.302080e-01
6.285996e-01
6.238187e-01
6.166198e-01
6.077950e-01
5.984247e-01
5.892049e-01
5.813010e-01
0.000000e+00
1.000000e+00
5.740045e-01
5.749094e-01
5.759728e-01
5.770669e-01
5.781043e-01
5.789756e-01
5.795613e-01
5.797653e-01
5.795502e-01
5.789550e-01
5.780839e-01
5.771329e-01
5.761147e-01
5.755187e-01
5.694574e-01
0.000000e+00
1.000000e+00
5.748852e-01
5.765430e-01
5.785486e-01
5.805942e-01
5.825338e-01
5.841630e-01
5.852591e-01
5.856443e-01
5.852515e-01
5.841541e-01
5.825342e-01
5.806637e-01
5.787410e-01
5.767999e-01
5.739510e-01
0.000000e+00
1.000000e+00
5.759308e-01
5.784619e-01
5.815752e-01
5.847384e-01
5.877387e-01
5.902602e-01
5.919585e-01
5.925595e-01
5.919602e-01
5.902744e-01
5.877804e-01
5.848673e-01
5.818067e-01
5.788096e-01
5.741861e-01
0.000000e+00
1.000000e+00
5.771461e-01
5.806195e-01
5.849898e-01
5.894133e-01
5.936095e-01
5.971376e-01
5.995170e-01
6.003644e-01
5.995349e-01
5.971834e-01
5.937012e-01
5.896083e-01
5.852437e-01
5.809267e-01
5.755140e-01
0.000000e+00
1.000000e+00
5.784488e-01
5.829470e-01
5.886821e-01
5.944683e-01
5.999573e-01
6.045733e-01
6.076890e-01
6.088037e-01
6.077265e-01
6.046549e-01
6.001071e-01
5.947346e-01
5.889680e-01
5.832815e-01
5.771451e-01
0.000000e+00
1.000000e+00
5.797906e-01
5.853435e-01
5.924939e-01
5.996862e-01
6.065099e-01
6.122501e-01
6.161288e-01
6.175230e-01
6.161922e-01
6.123825e-01
6.067469e-01
6.000387e-01
5.928117e-01
5.857133e-01
5.781526e-01
0.000000e+00
1.000000e+00
5.811222e-01
5.876812e-01
5.962280e-01
6.047968e-01
6.129269e-01
6.197699e-01
6.243997e-01
6.260748e-01
6.245058e-01
6.199913e-01
6.132939e-01
6.052504e-01
5.965931e-01
5.880785e-01
5.796183e-01
0.000000e+00
1.000000e+00
5.823856e-01
5.898151e-01
5.996644e-01
6.094990e-01
6.188315e-01
6.266918e-01
6.320205e-01
6.339673e-01
6.321965e-01
6.270490e-01
6.193518e-01
6.100501e-01
6.001218e-01
5.902745e-01
5.806963e-01
0.000000e+00
1.000000e+00
5.834940e-01
5.916061e-01
6.025848e-01
6.134943e-01
6.238509e-01
6.325830e-01
6.385177e-01
6.407113e-01
6.387834e-01
6.330945e-01
6.245205e-01
6.141438e-01
6.031523e-01
5.921334e-01
5.815484e-01
0.000000e+00
1.000000e+00
5.844104e-01
5.929217e-01
6.047954e-01
6.165236e-01
6.276657e-01
6.370709e-01
6.434777e-01
6.458675e-01
6.438226e-01
6.377075e-01
6.284681e-01
6.173078e-01
6.054197e-01
5.935603e-01
5.821949e-01
0.000000e+00
1.000000e+00
5.851579e-01
5.936326e-01
6.061562e-01
6.184079e-01
6.300518e-01
6.398848e-01
6.465888e-01
6.490998e-01
6.469775e-01
6.405889e-01
6.309417e-01
6.192981e-01
6.068160e-01
5.944739e-01
5.825790e-01
0.000000e+00
1.000000e+00
5.856336e-01
5.936829e-01
6.066166e-01
6.190678e-01
6.308926e-01
6.408759e-01
6.476813e-01
6.502292e-01
6.480759e-01
6.415968e-01
6.318306e-01
6.200135e-01
6.073154e-01
5.947890e-01
5.827249e-01
0.000000e+00
1.000000e+00
5.856278e-01
5.931876e-01
6.061982e-01
6.185028e-01
6.301777e-01
6.400333e-01
6.467533e-01
6.492634e-01
6.471250e-01
6.407426e-01
6.311445e-01
6.194824e-01
6.068850e-01
5.944893e-01
5.827913e-01
0.000000e+00
1.000000e+00
5.853123e-01
5.923089e-01
6.049411e-01
6.167787e-01
6.280088e-01
6.374887e-01
6.439528e-01
6.463672e-01
6.442905e-01
6.381665e-01
6.289742e-01
6.177250e-01
6.055756e-01
5.936625e-01
5.828246e-01
0.000000e+00
1.000000e+00
5.844919e-01
5.912683e-01
6.029618e-01
6.140603e-01
6.245919e-01
6.334795e-01
6.395346e-01
6.417965e-01
6.398461e-01
6.341036e-01
6.255018e-01
6.149118e-01
6.035227e-01
5.924037e-01
5.821767e-01
0.000000e+00
1.000000e+00
5.831501e-01
5.900193e-01
6.004139e-01
6.105514e-01
6.201776e-01
6.282974e-01
6.338230e-01
6.358792e-01
6.341059e-01
6.288496e-01
6.209846e-01
6.112850e-01
6.009310e-01
5.908263e-01
5.816646e-01
0.000000e+00
1.000000e+00
5.818018e-01
5.883112e-01
5.974326e-01
6.064570e-01
6.150282e-01
6.222544e-01
6.271642e-01
6.289812e-01
6.274077e-01
6.227243e-01
6.157039e-01
6.070743e-01
5.979118e-01
5.889882e-01
5.816003e-01
0.000000e+00
1.000000e+00
5.745097e-01
5.758382e-01
5.774404e-01
5.790765e-01
5.806276e-01
5.819304e-01
5.828068e-01
5.831145e-01
5.827993e-01
5.819191e-01
5.806206e-01
5.791220e-01
5.775777e-01
5.762152e-01
5.713439e-01
0.000000e+00
1.000000e+00
5.753924e-01
5.774740e-01
5.800216e-01
5.826111e-01
5.850667e-01
5.871299e-01
5.885191e-01
5.890102e-01
5.885182e-01
5.871344e-01
5.850861e-01
5.827012e-01
5.802054e-01
5.776300e-01
5.750731e-01
0.000000e+00
1.000000e+00
5.764446e-01
5.793946e-01
5.830552e-01
5.867641e-01
5.902820e-01
5.932392e-01
5.952329e-01
5.959419e-01
5.952438e-01
5.932681e-01
5.903402e-01
5.869185e-01
5.832812e-01
5.796976e-01
5.751128e-01
0.000000e+00
1.000000e+00
5.776435e-01
5.815577e-01
5.864783e-01
5.914502e-01
5.961664e-01
6.001320e-01
6.028078e-01
6.037637e-01
6.028354e-01
6.001911e-01
5.962741e-01
5.916731e-01
5.867363e-01
5.818386e-01
5.762267e-01
0.000000e+00
1.000000e+00
5.789427e-01
5.838873e-01
5.901734e-01
5.965086e-01
6.025184e-01
6.075732e-01
6.109872e-01
6.122120e-01
6.110355e-01
6.076724e-01
6.027014e-01
5.968127e-01
5.904669e-01
5.842094e-01
5.776742e-01
0.000000e+00
1.000000e+00
5.802911e-01
5.862742e-01
5.939731e-01
6.017096e-01
6.090491e-01
6.152248e-01
6.194004e-01
6.209059e-01
6.194802e-01
6.153936e-01
6.093527e-01
6.021019e-01
5.943143e-01
5.866380e-01
5.787850e-01
0.000000e+00
1.000000e+00
5.816401e-01
5.885786e-01
5.976677e-01
6.067658e-01
6.153983e-01
6.226660e-01
6.275874e-01
6.293757e-01
6.277232e-01
6.229550e-01
6.158559e-01
6.072538e-01
5.980796e-01
5.889914e-01
5.800424e-01
0.000000e+00
1.000000e+00
5.829177e-01
5.906458e-01
6.010244e-01
6.113595e-01
6.211679e-01
6.294326e-01
6.350422e-01
6.371038e-01
6.352653e-01
6.298832e-01
6.217849e-01
6.119384e-01
6.015556e-01
5.911315e-01
5.810536e-01
0.000000e+00
1.000000e+00
5.840155e-01
5.923319e-01
6.038146e-01
6.151782e-01
6.259691e-01
6.350730e-01
6.412692e-01
6.435737e-01
6.415899e-01
6.356819e-01
6.267319e-01
6.158694e-01
6.044624e-01
5.929166e-01
5.818774e-01
0.000000e+00
1.000000e+00
5.849424e-01
5.934825e-01
6.058360e-01
6.179574e-01
6.294764e-01
6.392045e-01
6.458378e-01
6.483241e-01
6.462298e-01
6.399190e-01
6.303613e-01
6.188147e-01
6.065120e-01
5.942487e-01
5.824161e-01
0.000000e+00
1.000000e+00
5.856971e-01
5.939513e-01
6.069578e-01
6.195269e-01
6.314685e-01
6.415530e-01
6.484315e-01
6.510143e-01
6.488498e-01
6.423065e-01
6.324209e-01
6.204807e-01
6.076225e-01
5.950459e-01
5.828197e-01
0.000000e+00
1.000000e+00
5.861118e-01
5.936713e-01
6.071478e-01
6.198159e-01
6.318342e-01
6.419799e-01
6.488966e-01
6.514873e-01
6.493038e-01
6.427254e-01
6.328116e-01
6.207751e-01
6.078770e-01
5.952086e-01
5.831125e-01
0.000000e+00
1.000000e+00
5.858278e-01
5.928817e-01
6.064343e-01
6.188308e-01
6.305844e-01
6.405074e-01
6.472716e-01
6.497937e-01
6.476384e-01
6.412202e-01
6.315770e-01
6.198391e-01
6.071778e-01
5.947322e-01
5.831644e-01
0.000000e+00
1.000000e+00
5.852289e-01
5.919805e-01
6.048594e-01
6.166596e-01
6.278522e-01
6.373030e-01
6.437471e-01
6.461452e-01
6.440664e-01
6.379668e-01
6.288358e-01
6.176430e-01
6.055156e-01
5.937245e-01
5.830927e-01
0.000000e+00
1.000000e+00
5.842076e-01
5.910019e-01
6.025562e-01
6.134964e-01
6.238777e-01
6.326403e-01
6.386135e-01
6.408383e-01
6.389043e-01
6.332388e-01
6.247954e-01
6.143730e-01
6.031326e-01
5.922701e-01
5.824719e-01
0.000000e+00
1.000000e+00
5.827814e-01
5.896487e-01
5.997091e-01
6.095784e-01
6.189488e-01
6.268522e-01
6.322328e-01
6.342335e-01
6.324976e-01
6.273684e-01
6.197457e-01
6.103107e-01
6.002356e-01
5.904829e-01
5.819039e-01
0.000000e+00
1.000000e+00
5.813682e-01
5.877529e-01
5.964623e-01
6.051236e-01
6.133474e-01
6.202786e-01
6.249868e-01
6.267261e-01
6.252078e-01
6.207054e-01
6.139884e-01
6.057097e-01
5.969292e-01
5.883412e-01
5.811373e-01
0.000000e+00
1.000000e+00
5.748398e-01
5.764103e-01
5.783479e-01
5.803193e-01
5.821884e-01
5.837585e-01
5.848154e-01
5.851883e-01
5.848122e-01
5.837553e-01
5.821892e-01
5.803739e-01
5.784857e-01
5.766568e-01
5.724739e-01
0.000000e+00
1.000000e+00
5.757267e-01
5.780167e-01
5.808845e-01
5.837927e-01
5.865505e-01
5.888683e-01
5.904300e-01
5.909836e-01
5.904336e-01
5.888803e-01
5.865785e-01
5.838989e-01
5.810726e-01
5.781473e-01
5.756670e-01
0.000000e+00
1.000000e+00
5.767636e-01
5.799041e-01
5.838721e-01
5.878829e-01
5.916869e-01
5.948846e-01
5.970411e-01
5.978098e-01
5.970579e-01
5.949212e-01
5.917518e-01
5.880522e-01
5.841061e-01
5.801876e-01
5.758268e-01
0.000000e+00
1.000000e+00
5.778893e-01
5.820409e-01
5.872498e-01
5.925060e-01
5.974917e-01
6.016844e-01
6.045146e-01
6.055275e-01
6.045479e-01
6.017504e-01
5.976156e-01
5.927486e-01
5.875164e-01
5.823141e-01
5.768948e-01
0.000000e+00
1.000000e+00
5.791251e-01
5.843463e-01
5.908959e-01
5.974955e-01
6.037561e-01
6.090228e-01
6.125813e-01
6.138600e-01
6.126359e-01
6.091353e-01
6.039787e-01
5.978249e-01
5.911994e-01
5.846677e-01
5.780410e-01
0.000000e+00
1.000000e+00
5.804742e-01
5.866970e-01
5.946349e-01
6.026127e-01
6.101813e-01
6.165508e-01
6.208592e-01
6.224153e-01
6.209499e-01
6.167488e-01
6.105474e-01
6.030292e-01
5.949901e-01
5.870600e-01
5.791423e-01
0.000000e+00
1.000000e+00
5.818549e-01
5.889431e-01
5.982479e-01
6.075587e-01
6.163932e-01
6.238321e-01
6.288720e-01
6.307080e-01
6.290280e-01
6.241677e-01
6.169153e-01
6.080872e-01
5.986654e-01
5.893708e-01
5.802155e-01
0.000000e+00
1.000000e+00
5.831361e-01
5.909280e-01
6.014956e-01
6.120050e-01
6.219797e-01
6.303865e-01
6.360957e-01
6.382009e-01
6.363480e-01
6.308903e-01
6.226517e-01
6.126647e-01
6.020145e-01
5.914302e-01
5.811709e-01
0.000000e+00
1.000000e+00
5.842047e-01
5.925082e-01
6.041433e-01
6.156310e-01
6.265418e-01
6.357488e-01
6.420184e-01
6.443572e-01
6.423678e-01
6.364055e-01
6.273477e-01
6.164146e-01
6.047905e-01
5.931076e-01
5.819700e-01
0.000000e+00
1.000000e+00
5.851043e-01
5.935230e-01
6.059854e-01
6.181703e-01
6.297498e-01
6.395291e-01
6.461982e-01
6.487014e-01
6.466076e-01
6.402774e-01
6.306650e-01
6.190325e-01
6.067849e-01
5.943015e-01
5.825716e-01
0.000000e+00
1.000000e+00
5.857838e-01
5.938379e-01
6.068992e-01
6.194564e-01
6.313827e-01
6.414532e-01
6.483204e-01
6.508970e-01
6.487396e-01
6.422223e-01
6.323607e-01
6.204132e-01
6.077134e-01
5.950013e-01
5.831283e-01
0.000000e+00
1.000000e+00
5.859878e-01
5.934181e-01
6.068660e-01
6.194266e-01
6.313396e-01
6.413977e-01
6.482540e-01
6.508127e-01
6.486430e-01
6.421368e-01
6.323396e-01
6.204364e-01
6.076334e-01
5.950867e-01
5.834305e-01
0.000000e+00
1.000000e+00
5.856500e-01
5.924758e-01
6.059039e-01
6.180922e-01
6.296494e-01
6.394094e-01
6.460650e-01
6.485358e-01
6.463982e-01
6.400958e-01
6.306480e-01
6.191176e-01
6.066226e-01
5.944988e-01
5.833736e-01
0.000000e+00
1.000000e+00
5.850280e-01
5.914152e-01
6.040641e-01
6.155640e-01
6.264733e-01
6.356865e-01
6.419712e-01
6.443096e-01
6.422565e-01
6.363094e-01
6.274461e-01
6.165424e-01
6.047066e-01
5.933321e-01
5.832481e-01
0.000000e+00
1.000000e+00
5.838134e-01
5.904189e-01
6.015173e-01
6.120673e-01
6.220813e-01
6.305354e-01
6.363008e-01
6.384547e-01
6.365679e-01
6.310845e-01
6.229762e-01
6.129326e-01
6.020992e-01
5.916405e-01
5.822726e-01
0.000000e+00
1.000000e+00
5.822859e-01
5.889275e-01
5.984600e-01
6.078599e-01
6.167868e-01
6.243165e-01
6.294440e-01
6.313567e-01
6.296935e-01
6.247816e-01
6.175483e-01
6.085639e-01
5.989783e-01
5.896366e-01
5.812631e-01
0.000000e+00
1.000000e+00
5.808028e-01
5.868936e-01
5.950381e-01
6.031675e-01
6.108856e-01
6.173890e-01
6.218056e-01
6.234387e-01
6.220056e-01
6.177693e-01
6.114793e-01
6.037091e-01
5.954804e-01
5.873411e-01
5.797871e-01
0.000000e+00
1.000000e+00
5.749219e-01
5.765646e-01
5.785909e-01
5.806517e-01
5.826059e-01
5.842477e-01
5.853531e-01
5.857436e-01
5.853506e-01
5.842446e-01
5.826044e-01
5.807057e-01
5.787376e-01
5.767313e-01
5.727896e-01
0.000000e+00
1.000000e+00
5.757967e-01
5.781048e-01
5.810238e-01
5.839833e-01
5.867899e-01
5.891487e-01
5.907381e-01
5.913018e-01
5.907424e-01
5.891607e-01
5.868144e-01
5.840907e-01
5.812175e-01
5.782446e-01
5.754840e-01
0.000000e+00
1.000000e+00
5.768092e-01
5.799207e-01
5.839023e-01
5.879247e-01
5.917396e-01
5.949465e-01
5.971093e-01
5.978806e-01
5.971267e-01
5.949822e-01
5.918046e-01
5.881062e-01
5.841378e-01
5.801965e-01
5.757609e-01
0.000000e+00
1.000000e+00
5.779021e-01
5.819855e-01
5.871689e-01
5.923960e-01
5.973542e-01
6.015235e-01
6.043380e-01
6.053456e-01
6.043712e-01
6.015880e-01
5.974924e-01
5.926600e-01
5.874422e-01
5.822648e-01
5.768535e-01
0.000000e+00
1.000000e+00
5.790922e-01
5.842185e-01
5.907022e-01
5.972313e-01
6.034247e-01
6.086347e-01
6.121550e-01
6.134200e-01
6.122087e-01
6.087475e-01
6.036782e-01
5.975833e-01
5.910101e-01
5.845485e-01
5.778831e-01
0.000000e+00
1.000000e+00
5.803636e-01
5.865007e-01
5.943265e-01
6.021904e-01
6.096506e-01
6.159289e-01
6.201756e-01
6.217093e-01
6.202654e-01
6.161302e-01
6.100460e-01
6.026388e-01
5.946739e-01
5.868650e-01
5.789999e-01
0.000000e+00
1.000000e+00
5.816693e-01
5.886797e-01
5.978189e-01
6.069697e-01
6.156529e-01
6.229644e-01
6.279177e-01
6.297214e-01
6.280728e-01
6.233039e-01
6.161955e-01
6.075538e-01
5.982048e-01
5.890951e-01
5.800307e-01
0.000000e+00
1.000000e+00
5.829379e-01
5.905833e-01
6.009328e-01
6.112349e-01
6.210133e-01
6.292538e-01
6.348489e-01
6.369100e-01
6.350984e-01
6.297554e-01
6.216925e-01
6.119744e-01
6.013940e-01
5.910563e-01
5.809579e-01
0.000000e+00
1.000000e+00
5.839678e-01
5.920769e-01
6.034351e-01
6.146644e-01
6.253290e-01
6.343260e-01
6.404494e-01
6.427295e-01
6.407903e-01
6.349687e-01
6.261194e-01
6.155413e-01
6.040334e-01
5.926291e-01
5.818712e-01
0.000000e+00
1.000000e+00
5.847192e-01
5.930328e-01
6.051253e-01
6.169916e-01
6.282672e-01
6.377873e-01
6.442753e-01
6.467032e-01
6.446660e-01
6.385132e-01
6.291571e-01
6.179281e-01
6.059149e-01
5.937192e-01
5.826199e-01
0.000000e+00
1.000000e+00
5.852074e-01
5.933344e-01
6.058820e-01
6.180501e-01
6.296078e-01
6.393675e-01
6.460223e-01
6.485066e-01
6.464073e-01
6.401090e-01
6.305775e-01
6.190277e-01
6.067032e-01
5.943332e-01
5.831853e-01
0.000000e+00
1.000000e+00
5.853828e-01
5.928313e-01
6.056615e-01
6.177663e-01
6.292523e-01
6.389531e-01
6.455696e-01
6.480313e-01
6.459133e-01
6.396583e-01
6.302564e-01
6.187935e-01
6.064212e-01
5.943312e-01
5.834293e-01
0.000000e+00
1.000000e+00
5.851108e-01
5.917095e-01
6.045136e-01
6.161918e-01
6.272655e-01
6.366176e-01
6.429987e-01
6.453736e-01
6.432894e-01
6.372542e-01
6.282444e-01
6.172001e-01
6.051924e-01
5.936060e-01
5.832581e-01
0.000000e+00
1.000000e+00
5.845071e-01
5.904978e-01
6.025144e-01
6.134498e-01
6.238211e-01
6.325783e-01
6.385526e-01
6.407856e-01
6.388121e-01
6.331350e-01
6.247450e-01
6.143753e-01
6.031413e-01
5.922762e-01
5.826810e-01
0.000000e+00
1.000000e+00
5.833530e-01
5.893921e-01
5.998412e-01
6.097733e-01
6.192005e-01
6.271564e-01
6.325811e-01
6.346158e-01
6.328398e-01
6.276339e-01
6.200305e-01
6.105755e-01
6.004013e-01
5.904562e-01
5.812052e-01
0.000000e+00
1.000000e+00
5.817302e-01
5.878219e-01
5.966854e-01
6.054277e-01
6.137297e-01
6.207295e-01
6.254921e-01
6.272713e-01
6.257314e-01
6.211293e-01
6.144170e-01
6.060652e-01
5.971670e-01
5.884099e-01
5.800593e-01
0.000000e+00
1.000000e+00
5.801862e-01
5.857414e-01
5.931916e-01
6.006375e-01
6.077057e-01
6.136590e-01
6.176968e-01
6.191874e-01
6.178751e-01
6.139875e-01
6.082278e-01
6.011156e-01
5.935883e-01
5.861314e-01
5.789187e-01
0.000000e+00
1.000000e+00
5.747320e-01
5.762541e-01
5.780971e-01
5.799753e-01
5.817562e-01
5.832523e-01
5.842592e-01
5.846140e-01
5.842538e-01
5.832433e-01
5.817420e-01
5.800032e-01
5.782484e-01
5.763698e-01
5.729957e-01
0.000000e+00
1.000000e+00
5.755729e-01
5.776886e-01
5.803629e-01
5.830783e-01
5.856536e-01
5.878181e-01
5.892764e-01
5.897929e-01
5.892772e-01
5.878216e-01
5.856618e-01
5.831765e-01
5.805611e-01
5.778331e-01
5.752890e-01
0.000000e+00
1.000000e+00
5.765271e-01
5.793946e-01
5.830650e-01
5.867782e-01
5.902999e-01
5.932604e-01
5.952566e-01
5.959671e-01
5.952684e-01
5.932853e-01
5.903547e-01
5.869745e-01
5.833077e-01
5.796587e-01
5.755158e-01
0.000000e+00
1.000000e+00
5.775837e-01
5.813461e-01
5.861519e-01
5.910041e-01
5.956067e-01
5.994769e-01
6.020885e-01
6.030219e-01
6.021150e-01
5.995284e-01
5.957454e-01
5.912876e-01
5.864340e-01
5.816208e-01
5.765761e-01
0.000000e+00
1.000000e+00
5.787526e-01
5.834618e-01
5.895058e-01
5.955954e-01
6.013721e-01
6.062307e-01
6.095122e-01
6.106895e-01
6.095570e-01
6.063245e-01
6.016277e-01
5.959651e-01
5.898188e-01
5.837929e-01
5.775385e-01
0.000000e+00
1.000000e+00
5.799466e-01
5.856339e-01
5.929576e-01
6.003192e-01
6.073030e-01
6.131790e-01
6.171518e-01
6.185832e-01
6.172262e-01
6.133526e-01
6.076982e-01
6.007878e-01
5.932993e-01
5.859962e-01
5.785864e-01
0.000000e+00
1.000000e+00
5.811332e-01
5.877218e-01
5.962892e-01
6.048774e-01
6.130264e-01
6.198868e-01
6.245313e-01
6.262160e-01
6.246602e-01
6.201891e-01
6.135676e-01
6.054706e-01
5.966534e-01
5.881135e-01
5.795811e-01
0.000000e+00
1.000000e+00
5.823036e-01
5.895517e-01
5.992536e-01
6.089371e-01
6.181282e-01
6.258709e-01
6.311220e-01
6.330456e-01
6.313326e-01
6.263238e-01
6.187938e-01
6.096709e-01
5.996784e-01
5.899704e-01
5.806026e-01
0.000000e+00
1.000000e+00
5.832437e-01
5.909875e-01
6.016193e-01
6.121794e-01
6.222067e-01
6.306616e-01
6.364072e-01
6.385320e-01
6.366992e-01
6.312425e-01
6.229626e-01
6.130593e-01
6.021415e-01
5.914698e-01
5.816635e-01
0.000000e+00
1.000000e+00
5.838939e-01
5.919096e-01
6.031913e-01
6.143377e-01
6.249264e-01
6.338627e-01
6.399485e-01
6.422102e-01
6.402851e-01
6.345207e-01
6.257595e-01
6.152987e-01
6.038460e-01
5.925022e-01
5.824105e-01
0.000000e+00
1.000000e+00
5.843319e-01
5.921753e-01
6.038374e-01
6.152344e-01
6.260628e-01
6.352086e-01
6.414489e-01
6.437715e-01
6.417809e-01
6.358887e-01
6.269747e-01
6.162044e-01
6.045582e-01
5.930320e-01
5.828920e-01
0.000000e+00
1.000000e+00
5.845144e-01
5.916990e-01
6.035191e-01
6.148179e-01
6.255461e-01
6.346080e-01
6.407945e-01
6.431065e-01
6.410968e-01
6.352530e-01
6.264965e-01
6.157747e-01
6.042128e-01
5.929179e-01
5.830113e-01
0.000000e+00
1.000000e+00
5.842400e-01
5.906792e-01
6.022974e-01
6.131517e-01
6.234496e-01
6.321438e-01
6.380757e-01
6.402975e-01
6.383453e-01
6.327075e-01
6.243577e-01
6.140622e-01
6.029228e-01
5.920751e-01
5.824480e-01
0.000000e+00
1.000000e+00
5.834590e-01
5.895164e-01
6.002669e-01
6.103635e-01
6.199439e-01
6.280295e-01
6.335422e-01
6.356076e-01
6.337966e-01
6.285027e-01
6.207729e-01
6.111777e-01
6.008380e-01
5.906933e-01
5.811494e-01
0.000000e+00
1.000000e+00
5.823558e-01
5.881549e-01
5.975871e-01
6.066781e-01
6.153088e-01
6.225887e-01
6.275476e-01
6.294073e-01
6.278009e-01
6.229849e-01
6.160332e-01
6.073685e-01
5.980804e-01
5.889571e-01
5.799148e-01
0.000000e+00
1.000000e+00
5.808797e-01
5.864492e-01
5.944463e-01
6.023581e-01
6.098705e-01
6.162011e-01
6.205019e-01
6.221038e-01
6.207225e-01
6.165332e-01
6.104549e-01
6.029004e-01
5.948643e-01
5.869421e-01
5.791969e-01
0.000000e+00
1.000000e+00
5.794055e-01
5.843678e-01
5.909927e-01
5.976260e-01
6.039215e-01
6.092214e-01
6.128104e-01
6.141264e-01
6.129584e-01
6.094912e-01
6.043560e-01
5.980284e-01
5.913342e-01
5.847086e-01
5.779971e-01
0.000000e+00
1.000000e+00
5.743097e-01
5.754582e-01
5.768404e-01
5.782543e-01
5.795948e-01
5.807204e-01
5.814770e-01
5.817412e-01
5.814656e-01
5.806990e-01
5.795609e-01
5.782599e-01
5.769843e-01
5.755679e-01
5.727625e-01
0.000000e+00
1.000000e+00
5.750697e-01
5.767481e-01
5.788773e-01
5.810445e-01
5.830998e-01
5.848266e-01
5.859894e-01
5.863996e-01
5.859851e-01
5.848189e-01
5.830833e-01
5.811130e-01
5.790895e-01
5.769051e-01
5.747431e-01
0.000000e+00
1.000000e+00
5.759183e-01
5.783072e-01
5.813394e-01
5.844158e-01
5.873339e-01
5.897872e-01
5.914407e-01
5.920273e-01
5.914446e-01
5.897941e-01
5.873547e-01
5.846057e-01
5.816063e-01
5.785670e-01
5.749984e-01
0.000000e+00
1.000000e+00
5.768840e-01
5.801093e-01
5.841831e-01
5.883084e-01
5.922219e-01
5.955126e-01
5.977326e-01
5.985235e-01
5.977471e-01
5.955400e-01
5.923296e-01
5.885984e-01
5.844849e-01
5.803798e-01
5.759660e-01
0.000000e+00
1.000000e+00
5.779922e-01
5.820766e-01
5.872988e-01
5.925740e-01
5.975787e-01
6.017875e-01
6.046284e-01
6.056443e-01
6.046574e-01
6.018460e-01
5.978010e-01
5.929477e-01
5.876273e-01
5.823979e-01
5.768618e-01
0.000000e+00
1.000000e+00
5.791374e-01
5.841062e-01
5.905269e-01
5.969933e-01
6.031284e-01
6.082895e-01
6.117759e-01
6.130270e-01
6.118252e-01
6.084088e-01
6.034948e-01
5.974547e-01
5.908795e-01
5.844504e-01
5.778233e-01
0.000000e+00
1.000000e+00
5.802359e-01
5.860739e-01
5.936615e-01
6.012834e-01
6.085158e-01
6.146025e-01
6.187185e-01
6.202028e-01
6.188040e-01
6.148310e-01
6.090284e-01
6.018388e-01
5.940358e-01
5.864271e-01
5.788625e-01
0.000000e+00
1.000000e+00
5.812630e-01
5.878236e-01
5.964666e-01
6.051236e-01
6.133399e-01
6.202585e-01
6.249439e-01
6.266452e-01
6.250887e-01
6.206252e-01
6.139666e-01
6.057867e-01
5.968820e-01
5.881917e-01
5.800072e-01
0.000000e+00
1.000000e+00
5.821062e-01
5.892094e-01
5.987125e-01
6.081988e-01
6.172051e-01
6.247954e-01
6.299472e-01
6.318328e-01
6.301603e-01
6.252859e-01
6.179100e-01
6.089859e-01
5.991810e-01
5.896394e-01
5.810694e-01
0.000000e+00
1.000000e+00
5.827295e-01
5.901076e-01
6.002126e-01
6.102507e-01
6.197830e-01
6.278242e-01
6.332971e-01
6.353189e-01
6.335617e-01
6.283912e-01
6.205419e-01
6.111212e-01
6.007560e-01
5.906363e-01
5.817510e-01
0.000000e+00
1.000000e+00
5.831741e-01
5.903816e-01
6.008237e-01
6.110916e-01
6.208465e-01
6.290825e-01
6.347016e-01
6.368026e-01
6.349898e-01
6.296780e-01
6.216549e-01
6.119844e-01
6.014266e-01
5.911036e-01
5.821538e-01
0.000000e+00
1.000000e+00
5.833000e-01
5.900151e-01
6.005148e-01
6.106828e-01
6.203421e-01
6.284983e-01
6.340657e-01
6.361601e-01
6.343489e-01
6.290589e-01
6.211696e-01
6.115246e-01
6.011161e-01
5.909030e-01
5.818513e-01
0.000000e+00
1.000000e+00
5.828874e-01
5.891901e-01
5.993420e-01
6.090831e-01
6.183328e-01
6.261392e-01
6.314629e-01
6.334630e-01
6.317301e-01
6.266203e-01
6.191205e-01
6.098496e-01
5.998865e-01
5.900591e-01
5.806342e-01
0.000000e+00
1.000000e+00
5.821071e-01
5.880537e-01
5.974025e-01
6.064222e-01
6.149862e-01
6.222099e-01
6.271292e-01
6.289722e-01
6.273771e-01
6.226005e-01
6.156873e-01
6.070871e-01
5.978762e-01
5.888156e-01
5.796097e-01
0.000000e+00
1.000000e+00
5.811526e-01
5.865738e-01
5.948377e-01
6.029029e-01
6.105608e-01
6.170163e-01
6.214062e-01
6.230481e-01
6.216354e-01
6.173399e-01
6.111557e-01
6.034603e-01
5.952451e-01
5.871958e-01
5.790271e-01
0.000000e+00
1.000000e+00
5.798456e-01
5.848443e-01
5.918328e-01
5.987766e-01
6.053687e-01
6.109208e-01
6.146858e-01