<?xml version="1.0"?>
<VTKFile type="StructuredGrid" version="0.1">
  <StructuredGrid WholeExtent="0 16 0 16 0 16">
    <Piece Extent="0 16 0 16 0 16">
      <PointData Scalars="temperature" Vectors="velocity">
        <DataArray type="Float32" Name="temperature" format="ascii">
1.000000e+00
5.726671e-01
5.722977e-01
5.719010e-01
5.714952e-01
5.711104e-01
5.707870e-01
5.705691e-01
5.704919e-01
5.705691e-01
5.707870e-01
5.711104e-01
5.714952e-01
5.719010e-01
5.722977e-01
5.726671e-01
0.000000e+00
1.000000e+00
5.734170e-01
5.738796e-01
5.743765e-01
5.748847e-01
5.753667e-01
5.757716e-01
5.760445e-01
5.761412e-01
5.760445e-01
5.757716e-01
5.753667e-01
5.748847e-01
5.743765e-01
5.738796e-01
5.734170e-01
0.000000e+00
1.000000e+00
5.743006e-01
5.757435e-01
5.772935e-01
5.788789e-01
5.803821e-01
5.816454e-01
5.824966e-01
5.827981e-01
5.824966e-01
5.816454e-01
5.803821e-01
5.788789e-01
5.772935e-01
5.757435e-01
5.743006e-01
0.000000e+00
1.000000e+00
5.753008e-01
5.778534e-01
5.805954e-01
5.834000e-01
5.860593e-01
5.882940e-01
5.897999e-01
5.903332e-01
5.897999e-01
5.882940e-01
5.860593e-01
5.834000e-01
5.805954e-01
5.778534e-01
5.753008e-01
0.000000e+00
1.000000e+00
5.763884e-01
5.801475e-01
5.841858e-01
5.883160e-01
5.922324e-01
5.955235e-01
5.977411e-01
5.985266e-01
5.977411e-01
5.955234e-01
5.922324e-01
5.883160e-01
5.841858e-01
5.801475e-01
5.763884e-01
0.000000e+00
1.000000e+00
5.775222e-01
5.825392e-01
5.879287e-01
5.934409e-01
5.986678e-01
6.030601e-01
6.060198e-01
6.070681e-01
6.060198e-01
6.030601e-01
5.986678e-01
5.934409e-01
5.879287e-01
5.825392e-01
5.775222e-01
0.000000e+00
1.000000e+00
5.786511e-01
5.849204e-01
5.916553e-01
5.985435e-01
6.050751e-01
6.105639e-01
6.142625e-01
6.155724e-01
6.142625e-01
6.105639e-01
6.050751e-01
5.985435e-01
5.916553e-01
5.849204e-01
5.786511e-01
0.000000e+00
1.000000e+00
5.797178e-01
5.871705e-01
5.951767e-01
6.033651e-01
6.111296e-01
6.176545e-01
6.220512e-01
6.236084e-01
6.220512e-01
6.176545e-01
6.111296e-01
6.033651e-01
5.951767e-01
5.871705e-01
5.797178e-01
0.000000e+00
1.000000e+00
5.806646e-01
5.891677e-01
5.983022e-01
6.076447e-01
6.165036e-01
6.239480e-01
6.289644e-01
6.307411e-01
6.289644e-01
6.239480e-01
6.165036e-01
6.076447e-01
5.983022e-01
5.891677e-01
5.806646e-01
0.000000e+00
1.000000e+00
5.814395e-01
5.908023e-01
6.008604e-01
6.111474e-01
6.209020e-01
6.290991e-01
6.346226e-01
6.365789e-01
6.346226e-01
6.290991e-01
6.209020e-01
6.111474e-01
6.008604e-01
5.908023e-01
5.814395e-01
0.000000e+00
1.000000e+00
5.820021e-01
5.919890e-01
6.027176e-01
6.136903e-01
6.240951e-01
6.328386e-01
6.387304e-01
6.408171e-01
6.387304e-01
6.328386e-01
6.240951e-01
6.136903e-01
6.027176e-01
5.919890e-01
5.820021e-01
0.000000e+00
1.000000e+00
5.823275e-01
5.926754e-01
6.037918e-01
6.151612e-01
6.259421e-01
6.350017e-01
6.411064e-01
6.432685e-01
6.411064e-01
6.350016e-01
6.259421e-01
6.151612e-01
6.037918e-01
5.926754e-01
5.823275e-01
0.000000e+00
1.000000e+00
5.824082e-01
5.928455e-01
6.040581e-01
6.155258e-01
6.263999e-01
6.355378e-01
6.416953e-01
6.438761e-01
6.416953e-01
6.355378e-01
6.263999e-01
6.155258e-01
6.040580e-01
5.928456e-01
5.824082e-01
0.000000e+00
1.000000e+00
5.822529e-01
5.925180e-01
6.035455e-01
6.148240e-01
6.255186e-01
6.345057e-01
6.405616e-01
6.427064e-01
6.405616e-01
6.345057e-01
6.255186e-01
6.148240e-01
6.035455e-01
5.925181e-01
5.822529e-01
0.000000e+00
1.000000e+00
5.818839e-01
5.917398e-01
6.023275e-01
6.131563e-01
6.234245e-01
6.320533e-01
6.378677e-01
6.399270e-01
6.378677e-01
6.320533e-01
6.234245e-01
6.131563e-01
6.023275e-01
5.917398e-01
5.818840e-01
0.000000e+00
1.000000e+00
5.813329e-01
5.905773e-01
6.005083e-01
6.106654e-01
6.202967e-01
6.283902e-01
6.338440e-01
6.357755e-01
6.338440e-01
6.283902e-01
6.202967e-01
6.106654e-01
6.005083e-01
5.905774e-01
5.813329e-01
0.000000e+00
1.000000e+00
5.806361e-01
5.891076e-01
5.982082e-01
6.075160e-01
6.163419e-01
6.237587e-01
6.287564e-01
6.305265e-01
6.287564e-01
6.237587e-01
6.163419e-01
6.075160e-01
5.982082e-01
5.891076e-01
5.806361e-01
0.000000e+00
1.000000e+00
5.733366e-01
5.737100e-01
5.741111e-01
5.745213e-01
5.749103e-01
5.752372e-01
5.754575e-01
5.755355e-01
5.754575e-01
5.752372e-01
5.749103e-01
5.745213e-01
5.741111e-01
5.737100e-01
5.733366e-01
0.000000e+00
1.000000e+00
5.741076e-01
5.753364e-01
5.766564e-01
5.780064e-01
5.792866e-01
5.803624e-01
5.810873e-01
5.813440e-01
5.810873e-01
5.803624e-01
5.792866e-01
5.780064e-01
5.766564e-01
5.753364e-01
5.741076e-01
0.000000e+00
1.000000e+00
5.750148e-01
5.772499e-01
5.796510e-01
5.821068e-01
5.844355e-01
5.863924e-01
5.877110e-01
5.881780e-01
5.877110e-01
5.863924e-01
5.844355e-01
5.821068e-01
5.796510e-01
5.772499e-01
5.750148e-01
0.000000e+00
1.000000e+00
5.760395e-01
5.794116e-01
5.830340e-01
5.867389e-01
5.902520e-01
5.932043e-01
5.951936e-01
5.958981e-01
5.951936e-01
5.932042e-01
5.902520e-01
5.867389e-01
5.830340e-01
5.794116e-01
5.760395e-01
0.000000e+00
1.000000e+00
5.771502e-01
5.817545e-01
5.867007e-01
5.917595e-01
5.965564e-01
6.005874e-01
6.033037e-01
6.042657e-01
6.033037e-01
6.005874e-01
5.965564e-01
5.917595e-01
5.867007e-01
5.817545e-01
5.771502e-01
0.000000e+00
1.000000e+00
5.783021e-01
5.841842e-01
5.905031e-01
5.969659e-01
6.030941e-01
6.082439e-01
6.117140e-01
6.129430e-01
6.117140e-01
6.082439e-01
6.030941e-01
5.969659e-01
5.905031e-01
5.841842e-01
5.783021e-01
0.000000e+00
1.000000e+00
5.794393e-01
5.865830e-01
5.942573e-01
6.021062e-01
6.095489e-01
6.158032e-01
6.200176e-01
6.215102e-01
6.200176e-01
6.158032e-01
6.095489e-01
6.021062e-01
5.942573e-01
5.865830e-01
5.794393e-01
0.000000e+00
1.000000e+00
5.804997e-01
5.888200e-01
5.977580e-01
6.068996e-01
6.155679e-01
6.228523e-01
6.277607e-01
6.294992e-01
6.277607e-01
6.228523e-01
6.155679e-01
6.068996e-01
5.977580e-01
5.888200e-01
5.804998e-01
0.000000e+00
1.000000e+00
5.814213e-01
5.907639e-01
6.008004e-01
6.110653e-01
6.207988e-01
6.289782e-01
6.344899e-01
6.364419e-01
6.344899e-01
6.289782e-01
6.207988e-01
6.110653e-01
6.008004e-01
5.907640e-01
5.814214e-01
0.000000e+00
1.000000e+00
5.821492e-01
5.922993e-01
6.032031e-01
6.143552e-01
6.249300e-01
6.338164e-01
6.398044e-01
6.419252e-01
6.398044e-01
6.338164e-01
6.249300e-01
6.143552e-01
6.032031e-01
5.922993e-01
5.821492e-01
0.000000e+00
1.000000e+00
5.826422e-01
5.933392e-01
6.048306e-01
6.165835e-01
6.277281e-01
6.370933e-01
6.434040e-01
6.456390e-01
6.434040e-01
6.370933e-01
6.277281e-01
6.165835e-01
6.048306e-01
5.933392e-01
5.826422e-01
0.000000e+00
1.000000e+00
5.828773e-01
5.938351e-01
6.056066e-01
6.176462e-01
6.290625e-01
6.386560e-01
6.451206e-01
6.474101e-01
6.451206e-01
6.386560e-01
6.290625e-01
6.176462e-01
6.056066e-01
5.938351e-01
5.828773e-01
0.000000e+00
1.000000e+00
5.828510e-01
5.937797e-01
6.055199e-01
6.175274e-01
6.289134e-01
6.384814e-01
6.449287e-01
6.472122e-01
6.449287e-01
6.384814e-01
6.289134e-01
6.175274e-01
6.055199e-01
5.937797e-01
5.828510e-01
0.000000e+00
1.000000e+00
5.825778e-01
5.932035e-01
6.046182e-01
6.162927e-01
6.273630e-01
6.366657e-01
6.429342e-01
6.451544e-01
6.429342e-01
6.366657e-01
6.273629e-01
6.162927e-01
6.046182e-01
5.932035e-01
5.825779e-01
0.000000e+00
1.000000e+00
5.820864e-01
5.921668e-01
6.029958e-01
6.140713e-01
6.245734e-01
6.333988e-01
6.393457e-01
6.414519e-01
6.393457e-01
6.333988e-01
6.245734e-01
6.140712e-01
6.029957e-01
5.921668e-01
5.820864e-01
0.000000e+00
1.000000e+00
5.814142e-01
5.907489e-01
6.007769e-01
6.110331e-01
6.207584e-01
6.289309e-01
6.344379e-01
6.363883e-01
6.344379e-01
6.289309e-01
6.207584e-01
6.110331e-01
6.007769e-01
5.907490e-01
5.814142e-01
0.000000e+00
1.000000e+00
5.806030e-01
5.890378e-01
5.980989e-01
6.073663e-01
6.161540e-01
6.235386e-01
6.285147e-01
6.302771e-01
6.285147e-01
6.235386e-01
6.161540e-01
6.073663e-01
5.980989e-01
5.890378e-01
5.806030e-01
0.000000e+00
1.000000e+00
5.739122e-01
5.749243e-01
5.760114e-01
5.771234e-01
5.781777e-01
5.790637e-01
5.796608e-01
5.798722e-01
5.796608e-01
5.790637e-01
5.781777e-01
5.771234e-01
5.760114e-01
5.749243e-01
5.739122e-01
0.000000e+00
1.000000e+00
5.746966e-01
5.765788e-01
5.786007e-01
5.806687e-01
5.826296e-01
5.842775e-01
5.853878e-01
5.857811e-01
5.853878e-01
5.842775e-01
5.826296e-01
5.806687e-01
5.786007e-01
5.765788e-01
5.746966e-01
0.000000e+00
1.000000e+00
5.756187e-01
5.785239e-01
5.816448e-01
5.848368e-01
5.878636e-01
5.904070e-01
5.921210e-01
5.927280e-01
5.921210e-01
5.904070e-01
5.878636e-01
5.848368e-01
5.816448e-01
5.785239e-01
5.756187e-01
0.000000e+00
1.000000e+00
5.766590e-01
5.807183e-01
5.850790e-01
5.895390e-01
5.937682e-01
5.973221e-01
5.997168e-01
6.005650e-01
5.997168e-01
5.973221e-01
5.937682e-01
5.895390e-01
5.850790e-01
5.807183e-01
5.766590e-01
0.000000e+00
1.000000e+00
5.777836e-01
5.830904e-01
5.887914e-01
5.946222e-01
6.001511e-01
6.047972e-01
6.079280e-01
6.090368e-01
6.079280e-01
6.047972e-01
6.001511e-01
5.946221e-01
5.887914e-01
5.830904e-01
5.777836e-01
0.000000e+00
1.000000e+00
5.789442e-01
5.855387e-01
5.926229e-01
5.998684e-01
6.067388e-01
6.125123e-01
6.164027e-01
6.177805e-01
6.164027e-01
6.125123e-01
6.067388e-01
5.998684e-01
5.926229e-01
5.855387e-01
5.789442e-01
0.000000e+00
1.000000e+00
5.800809e-01
5.879365e-01
5.963755e-01
6.050065e-01
6.131908e-01
6.200684e-01
6.247027e-01
6.263441e-01
6.247027e-01
6.200684e-01
6.131908e-01
6.050065e-01
5.963755e-01
5.879365e-01
5.800810e-01
0.000000e+00
1.000000e+00
5.811271e-01
5.901432e-01
5.998290e-01
6.097352e-01
6.191286e-01
6.270222e-01
6.323413e-01
6.342251e-01
6.323413e-01
6.270222e-01
6.191286e-01
6.097352e-01
5.998290e-01
5.901433e-01
5.811271e-01
0.000000e+00
1.000000e+00
5.820166e-01
5.920195e-01
6.027653e-01
6.137557e-01
6.241772e-01
6.329347e-01
6.388360e-01
6.409260e-01
6.388360e-01
6.329347e-01
6.241772e-01
6.137557e-01
6.027653e-01
5.920195e-01
5.820166e-01
0.000000e+00
1.000000e+00
5.826921e-01
5.934444e-01
6.049953e-01
6.168091e-01
6.280114e-01
6.374250e-01
6.437684e-01
6.460150e-01
6.437684e-01
6.374250e-01
6.280114e-01
6.168091e-01
6.049953e-01
5.934445e-01
5.826921e-01
0.000000e+00
1.000000e+00
5.831123e-01
5.943309e-01
6.063826e-01
6.187087e-01
6.303967e-01
6.402185e-01
6.468369e-01
6.491809e-01
6.468369e-01
6.402185e-01
6.303967e-01
6.187087e-01
6.063826e-01
5.943309e-01
5.831123e-01
0.000000e+00
1.000000e+00
5.832566e-01
5.946352e-01
6.068589e-01
6.193608e-01
6.312155e-01
6.411775e-01
6.478903e-01
6.502678e-01
6.478903e-01
6.411775e-01
6.312155e-01
6.193608e-01
6.068589e-01
5.946353e-01
5.832566e-01
0.000000e+00
1.000000e+00
5.831258e-01
5.943594e-01
6.064273e-01
6.187698e-01
6.304735e-01
6.403085e-01
6.469357e-01
6.492829e-01
6.469357e-01
6.403085e-01
6.304735e-01
6.187698e-01
6.064273e-01
5.943595e-01
5.831259e-01
0.000000e+00
1.000000e+00
5.827404e-01
5.935464e-01
6.051549e-01
6.170276e-01
6.282858e-01
6.377464e-01
6.441214e-01
6.463792e-01
6.441214e-01
6.377464e-01
6.282857e-01
6.170276e-01
6.051549e-01
5.935464e-01
5.827404e-01
0.000000e+00
1.000000e+00
5.821351e-01
5.922695e-01
6.031566e-01
6.142914e-01
6.248499e-01
6.337226e-01
6.397014e-01
6.418189e-01
6.397014e-01
6.337226e-01
6.248499e-01
6.142914e-01
6.031566e-01
5.922695e-01
5.821351e-01
0.000000e+00
1.000000e+00
5.813532e-01
5.906203e-01
6.005755e-01
6.107574e-01
6.204121e-01
6.285254e-01
6.339925e-01
6.359288e-01
6.339925e-01
6.285254e-01
6.204121e-01
6.107574e-01
6.005755e-01
5.906203e-01
5.813532e-01
0.000000e+00
1.000000e+00
5.804411e-01
5.886962e-01
5.975643e-01
6.066343e-01
6.152348e-01
6.224621e-01
6.273322e-01
6.290570e-01
6.273322e-01
6.224621e-01
6.152348e-01
6.066343e-01
5.975643e-01
5.886962e-01
5.804411e-01
0.000000e+00
1.000000e+00
5.743558e-01
5.758599e-01
5.774757e-01
5.791283e-01
5.806954e-01
5.820122e-01
5.828996e-01
5.832138e-01
5.828996e-01
5.820122e-01
5.806954e-01
5.791283e-01
5.774757e-01
5.758599e-01
5.743558e-01
0.000000e+00
1.000000e+00
5.751420e-01
5.775183e-01
5.800711e-01
5.826820e-01
5.851577e-01
5.872381e-01
5.886400e-01
5.891365e-01
5.886400e-01
5.872381e-01
5.851577e-01
5.826820e-01
5.800711e-01
5.775183e-01
5.751420e-01
0.000000e+00
1.000000e+00
5.760667e-01
5.794690e-01
5.831239e-01
5.868619e-01
5.904065e-01
5.933852e-01
5.953923e-01
5.961032e-01
5.953923e-01
5.933852e-01
5.904065e-01
5.868619e-01
5.831239e-01
5.794690e-01
5.760668e-01
0.000000e+00
1.000000e+00
5.771097e-01
5.816690e-01
5.865668e-01
5.915762e-01
5.963262e-01
6.003178e-01
6.030076e-01
6.039602e-01
6.030076e-01
6.003178e-01
5.963262e-01
5.915762e-01
5.865668e-01
5.816690e-01
5.771097e-01
0.000000e+00
1.000000e+00
5.782352e-01
5.840432e-01
5.902824e-01
5.966637e-01
6.027147e-01
6.077995e-01
6.112259e-01
6.124394e-01
6.112259e-01
6.077995e-01
6.027147e-01
5.966637e-01
5.902824e-01
5.840432e-01
5.782352e-01
0.000000e+00
1.000000e+00
5.793925e-01
5.864842e-01
5.941027e-01
6.018945e-01
6.092830e-01
6.154919e-01
6.196756e-01
6.211574e-01
6.196756e-01
6.154918e-01
6.092830e-01
6.018945e-01
5.941027e-01
5.864842e-01
5.793925e-01
0.000000e+00
1.000000e+00
5.805178e-01
5.888581e-01
5.978177e-01
6.069813e-01
6.156706e-01
6.229725e-01
6.278928e-01
6.296354e-01
6.278928e-01
6.229725e-01
6.156706e-01
6.069813e-01
5.978177e-01
5.888581e-01
5.805179e-01
0.000000e+00
1.000000e+00
5.815409e-01
5.910161e-01
6.011950e-01
6.116056e-01
6.214772e-01
6.297728e-01
6.353627e-01
6.373424e-01
6.353627e-01
6.297728e-01
6.214772e-01
6.116055e-01
6.011950e-01
5.910161e-01
5.815409e-01
0.000000e+00
1.000000e+00
5.823922e-01
5.928120e-01
6.040055e-01
6.154539e-01
6.263096e-01
6.354320e-01
6.415791e-01
6.437563e-01
6.415791e-01
6.354320e-01
6.263096e-01
6.154539e-01
6.040055e-01
5.928120e-01
5.823923e-01
0.000000e+00
1.000000e+00
5.830129e-01
5.941211e-01
6.060543e-01
6.182592e-01
6.298322e-01
6.395575e-01
6.461108e-01
6.484317e-01
6.461108e-01
6.395575e-01
6.298322e-01
6.182592e-01
6.060543e-01
5.941212e-01
5.830129e-01
0.000000e+00
1.000000e+00
5.833617e-01
5.948570e-01
6.072060e-01
6.198360e-01
6.318123e-01
6.418764e-01
6.486580e-01
6.510598e-01
6.486580e-01
6.418764e-01
6.318123e-01
6.198360e-01
6.072060e-01
5.948570e-01
5.833618e-01
0.000000e+00
1.000000e+00
5.834206e-01
5.949813e-01
6.074005e-01
6.201024e-01
6.321467e-01
6.422681e-01
6.490882e-01
6.515037e-01
6.490882e-01
6.422681e-01
6.321467e-01
6.201024e-01
6.074005e-01
5.949813e-01
5.834207e-01
0.000000e+00
1.000000e+00
5.831950e-01
5.945054e-01
6.066557e-01
6.190825e-01
6.308661e-01
6.407683e-01
6.474408e-01
6.498040e-01
6.474408e-01
6.407683e-01
6.308661e-01
6.190825e-01
6.066557e-01
5.945054e-01
5.831951e-01
0.000000e+00
1.000000e+00
5.827107e-01
5.934837e-01
6.050567e-01
6.168932e-01
6.281169e-01
6.375487e-01
6.439042e-01
6.461551e-01
6.439042e-01
6.375487e-01
6.281169e-01
6.168932e-01
6.050567e-01
5.934837e-01
5.827107e-01
0.000000e+00
1.000000e+00
5.820080e-01
5.920014e-01
6.027370e-01
6.137170e-01
6.241286e-01
6.328779e-01
6.387735e-01
6.408615e-01
6.387735e-01
6.328778e-01
6.241286e-01
6.137170e-01
6.027370e-01
5.920015e-01
5.820080e-01
0.000000e+00
1.000000e+00
5.811353e-01
5.901606e-01
5.998561e-01
6.097724e-01
6.191753e-01
6.270769e-01
6.324014e-01
6.342871e-01
6.324014e-01
6.270769e-01
6.191753e-01
6.097724e-01
5.998561e-01
5.901606e-01
5.811353e-01
0.000000e+00
1.000000e+00
5.801425e-01
5.880664e-01
5.965788e-01
6.052850e-01
6.135404e-01
6.204778e-01
6.251525e-01
6.268081e-01
6.251525e-01
6.204778e-01
6.135404e-01
6.052849e-01
5.965788e-01
5.880665e-01
5.801426e-01
0.000000e+00
1.000000e+00
5.746302e-01
5.764387e-01
5.783815e-01
5.803685e-01
5.822526e-01
5.838360e-01
5.849029e-01
5.852807e-01
5.849029e-01
5.838360e-01
5.822526e-01
5.803685e-01
5.783815e-01
5.764387e-01
5.746302e-01
0.000000e+00
1.000000e+00
5.754031e-01
5.780690e-01
5.809329e-01
5.838621e-01
5.866395e-01
5.889736e-01
5.905463e-01
5.911034e-01
5.905463e-01
5.889736e-01
5.866395e-01
5.838620e-01
5.809329e-01
5.780690e-01
5.754031e-01
0.000000e+00
1.000000e+00
5.763143e-01
5.799912e-01
5.839411e-01
5.879809e-01
5.918116e-01
5.950307e-01
5.971999e-01
5.979681e-01
5.971999e-01
5.950307e-01
5.918116e-01
5.879809e-01
5.839411e-01
5.799912e-01
5.763143e-01
0.000000e+00
1.000000e+00
5.773433e-01
5.821617e-01
5.873379e-01
5.926320e-01
5.976520e-01
6.018705e-01
6.047131e-01
6.057199e-01
6.047131e-01
6.018705e-01
5.976520e-01
5.926320e-01
5.873379e-01
5.821617e-01
5.773433e-01
0.000000e+00
1.000000e+00
5.784535e-01
5.845035e-01
5.910029e-01
5.976502e-01
6.039534e-01
6.092503e-01
6.128195e-01
6.140836e-01
6.128195e-01
6.092503e-01
6.039534e-01
5.976502e-01
5.910029e-01
5.845036e-01
5.784535e-01
0.000000e+00
1.000000e+00
5.795923e-01
5.869058e-01
5.947624e-01
6.027978e-01
6.104173e-01
6.168202e-01
6.211348e-01
6.226629e-01
6.211348e-01
6.168202e-01
6.104173e-01
6.027978e-01
5.947624e-01
5.869058e-01
5.795923e-01
0.000000e+00
1.000000e+00
5.806938e-01
5.892292e-01
5.983985e-01
6.077766e-01
6.166692e-01
6.241420e-01
6.291774e-01
6.309608e-01
6.291774e-01
6.241420e-01
6.166692e-01
6.077766e-01
5.983985e-01
5.892292e-01
5.806938e-01
0.000000e+00
1.000000e+00
5.816848e-01
5.913196e-01
6.016700e-01
6.122560e-01
6.222940e-01
6.307293e-01
6.364134e-01
6.384265e-01
6.364134e-01
6.307293e-01
6.222940e-01
6.122560e-01
6.016700e-01
5.913196e-01
5.816848e-01
0.000000e+00
1.000000e+00
5.824937e-01
5.930261e-01
6.043406e-01
6.159127e-01
6.268857e-01
6.361068e-01
6.423203e-01
6.445209e-01
6.423203e-01
6.361068e-01
6.268857e-01
6.159127e-01
6.043406e-01
5.930261e-01
5.824938e-01
0.000000e+00
1.000000e+00
5.830606e-01
5.942217e-01
6.062118e-01
6.184747e-01
6.301029e-01
6.398745e-01
6.464590e-01
6.487910e-01
6.464590e-01
6.398745e-01
6.301029e-01
6.184747e-01
6.062118e-01
5.942218e-01
5.830606e-01
0.000000e+00
1.000000e+00
5.833448e-01
5.948214e-01
6.071503e-01
6.197597e-01
6.317165e-01
6.417642e-01
6.485348e-01
6.509327e-01
6.485348e-01
6.417642e-01
6.317165e-01
6.197597e-01
6.071503e-01
5.948214e-01
5.833449e-01
0.000000e+00
1.000000e+00
5.833309e-01
5.947920e-01
6.071042e-01
6.196966e-01
6.316373e-01
6.416714e-01
6.484328e-01
6.508275e-01
6.484328e-01
6.416714e-01
6.316373e-01
6.196966e-01
6.071042e-01
5.947920e-01
5.833309e-01
0.000000e+00
1.000000e+00
5.830279e-01
5.941529e-01
6.061041e-01
6.183273e-01
6.299178e-01
6.396577e-01
6.462208e-01
6.485453e-01
6.462208e-01
6.396577e-01
6.299178e-01
6.183273e-01
6.061041e-01
5.941529e-01
5.830280e-01
0.000000e+00
1.000000e+00
5.824664e-01
5.929683e-01
6.042502e-01
6.157889e-01
6.267303e-01
6.359248e-01
6.421204e-01
6.443147e-01
6.421204e-01
6.359248e-01
6.267303e-01
6.157889e-01
6.042502e-01
5.929684e-01
5.824664e-01
0.000000e+00
1.000000e+00
5.816910e-01
5.913328e-01
6.016907e-01
6.122843e-01
6.223296e-01
6.307709e-01
6.364591e-01
6.384737e-01
6.364591e-01
6.307709e-01
6.223295e-01
6.122843e-01
6.016907e-01
5.913329e-01
5.816911e-01
0.000000e+00
1.000000e+00
5.807539e-01
5.893560e-01
5.985970e-01
6.080483e-01
6.170103e-01
6.245415e-01
6.296163e-01
6.314136e-01
6.296163e-01
6.245415e-01
6.170103e-01
6.080483e-01
5.985970e-01
5.893560e-01
5.807539e-01
0.000000e+00
1.000000e+00
5.797073e-01
5.871484e-01
5.951421e-01
6.033177e-01
6.110702e-01
6.175848e-01
6.219747e-01
6.235294e-01
6.219747e-01
6.175848e-01
6.110702e-01
6.033177e-01
5.951421e-01
5.871484e-01
5.797073e-01
0.000000e+00
1.000000e+00
5.747036e-01
5.765936e-01
5.786240e-01
5.807005e-01
5.826696e-01
5.843243e-01
5.854393e-01
5.858342e-01
5.854393e-01
5.843243e-01
5.826696e-01
5.807005e-01
5.786240e-01
5.765936e-01
5.747036e-01
0.000000e+00
1.000000e+00
5.754452e-01
5.781578e-01
5.810720e-01
5.840524e-01
5.868786e-01
5.892535e-01
5.908538e-01
5.914206e-01
5.908538e-01
5.892535e-01
5.868786e-01
5.840524e-01
5.810720e-01
5.781578e-01
5.754452e-01
0.000000e+00
1.000000e+00
5.763237e-01
5.800110e-01
5.839722e-01
5.880235e-01
5.918651e-01
5.950933e-01
5.972686e-01
5.980391e-01
5.972686e-01
5.950933e-01
5.918651e-01
5.880235e-01
5.839722e-01
5.800110e-01
5.763237e-01
0.000000e+00
1.000000e+00
5.773191e-01
5.821108e-01
5.872583e-01
5.925229e-01
5.975150e-01
6.017101e-01
6.045369e-01
6.055381e-01
6.045369e-01
6.017101e-01
5.975150e-01
5.925229e-01
5.872583e-01
5.821108e-01
5.773192e-01
0.000000e+00
1.000000e+00
5.783951e-01
5.843804e-01
5.908102e-01
5.973863e-01
6.036221e-01
6.088622e-01
6.123932e-01
6.136438e-01
6.123932e-01
6.088622e-01
6.036221e-01
5.973863e-01
5.908102e-01
5.843804e-01
5.783951e-01
0.000000e+00
1.000000e+00
5.794986e-01
5.867081e-01
5.944530e-01
6.023743e-01
6.098854e-01
6.161974e-01
6.204506e-01
6.219570e-01
6.204506e-01
6.161974e-01
6.098854e-01
6.023743e-01
5.944530e-01
5.867081e-01
5.794986e-01
0.000000e+00
1.000000e+00
5.805628e-01
5.889530e-01
5.979663e-01
6.071847e-01
6.159260e-01
6.232716e-01
6.282213e-01
6.299744e-01
6.282213e-01
6.232715e-01
6.159260e-01
6.071847e-01
5.979663e-01
5.889530e-01
5.805628e-01
0.000000e+00
1.000000e+00
5.815135e-01
5.909584e-01
6.011048e-01
6.114820e-01
6.213221e-01
6.295911e-01
6.351631e-01
6.371366e-01
6.351631e-01
6.295911e-01
6.213221e-01
6.114820e-01
6.011048e-01
5.909585e-01
5.815136e-01
0.000000e+00
1.000000e+00
5.822783e-01
5.925716e-01
6.036293e-01
6.149387e-01
6.256627e-01
6.346745e-01
6.407470e-01
6.428977e-01
6.407470e-01
6.346745e-01
6.256627e-01
6.149387e-01
6.036293e-01
5.925716e-01
5.822783e-01
0.000000e+00
1.000000e+00
5.827967e-01
5.936651e-01
6.053406e-01
6.172819e-01
6.286050e-01
6.381203e-01
6.445321e-01
6.468029e-01
6.445321e-01
6.381203e-01
6.286050e-01
6.172819e-01
6.053406e-01
5.936651e-01
5.827967e-01
0.000000e+00
1.000000e+00
5.830291e-01
5.941554e-01
6.061080e-01
6.183327e-01
6.299245e-01
6.396656e-01
6.462295e-01
6.485543e-01
6.462295e-01
6.396656e-01
6.299245e-01
6.183327e-01
6.061080e-01
5.941555e-01
5.830292e-01
0.000000e+00
1.000000e+00
5.829619e-01
5.940137e-01
6.058862e-01
6.180289e-01
6.295431e-01
6.392189e-01
6.457388e-01
6.480480e-01
6.457388e-01
6.392189e-01
6.295431e-01
6.180289e-01
6.058862e-01
5.940137e-01
5.829620e-01
0.000000e+00
1.000000e+00
5.826070e-01
5.932651e-01
6.047146e-01
6.164247e-01
6.275287e-01
6.368598e-01
6.431475e-01
6.453744e-01
6.431475e-01
6.368598e-01
6.275287e-01
6.164247e-01
6.047146e-01
5.932651e-01
5.826071e-01
0.000000e+00
1.000000e+00
5.819978e-01
5.919800e-01
6.027034e-01
6.136710e-01
6.240708e-01
6.328102e-01
6.386991e-01
6.407848e-01
6.386991e-01
6.328102e-01
6.240708e-01
6.136710e-01
6.027034e-01
5.919800e-01
5.819978e-01
0.000000e+00
1.000000e+00
5.811818e-01
5.902587e-01
6.000097e-01
6.099826e-01
6.194393e-01
6.273861e-01
6.327410e-01
6.346376e-01
6.327410e-01
6.273861e-01
6.194393e-01
6.099826e-01
6.000097e-01
5.902587e-01
5.811818e-01
0.000000e+00
1.000000e+00
5.802130e-01
5.882150e-01
5.968113e-01
6.056033e-01
6.139402e-01
6.209460e-01
6.256668e-01
6.273388e-01
6.256668e-01
6.209460e-01
6.139402e-01
6.056033e-01
5.968113e-01
5.882150e-01
5.802130e-01
0.000000e+00
1.000000e+00
5.791447e-01
5.859616e-01
5.932848e-01
6.007747e-01
6.078768e-01
6.138450e-01
6.178666e-01
6.192910e-01
6.178666e-01
6.138450e-01
6.078768e-01
6.007746e-01
5.932848e-01
5.859616e-01
5.791447e-01
0.000000e+00
1.000000e+00
5.745545e-01
5.762790e-01
5.781317e-01
5.800264e-01
5.818232e-01
5.833330e-01
5.843504e-01
5.847107e-01
5.843504e-01
5.833330e-01
5.818232e-01
5.800264e-01
5.781317e-01
5.762790e-01
5.745545e-01
0.000000e+00
1.000000e+00
5.752451e-01
5.777359e-01
5.804116e-01
5.831482e-01
5.857432e-01
5.879238e-01
5.893932e-01
5.899137e-01
5.893932e-01
5.879238e-01
5.857432e-01
5.831482e-01
5.804116e-01
5.777359e-01
5.752451e-01
0.000000e+00
1.000000e+00
5.760704e-01
5.794766e-01
5.831358e-01
5.868783e-01
5.904270e-01
5.934092e-01
5.954187e-01
5.961304e-01
5.954187e-01
5.934092e-01
5.904270e-01
5.868783e-01
5.831358e-01
5.794766e-01
5.760704e-01
0.000000e+00
1.000000e+00
5.770114e-01
5.814616e-01
5.862423e-01
5.911319e-01
5.957683e-01
5.996644e-01
6.022898e-01
6.032197e-01
6.022898e-01
5.996644e-01
5.957683e-01
5.911318e-01
5.862423e-01
5.814616e-01
5.770114e-01
0.000000e+00
1.000000e+00
5.780333e-01
5.836171e-01
5.896157e-01
5.957508e-01
6.015683e-01
6.064570e-01
6.097512e-01
6.109179e-01
6.097512e-01
6.064570e-01
6.015683e-01
5.957508e-01
5.896157e-01
5.836171e-01
5.780333e-01
0.000000e+00
1.000000e+00
5.790842e-01
5.858340e-01
5.930851e-01
6.005012e-01
6.075335e-01
6.134429e-01
6.174250e-01
6.188353e-01
6.174250e-01
6.134429e-01
6.075335e-01
6.005012e-01
5.930851e-01
5.858340e-01
5.790842e-01
0.000000e+00
1.000000e+00
5.800984e-01
5.879734e-01
5.964333e-01
6.050857e-01
6.132902e-01
6.201847e-01
6.248306e-01
6.264760e-01
6.248306e-01
6.201847e-01
6.132902e-01
6.050857e-01
5.964333e-01
5.879735e-01
5.800985e-01
0.000000e+00
1.000000e+00
5.810024e-01
5.898802e-01
5.994174e-01
6.091716e-01
6.184209e-01
6.261934e-01
6.314309e-01
6.332858e-01
6.314309e-01
6.261934e-01
6.184209e-01
6.091716e-01
5.994174e-01
5.898803e-01
5.810024e-01
0.000000e+00
1.000000e+00
5.817241e-01
5.914027e-01
6.018000e-01
6.124340e-01
6.225175e-01
6.309910e-01
6.367008e-01
6.387231e-01
6.367008e-01
6.309910e-01
6.225175e-01
6.124340e-01
6.018000e-01
5.914027e-01
5.817242e-01
0.000000e+00
1.000000e+00
5.822039e-01
5.924146e-01
6.033837e-01
6.146024e-01
6.252404e-01
6.341799e-01
6.402037e-01
6.423372e-01
6.402037e-01
6.341799e-01
6.252404e-01
6.146024e-01
6.033837e-01
5.924147e-01
5.822039e-01
0.000000e+00
1.000000e+00
5.824028e-01
5.928343e-01
6.040405e-01
6.155017e-01
6.263697e-01
6.355024e-01
6.416565e-01
6.438360e-01
6.416565e-01
6.355024e-01
6.263697e-01
6.155017e-01
6.040405e-01
5.928343e-01
5.824029e-01
0.000000e+00
1.000000e+00
5.823082e-01
5.926347e-01
6.037281e-01
6.150741e-01
6.258327e-01
6.348735e-01
6.409656e-01
6.431233e-01
6.409656e-01
6.348735e-01
6.258327e-01
6.150741e-01
6.037281e-01
5.926348e-01
5.823082e-01
0.000000e+00
1.000000e+00
5.819331e-01
5.918435e-01
6.024899e-01
6.133786e-01
6.237037e-01
6.323802e-01
6.382268e-01
6.402975e-01
6.382268e-01
6.323802e-01
6.237037e-01
6.133786e-01
6.024899e-01
5.918435e-01
5.819332e-01
0.000000e+00
1.000000e+00
5.813119e-01
5.905330e-01
6.004390e-01
6.105704e-01
6.201774e-01
6.282505e-01
6.336905e-01
6.356172e-01
6.336905e-01
6.282505e-01
6.201774e-01
6.105704e-01
6.004390e-01
5.905330e-01
5.813119e-01
0.000000e+00
1.000000e+00
5.804925e-01
5.888047e-01
5.977341e-01
6.068668e-01
6.155268e-01
6.228040e-01
6.277078e-01
6.294445e-01
6.277078e-01
6.228040e-01
6.155267e-01
6.068668e-01
5.977341e-01
5.888047e-01
5.804925e-01
0.000000e+00
1.000000e+00
5.795290e-01
5.867722e-01
5.945533e-01
6.025115e-01
6.100578e-01
6.163992e-01
6.206723e-01
6.221857e-01
6.206723e-01
6.163992e-01
6.100578e-01
6.025115e-01
5.945533e-01
5.867722e-01
5.795290e-01
0.000000e+00
1.000000e+00
5.784741e-01
5.845471e-01
5.910711e-01
5.977436e-01
6.040707e-01
6.093876e-01
6.129704e-01
6.142393e-01
6.129704e-01
6.093876e-01
6.040707e-01
5.977436e-01
5.910711e-01
5.845471e-01
5.784742e-01
0.000000e+00
1.000000e+00
5.741751e-01
5.754788e-01
5.768792e-01
5.783116e-01
5.796698e-01
5.808111e-01
5.815802e-01
5.818526e-01
5.815802e-01
5.808111e-01
5.796698e-01
5.783116e-01
5.768792e-01
5.754788e-01
5.741751e-01
0.000000e+00
1.000000e+00
5.747959e-01
5.767883e-01
5.789287e-01
5.811177e-01
5.831935e-01
5.849378e-01
5.861132e-01
5.865295e-01
5.861132e-01
5.849378e-01
5.831935e-01
5.811177e-01
5.789287e-01
5.767883e-01
5.747959e-01
0.000000e+00
1.000000e+00
5.755481e-01
5.783749e-01
5.814116e-01
5.845175e-01
5.874625e-01
5.899374e-01
5.916051e-01
5.921957e-01
5.916051e-01
5.899374e-01
5.874625e-01
5.845175e-01
5.814116e-01
5.783749e-01
5.755481e-01
0.000000e+00
1.000000e+00
5.764150e-01
5.802035e-01
5.842735e-01
5.884360e-01
5.923831e-01
5.957000e-01
5.979350e-01
5.987266e-01
5.979350e-01
5.957000e-01
5.923831e-01
5.884360e-01
5.842735e-01
5.802036e-01
5.764150e-01
0.000000e+00
1.000000e+00
5.773644e-01
5.822062e-01
5.874076e-01
5.927274e-01
5.977718e-01
6.020108e-01
6.048672e-01
6.058788e-01
6.048672e-01
6.020108e-01
5.977718e-01
5.927274e-01
5.874076e-01
5.822062e-01
5.773644e-01
0.000000e+00
1.000000e+00
5.783474e-01
5.842798e-01
5.906528e-01
5.971709e-01
6.033515e-01
6.085453e-01
6.120452e-01
6.132847e-01
6.120452e-01
6.085453e-01
6.033515e-01
5.971709e-01
5.906528e-01
5.842799e-01
5.783474e-01
0.000000e+00
1.000000e+00
5.793012e-01
5.862918e-01
5.938015e-01
6.014822e-01
6.087652e-01
6.148854e-01
6.190095e-01
6.204701e-01
6.190095e-01
6.148854e-01
6.087652e-01
6.014822e-01
5.938015e-01
5.862918e-01
5.793012e-01
0.000000e+00
1.000000e+00
5.801548e-01
5.880923e-01
5.966193e-01
6.053404e-01
6.136100e-01
6.205593e-01
6.252420e-01
6.269005e-01
6.252420e-01
6.205593e-01
6.136100e-01
6.053404e-01
5.966193e-01
5.880923e-01
5.801548e-01
0.000000e+00
1.000000e+00
5.808382e-01
5.895339e-01
5.988754e-01
6.084295e-01
6.174891e-01
6.251022e-01
6.302322e-01
6.320491e-01
6.302322e-01
6.251022e-01
6.174891e-01
6.084295e-01
5.988754e-01
5.895339e-01
5.808382e-01
0.000000e+00
1.000000e+00
5.812930e-01
5.904932e-01
6.003766e-01
6.104851e-01
6.200702e-01
6.281250e-01
6.335527e-01
6.354750e-01
6.335527e-01
6.281250e-01
6.200702e-01
6.104851e-01
6.003766e-01
5.904932e-01
5.812930e-01
0.000000e+00
1.000000e+00
5.814808e-01
5.908894e-01
6.009967e-01
6.113340e-01
6.211363e-01
6.293735e-01
6.349240e-01
6.368899e-01
6.349240e-01
6.293735e-01
6.211363e-01
6.113340e-01
6.009967e-01
5.908894e-01
5.814808e-01
0.000000e+00
1.000000e+00
5.813887e-01
5.906950e-01
6.006925e-01
6.109175e-01
6.206133e-01
6.287610e-01
6.342513e-01
6.361957e-01
6.342513e-01
6.287610e-01
6.206133e-01
6.109175e-01
6.006925e-01
5.906950e-01
5.813887e-01
0.000000e+00
1.000000e+00
5.810288e-01
5.899358e-01
5.995044e-01
6.092908e-01
6.185705e-01
6.263687e-01
6.316234e-01
6.334845e-01
6.316234e-01
6.263687e-01
6.185705e-01
6.092908e-01
5.995044e-01
5.899359e-01
5.810288e-01
0.000000e+00
1.000000e+00
5.804340e-01
5.886812e-01
5.975409e-01
6.066023e-01
6.151946e-01
6.224151e-01
6.272805e-01
6.290037e-01
6.272805e-01
6.224151e-01
6.151946e-01
6.066023e-01
5.975409e-01
5.886812e-01
5.804340e-01
0.000000e+00
1.000000e+00
5.796506e-01
5.870288e-01
5.949549e-01
6.030615e-01
6.107484e-01
6.172079e-01
6.215607e-01
6.231023e-01
6.215607e-01
6.172079e-01
6.107484e-01
6.030615e-01
5.949549e-01
5.870288e-01
5.796506e-01
0.000000e+00
1.000000e+00
5.787306e-01
5.850881e-01
5.919177e-01
5.989027e-01
6.055262e-01
6.110922e-01
6.148428e-01