<?xml version="1.0"?>
<VTKFile type="StructuredGrid" version="0.1">
  <StructuredGrid WholeExtent="0 16 0 16 0 16">
    <Piece Extent="0 16 0 16 0 16">
      <PointData Scalars="temperature" Vectors="velocity">
        <DataArray type="Float32" Name="temperature" format="ascii">
1.000000e+00
5.648875e-01
5.568274e-01
5.476621e-01
5.383165e-01
5.294713e-01
5.220627e-01
5.171025e-01
5.153932e-01
5.172347e-01
5.223053e-01
5.297813e-01
5.387143e-01
5.479641e-01
5.571162e-01
5.649189e-01
0.000000e+00
1.000000e+00
5.657311e-01
5.586395e-01
5.504726e-01
5.421589e-01
5.342887e-01
5.276961e-01
5.232830e-01
5.217638e-01
5.234050e-01
5.279191e-01
5.345775e-01
5.425395e-01
5.507198e-01
5.588517e-01
5.657793e-01
0.000000e+00
1.000000e+00
5.667772e-01
5.607005e-01
5.536908e-01
5.465613e-01
5.398096e-01
5.341512e-01
5.303613e-01
5.290544e-01
5.304605e-01
5.343326e-01
5.400520e-01
5.469017e-01
5.539189e-01
5.608940e-01
5.667398e-01
0.000000e+00
1.000000e+00
5.679099e-01
5.629561e-01
5.572227e-01
5.513965e-01
5.458782e-01
5.412522e-01
5.381523e-01
5.370823e-01
5.382304e-01
5.413947e-01
5.460780e-01
5.517002e-01
5.574371e-01
5.631424e-01
5.678380e-01
0.000000e+00
1.000000e+00
5.691038e-01
5.653435e-01
5.609626e-01
5.565167e-01
5.523051e-01
5.487738e-01
5.464062e-01
5.455871e-01
5.464623e-01
5.488768e-01
5.524595e-01
5.567856e-01
5.611608e-01
5.655095e-01
5.688324e-01
0.000000e+00
1.000000e+00
5.703427e-01
5.677681e-01
5.647628e-01
5.617190e-01
5.588355e-01
5.564175e-01
5.547954e-01
5.542322e-01
5.548296e-01
5.564826e-01
5.589416e-01
5.619609e-01
5.649533e-01
5.678683e-01
5.703481e-01
0.000000e+00
1.000000e+00
5.715795e-01
5.701163e-01
5.684492e-01
5.667657e-01
5.651711e-01
5.638341e-01
5.629363e-01
5.626226e-01
5.629502e-01
5.638622e-01
5.652223e-01
5.669873e-01
5.686354e-01
5.701953e-01
5.718343e-01
0.000000e+00
1.000000e+00
5.727109e-01
5.722718e-01
5.718385e-01
5.714061e-01
5.709969e-01
5.706545e-01
5.704245e-01
5.703429e-01
5.704240e-01
5.706530e-01
5.709950e-01
5.715676e-01
5.720064e-01
5.723762e-01
5.727354e-01
0.000000e+00
1.000000e+00
5.736873e-01
5.741256e-01
5.747573e-01
5.754029e-01
5.760155e-01
5.765308e-01
5.768778e-01
5.769995e-01
5.768730e-01
5.765203e-01
5.759941e-01
5.754668e-01
5.749292e-01
5.742479e-01
5.735827e-01
0.000000e+00
1.000000e+00
5.744947e-01
5.755835e-01
5.770607e-01
5.785568e-01
5.799763e-01
5.811699e-01
5.819747e-01
5.822596e-01
5.819725e-01
5.811637e-01
5.799727e-01
5.786499e-01
5.772608e-01
5.756899e-01
5.742617e-01
0.000000e+00
1.000000e+00
5.750725e-01
5.765825e-01
5.786490e-01
5.807315e-01
5.827069e-01
5.843678e-01
5.854883e-01
5.858864e-01
5.854900e-01
5.843748e-01
5.827577e-01
5.808923e-01
5.788510e-01
5.766600e-01
5.743533e-01
0.000000e+00
1.000000e+00
5.753773e-01
5.770996e-01
5.794778e-01
5.818665e-01
5.841324e-01
5.860378e-01
5.873236e-01
5.877815e-01
5.873296e-01
5.860598e-01
5.842273e-01
5.820422e-01
5.796696e-01
5.772246e-01
5.742911e-01
0.000000e+00
1.000000e+00
5.754247e-01
5.771459e-01
5.795584e-01
5.819772e-01
5.842716e-01
5.862010e-01
5.875030e-01
5.879670e-01
5.875095e-01
5.862225e-01
5.843745e-01
5.821553e-01
5.797477e-01
5.773014e-01
5.744557e-01
0.000000e+00
1.000000e+00
5.752151e-01
5.767632e-01
5.789508e-01
5.811452e-01
5.832267e-01
5.849771e-01
5.861580e-01
5.865783e-01
5.861615e-01
5.849849e-01
5.833016e-01
5.813124e-01
5.791395e-01
5.769266e-01
5.742852e-01
0.000000e+00
1.000000e+00
5.748029e-01
5.760086e-01
5.777500e-01
5.795010e-01
5.811621e-01
5.825592e-01
5.835017e-01
5.838366e-01
5.835025e-01
5.825556e-01
5.811840e-01
5.796305e-01
5.779506e-01
5.761858e-01
5.739439e-01
0.000000e+00
1.000000e+00
5.742106e-01
5.749521e-01
5.760726e-01
5.772042e-01
5.782780e-01
5.791812e-01
5.797903e-01
5.800057e-01
5.797877e-01
5.791723e-01
5.782673e-01
5.772852e-01
5.762727e-01
5.751396e-01
5.734400e-01
0.000000e+00
1.000000e+00
5.734742e-01
5.736682e-01
5.740410e-01
5.744222e-01
5.747843e-01
5.750895e-01
5.752955e-01
5.753674e-01
5.752909e-01
5.750784e-01
5.747757e-01
5.745327e-01
5.742247e-01
5.738468e-01
5.728205e-01
0.000000e+00
1.000000e+00
5.644031e-01
5.553469e-01
5.453709e-01
5.351800e-01
5.255341e-01
5.174535e-01
5.120412e-01
5.101729e-01
5.121772e-01
5.177046e-01
5.258467e-01
5.355971e-01
5.456959e-01
5.556668e-01
5.642287e-01
0.000000e+00
1.000000e+00
5.650829e-01
5.570171e-01
5.479790e-01
5.387487e-01
5.300138e-01
5.226989e-01
5.178031e-01
5.161180e-01
5.179387e-01
5.229471e-01
5.303209e-01
5.391760e-01
5.482838e-01
5.573185e-01
5.650207e-01
0.000000e+00
1.000000e+00
5.660460e-01
5.589947e-01
5.510576e-01
5.429577e-01
5.352891e-01
5.288649e-01
5.245637e-01
5.230818e-01
5.246789e-01
5.290726e-01
5.355492e-01
5.433452e-01
5.513271e-01
5.592603e-01
5.659076e-01
0.000000e+00
1.000000e+00
5.671168e-01
5.612003e-01
5.545020e-01
5.476721e-01
5.412047e-01
5.357848e-01
5.321548e-01
5.309032e-01
5.322496e-01
5.359537e-01
5.414219e-01
5.480154e-01
5.547486e-01
5.614821e-01
5.671266e-01
0.000000e+00
1.000000e+00
5.682821e-01
5.635722e-01
5.582091e-01
5.527468e-01
5.475731e-01
5.432361e-01
5.403297e-01
5.393260e-01
5.404019e-01
5.433639e-01
5.477423e-01
5.530472e-01
5.584339e-01
5.639455e-01
5.677660e-01
0.000000e+00
1.000000e+00
5.694959e-01
5.660132e-01
5.620271e-01
5.579735e-01
5.541332e-01
5.509130e-01
5.487534e-01
5.480054e-01
5.488024e-01
5.510008e-01
5.542543e-01
5.582276e-01
5.622224e-01
5.662849e-01
5.688149e-01
0.000000e+00
1.000000e+00
5.707054e-01
5.684054e-01
5.657730e-01
5.631016e-01
5.605705e-01
5.584475e-01
5.570224e-01
5.565264e-01
5.570496e-01
5.584982e-01
5.606451e-01
5.633171e-01
5.659503e-01
5.685025e-01
5.706045e-01
0.000000e+00
1.000000e+00
5.718403e-01
5.706218e-01
5.692494e-01
5.678611e-01
5.665457e-01
5.654420e-01
5.647001e-01
5.644401e-01
5.647093e-01
5.654600e-01
5.665729e-01
5.680414e-01
5.694074e-01
5.707027e-01
5.717698e-01
0.000000e+00
1.000000e+00
5.728436e-01
5.725414e-01
5.722655e-01
5.719906e-01
5.717302e-01
5.715118e-01
5.713646e-01
5.713120e-01
5.713627e-01
5.715076e-01
5.717207e-01
5.720939e-01
5.723988e-01
5.726117e-01
5.725574e-01
0.000000e+00
1.000000e+00
5.736751e-01
5.740619e-01
5.746614e-01
5.752711e-01
5.758494e-01
5.763356e-01
5.766630e-01
5.767780e-01
5.766587e-01
5.763257e-01
5.758305e-01
5.753103e-01
5.747971e-01
5.741493e-01
5.736203e-01
0.000000e+00
1.000000e+00
5.742715e-01
5.751133e-01
5.763253e-01
5.775494e-01
5.787105e-01
5.796866e-01
5.803446e-01
5.805774e-01
5.803418e-01
5.796782e-01
5.787070e-01
5.776191e-01
5.764788e-01
5.751761e-01
5.740295e-01
0.000000e+00
1.000000e+00
5.745919e-01
5.756652e-01
5.772053e-01
5.787545e-01
5.802238e-01
5.814592e-01
5.822923e-01
5.825879e-01
5.822918e-01
5.814565e-01
5.802484e-01
5.788626e-01
5.773659e-01
5.757326e-01
5.737367e-01
0.000000e+00
1.000000e+00
5.746480e-01
5.757274e-01
5.773121e-01
5.789010e-01
5.804081e-01
5.816752e-01
5.825298e-01
5.828335e-01
5.825304e-01
5.816740e-01
5.804410e-01
5.790187e-01
5.774706e-01
5.758448e-01
5.737492e-01
0.000000e+00
1.000000e+00
5.744402e-01
5.753462e-01
5.767102e-01
5.780768e-01
5.793730e-01
5.804630e-01
5.811981e-01
5.814590e-01
5.811977e-01
5.804583e-01
5.793853e-01
5.781715e-01
5.768533e-01
5.754874e-01
5.736378e-01
0.000000e+00
1.000000e+00
5.740114e-01
5.745847e-01
5.755012e-01
5.764214e-01
5.772943e-01
5.780284e-01
5.785233e-01
5.786984e-01
5.785209e-01
5.780206e-01
5.772860e-01
5.764832e-01
5.756435e-01
5.747432e-01
5.732685e-01
0.000000e+00
1.000000e+00
5.734140e-01
5.735156e-01
5.738093e-01
5.741045e-01
5.743848e-01
5.746209e-01
5.747800e-01
5.748354e-01
5.747761e-01
5.746119e-01
5.743800e-01
5.741916e-01
5.739563e-01
5.736875e-01
5.727577e-01
0.000000e+00
1.000000e+00
5.726989e-01
5.722184e-01
5.717644e-01
5.713047e-01
5.708694e-01
5.705049e-01
5.702599e-01
5.701731e-01
5.702592e-01
5.705044e-01
5.708916e-01
5.714579e-01
5.719158e-01
5.723841e-01
5.721006e-01
0.000000e+00
1.000000e+00
5.638882e-01
5.541844e-01
5.435509e-01
5.326888e-01
5.224087e-01
5.137973e-01
5.080298e-01
5.060396e-01
5.081766e-01
5.140692e-01
5.227505e-01
5.331163e-01
5.438973e-01
5.544450e-01
5.636117e-01
0.000000e+00
1.000000e+00
5.644992e-01
5.557236e-01
5.459608e-01
5.359868e-01
5.265496e-01
5.186473e-01
5.133583e-01
5.115381e-01
5.135055e-01
5.189167e-01
5.268866e-01
5.364260e-01
5.462897e-01
5.559970e-01
5.643636e-01
0.000000e+00
1.000000e+00
5.654060e-01
5.576012e-01
5.488849e-01
5.399832e-01
5.315574e-01
5.245001e-01
5.197755e-01
5.181481e-01
5.199028e-01
5.247295e-01
5.318446e-01
5.403964e-01
5.491710e-01
5.578609e-01
5.652262e-01
0.000000e+00
1.000000e+00
5.664267e-01
5.597397e-01
5.522245e-01
5.445540e-01
5.372916e-01
5.312068e-01
5.271321e-01
5.257273e-01
5.272390e-01
5.313969e-01
5.375326e-01
5.449209e-01
5.524802e-01
5.600840e-01
5.663387e-01
0.000000e+00
1.000000e+00
5.675657e-01
5.620803e-01
5.558801e-01
5.495575e-01
5.435697e-01
5.385512e-01
5.351885e-01
5.340274e-01
5.352720e-01
5.386986e-01
5.437583e-01
5.498764e-01
5.561178e-01
5.626139e-01
5.668289e-01
0.000000e+00
1.000000e+00
5.687710e-01
5.645219e-01
5.596969e-01
5.547823e-01
5.501268e-01
5.462231e-01
5.436053e-01
5.426990e-01
5.436644e-01
5.463279e-01
5.502618e-01
5.550450e-01
5.598941e-01
5.648930e-01
5.677609e-01
0.000000e+00
1.000000e+00
5.699637e-01
5.669417e-01
5.634837e-01
5.599667e-01
5.566341e-01
5.538383e-01
5.519616e-01
5.513091e-01
5.519975e-01
5.539037e-01
5.567210e-01
5.601695e-01
5.636365e-01
5.670040e-01
5.698662e-01
0.000000e+00
1.000000e+00
5.711036e-01
5.692060e-01
5.670307e-01
5.648228e-01
5.627301e-01
5.609735e-01
5.597929e-01
5.593799e-01
5.598090e-01
5.610047e-01
5.627741e-01
5.649795e-01
5.671574e-01
5.692210e-01
5.713338e-01
0.000000e+00
1.000000e+00
5.721412e-01
5.711811e-01
5.701311e-01
5.690675e-01
5.680593e-01
5.672125e-01
5.666424e-01
5.664411e-01
5.666447e-01
5.672175e-01
5.680655e-01
5.691803e-01
5.702366e-01
5.711635e-01
5.721670e-01
0.000000e+00
1.000000e+00
5.729760e-01
5.727561e-01
5.726078e-01
5.724587e-01
5.723172e-01
5.721983e-01
5.721177e-01
5.720880e-01
5.721138e-01
5.721904e-01
5.723031e-01
5.725041e-01
5.726922e-01
5.727758e-01
5.731976e-01
0.000000e+00
1.000000e+00
5.735528e-01
5.738538e-01
5.743371e-01
5.748264e-01
5.752904e-01
5.756803e-01
5.759428e-01
5.760348e-01
5.759391e-01
5.756717e-01
5.752765e-01
5.748440e-01
5.744221e-01
5.738797e-01
5.736495e-01
0.000000e+00
1.000000e+00
5.738728e-01
5.744359e-01
5.752603e-01
5.760907e-01
5.768782e-01
5.775402e-01
5.779863e-01
5.781440e-01
5.779842e-01
5.775337e-01
5.768736e-01
5.761297e-01
5.753528e-01
5.744127e-01
5.731241e-01
0.000000e+00
1.000000e+00
5.739406e-01
5.745098e-01
5.753863e-01
5.762636e-01
5.770956e-01
5.777950e-01
5.782664e-01
5.784334e-01
5.782652e-01
5.777901e-01
5.770951e-01
5.763109e-01
5.754741e-01
5.745609e-01
5.728483e-01
0.000000e+00
1.000000e+00
5.737499e-01
5.741260e-01
5.747843e-01
5.754394e-01
5.760607e-01
5.765831e-01
5.769352e-01
5.770597e-01
5.769335e-01
5.765777e-01
5.760568e-01
5.754775e-01
5.748638e-01
5.742333e-01
5.728486e-01
0.000000e+00
1.000000e+00
5.733326e-01
5.733540e-01
5.735633e-01
5.737674e-01
5.739610e-01
5.741239e-01
5.742337e-01
5.742721e-01
5.742313e-01
5.741184e-01
5.739615e-01
5.738253e-01
5.736549e-01
5.734885e-01
5.725565e-01
0.000000e+00
1.000000e+00
5.727506e-01
5.722708e-01
5.718546e-01
5.714277e-01
5.710231e-01
5.706836e-01
5.704551e-01
5.703742e-01
5.704547e-01
5.706836e-01
5.710429e-01
5.715454e-01
5.719772e-01
5.724270e-01
5.721093e-01
0.000000e+00
1.000000e+00
5.720565e-01
5.709622e-01
5.697956e-01
5.686089e-01
5.674844e-01
5.665408e-01
5.659063e-01
5.656835e-01
5.659128e-01
5.665578e-01
5.675399e-01
5.687590e-01
5.699349e-01
5.711149e-01
5.714828e-01
0.000000e+00
1.000000e+00
5.635515e-01
5.533992e-01
5.423279e-01
5.310159e-01
5.203122e-01
5.113470e-01
5.053436e-01
5.032736e-01
5.055015e-01
5.116387e-01
5.206851e-01
5.314523e-01
5.426963e-01
5.536419e-01
5.632605e-01
0.000000e+00
1.000000e+00
5.641264e-01
5.548166e-01
5.445497e-01
5.340562e-01
5.241288e-01
5.158166e-01
5.102536e-01
5.083398e-01
5.104109e-01
5.161044e-01
5.245032e-01
5.344905e-01
5.448891e-01
5.550786e-01
5.639080e-01
0.000000e+00
1.000000e+00
5.649683e-01
5.565931e-01
5.473177e-01
5.378387e-01
5.288683e-01
5.213561e-01
5.163276e-01
5.145964e-01
5.164658e-01
5.216060e-01
5.291972e-01
5.382567e-01
5.476116e-01
5.568621e-01
5.648053e-01
0.000000e+00
1.000000e+00
5.659439e-01
5.586596e-01
5.505466e-01
5.422576e-01
5.344110e-01
5.278382e-01
5.234374e-01
5.219210e-01
5.235554e-01
5.280487e-01
5.346927e-01
5.426332e-01
5.508087e-01
5.590996e-01
5.656914e-01
0.000000e+00
1.000000e+00
5.670318e-01
5.609598e-01
5.541396e-01
5.471756e-01
5.405813e-01
5.350551e-01
5.313534e-01
5.300758e-01
5.314473e-01
5.352217e-01
5.408059e-01
5.475015e-01
5.543857e-01
5.616315e-01
5.655313e-01
0.000000e+00
1.000000e+00
5.682197e-01
5.633955e-01
5.579422e-01
5.523803e-01
5.471120e-01
5.426951e-01
5.397340e-01
5.387095e-01
5.398023e-01
5.428164e-01
5.472742e-01
5.526463e-01
5.581493e-01
5.638210e-01
5.665376e-01
0.000000e+00
1.000000e+00
5.694329e-01
5.658345e-01
5.617555e-01
5.576001e-01
5.536627e-01
5.503599e-01
5.481435e-01
5.473734e-01
5.481868e-01
5.504384e-01
5.537662e-01
5.577967e-01
5.619122e-01
5.659061e-01
5.690342e-01
0.000000e+00
1.000000e+00
5.705807e-01
5.681346e-01
5.653563e-01
5.625296e-01
5.598504e-01
5.576015e-01
5.560903e-01
5.555622e-01
5.561121e-01
5.576430e-01
5.599051e-01
5.626648e-01
5.654736e-01
5.681417e-01
5.707881e-01
0.000000e+00
1.000000e+00
5.716127e-01
5.701549e-01
5.685236e-01
5.668660e-01
5.652944e-01
5.639742e-01
5.630855e-01
5.627726e-01
5.630913e-01
5.639868e-01
5.653117e-01
5.669531e-01
5.686092e-01
5.701344e-01
5.721985e-01
0.000000e+00
1.000000e+00
5.724455e-01
5.717729e-01
5.710657e-01
5.703468e-01
5.696650e-01
5.690918e-01
5.687052e-01
5.685676e-01
5.687028e-01
5.690872e-01
5.696570e-01
5.703898e-01
5.711238e-01
5.718127e-01
5.734447e-01
0.000000e+00
1.000000e+00
5.730391e-01
5.729034e-01
5.728463e-01
5.727848e-01
5.727265e-01
5.726772e-01
5.726437e-01
5.726310e-01
5.726407e-01
5.726705e-01
5.727148e-01
5.727887e-01
5.728866e-01
5.729454e-01
5.740272e-01
0.000000e+00
1.000000e+00
5.733606e-01
5.735045e-01
5.737997e-01
5.740903e-01
5.743658e-01
5.745974e-01
5.747534e-01
5.748085e-01
5.747526e-01
5.745952e-01
5.743614e-01
5.740972e-01
5.738380e-01
5.733837e-01
5.733906e-01
0.000000e+00
1.000000e+00
5.734260e-01
5.735821e-01
5.739328e-01
5.742730e-01
5.745957e-01
5.748671e-01
5.750500e-01
5.751150e-01
5.750504e-01
5.748677e-01
5.745977e-01
5.742877e-01
5.739641e-01
5.734825e-01
5.725490e-01
0.000000e+00
1.000000e+00
5.732427e-01
5.731915e-01
5.733195e-01
5.734335e-01
5.735416e-01
5.736326e-01
5.736940e-01
5.737156e-01
5.736933e-01
5.736321e-01
5.735482e-01
5.734596e-01
5.733544e-01
5.731792e-01
5.722678e-01
0.000000e+00
1.000000e+00
5.728322e-01
5.724065e-01
5.720770e-01
5.717319e-01
5.714047e-01
5.711300e-01
5.709450e-01
5.708794e-01
5.709447e-01
5.711311e-01
5.714233e-01
5.717954e-01
5.721401e-01
5.724478e-01
5.720097e-01
0.000000e+00
1.000000e+00
5.722599e-01
5.713062e-01
5.703429e-01
5.693576e-01
5.684237e-01
5.676395e-01
5.671119e-01
5.669263e-01
5.671162e-01
5.676517e-01
5.684659e-01
5.694612e-01
5.704461e-01
5.713907e-01
5.715559e-01
0.000000e+00
1.000000e+00
5.715632e-01
5.699821e-01
5.682613e-01
5.665080e-01
5.648464e-01
5.634516e-01
5.625139e-01
5.621856e-01
5.625268e-01
5.634829e-01
5.649181e-01
5.666290e-01
5.683757e-01
5.700939e-01
5.709615e-01
0.000000e+00
1.000000e+00
5.634329e-01
5.530669e-01
5.418106e-01
5.303088e-01
5.194273e-01
5.103147e-01
5.042139e-01
5.021123e-01
5.043806e-01
5.106247e-01
5.198133e-01
5.307903e-01
5.421667e-01
5.533289e-01
5.630377e-01
0.000000e+00
1.000000e+00
5.639828e-01
5.543806e-01
5.438682e-01
5.331234e-01
5.229593e-01
5.144495e-01
5.087547e-01
5.067965e-01
5.089188e-01
5.147518e-01
5.233575e-01
5.335630e-01
5.441954e-01
5.546500e-01
5.636372e-01
0.000000e+00
1.000000e+00
5.647795e-01
5.560645e-01
5.464944e-01
5.367126e-01
5.274570e-01
5.197071e-01
5.145203e-01
5.127357e-01
5.146663e-01
5.199734e-01
5.278229e-01
5.371162e-01
5.467890e-01
5.563693e-01
5.646153e-01
0.000000e+00
1.000000e+00
5.657232e-01
5.580623e-01
5.496202e-01
5.409904e-01
5.328223e-01
5.259810e-01
5.214016e-01
5.198248e-01
5.215278e-01
5.262080e-01
5.331440e-01
5.413527e-01
5.498904e-01
5.586083e-01
5.650756e-01
0.000000e+00
1.000000e+00
5.667573e-01
5.603192e-01
5.531506e-01
5.458233e-01
5.388856e-01
5.330724e-01
5.291792e-01
5.278369e-01
5.292814e-01
5.332545e-01
5.391476e-01
5.461398e-01
5.534070e-01
5.610756e-01
5.645561e-01
0.000000e+00
1.000000e+00
5.679038e-01
5.627438e-01
5.569326e-01
5.509993e-01
5.453796e-01
5.406689e-01
5.375115e-01
5.364201e-01
5.375870e-01
5.408037e-01
5.455719e-01
5.512644e-01
5.571486e-01
5.631919e-01
5.661811e-01
0.000000e+00
1.000000e+00
5.691385e-01
5.651963e-01
5.607611e-01
5.562387e-01
5.519541e-01
5.483606e-01
5.459497e-01
5.451129e-01
5.459988e-01
5.484498e-01
5.520783e-01
5.564378e-01
5.609121e-01
5.652810e-01
5.686841e-01
0.000000e+00
1.000000e+00
5.703090e-01
5.675213e-01
5.644006e-01
5.612208e-01
5.582072e-01
5.556780e-01
5.539788e-01
5.533856e-01
5.540045e-01
5.557269e-01
5.582747e-01
5.613500e-01
5.644990e-01
5.675182e-01
5.703001e-01
0.000000e+00
1.000000e+00
5.713360e-01
5.695738e-01
5.676166e-01
5.656239e-01
5.637345e-01
5.621475e-01
5.610795e-01
5.607037e-01
5.610874e-01
5.621645e-01
5.637604e-01
5.656918e-01
5.676769e-01
5.695904e-01
5.720818e-01
0.000000e+00
1.000000e+00
5.721774e-01
5.712225e-01
5.702046e-01
5.691672e-01
5.681832e-01
5.673559e-01
5.667981e-01
5.665997e-01
5.667954e-01
5.673520e-01
5.681797e-01
5.691901e-01
5.702393e-01
5.713870e-01
5.737284e-01
0.000000e+00
1.000000e+00
5.727909e-01
5.723722e-01
5.720166e-01
5.716484e-01
5.712989e-01
5.710049e-01
5.708062e-01
5.707347e-01
5.708021e-01
5.709961e-01
5.712854e-01
5.716400e-01
5.720274e-01
5.726393e-01
5.750848e-01
0.000000e+00
1.000000e+00
5.731388e-01
5.729797e-01
5.729811e-01
5.729691e-01
5.729576e-01
5.729478e-01
5.729410e-01
5.729383e-01
5.729399e-01
5.729445e-01
5.729503e-01
5.729617e-01
5.729830e-01
5.730531e-01
5.753329e-01
0.000000e+00
1.000000e+00
5.731901e-01
5.730494e-01
5.731046e-01
5.731384e-01
5.731705e-01
5.731975e-01
5.732159e-01
5.732227e-01
5.732170e-01
5.731995e-01
5.731713e-01
5.731375e-01
5.731016e-01
5.729082e-01
5.743535e-01
0.000000e+00
1.000000e+00
5.729746e-01
5.726409e-01
5.724619e-01
5.722589e-01
5.720665e-01
5.719049e-01
5.717962e-01
5.717580e-01
5.717973e-01
5.719089e-01
5.720774e-01
5.722726e-01
5.724745e-01
5.724847e-01
5.734345e-01
0.000000e+00
1.000000e+00
5.725347e-01
5.718337e-01
5.711809e-01
5.705047e-01
5.698636e-01
5.693250e-01
5.689625e-01
5.688346e-01
5.689644e-01
5.693325e-01
5.698907e-01
5.705502e-01
5.712249e-01
5.717177e-01
5.727124e-01
0.000000e+00
1.000000e+00
5.719555e-01
5.707063e-01
5.694050e-01
5.680734e-01
5.668111e-01
5.657512e-01
5.650381e-01
5.647876e-01
5.650453e-01
5.657711e-01
5.668596e-01
5.681465e-01
5.694850e-01
5.706374e-01
5.718133e-01
0.000000e+00
1.000000e+00
5.712656e-01
5.693572e-01
5.672848e-01
5.651707e-01
5.631671e-01
5.614851e-01
5.603546e-01
5.599591e-01
5.603711e-01
5.615241e-01
5.632405e-01
5.652651e-01
5.673777e-01
5.693556e-01
5.706857e-01
0.000000e+00
1.000000e+00
5.634946e-01
5.532340e-01
5.420730e-01
5.306677e-01
5.198797e-01
5.108470e-01
5.048015e-01
5.027215e-01
5.049737e-01
5.111711e-01
5.202650e-01
5.311957e-01
5.423929e-01
5.535407e-01
5.629556e-01
0.000000e+00
1.000000e+00
5.640554e-01
5.544714e-01
5.440065e-01
5.333111e-01
5.231943e-01
5.147248e-01
5.090580e-01
5.071109e-01
5.092253e-01
5.150356e-01
5.235972e-01
5.337710e-01
5.443087e-01
5.547613e-01
5.635713e-01
0.000000e+00
1.000000e+00
5.648131e-01
5.560804e-01
5.465205e-01
5.367487e-01
5.275032e-01
5.197627e-01
5.145834e-01
5.128032e-01
5.147340e-01
5.200395e-01
5.278850e-01
5.371552e-01
5.468208e-01
5.564302e-01
5.646070e-01
0.000000e+00
1.000000e+00
5.657232e-01
5.580256e-01
5.495651e-01
5.409154e-01
5.327290e-01
5.258732e-01
5.212853e-01
5.197073e-01
5.214164e-01
5.261109e-01
5.330711e-01
5.412767e-01
5.498609e-01
5.586595e-01
5.645563e-01
0.000000e+00
1.000000e+00
5.667497e-01
5.602514e-01
5.530461e-01
5.456804e-01
5.387069e-01
5.328644e-01
5.289528e-01
5.276057e-01
5.290599e-01
5.330568e-01
5.389891e-01
5.460059e-01
5.533294e-01
5.610521e-01
5.641437e-01
0.000000e+00
1.000000e+00
5.678945e-01
5.626635e-01
5.568097e-01
5.508313e-01
5.451692e-01
5.404236e-01
5.372437e-01
5.361460e-01
5.373238e-01
5.405674e-01
5.453799e-01
5.511128e-01
5.570377e-01
5.631442e-01
5.657103e-01
0.000000e+00
1.000000e+00
5.691251e-01
5.651206e-01
5.606459e-01
5.560813e-01
5.517570e-01
5.481307e-01
5.456984e-01
5.448553e-01
5.457510e-01
5.482271e-01
5.518971e-01
5.562945e-01
5.607988e-01
5.652104e-01
5.685692e-01
0.000000e+00
1.000000e+00
5.702967e-01
5.674613e-01
5.643099e-01
5.610971e-01
5.580523e-01
5.554973e-01
5.537813e-01
5.531827e-01
5.538090e-01
5.555509e-01
5.581324e-01
5.612339e-01
5.644107e-01
5.674501e-01
5.706958e-01
0.000000e+00
1.000000e+00
5.713312e-01
5.695341e-01
5.675554e-01
5.655405e-01
5.636302e-01
5.620259e-01
5.609463e-01
5.605664e-01
5.609544e-01
5.620445e-01
5.636646e-01
5.656130e-01
5.676194e-01
5.695605e-01
5.718994e-01
0.000000e+00
1.000000e+00
5.722094e-01
5.711987e-01
5.701667e-01
5.691153e-01
5.681182e-01
5.672799e-01
5.667145e-01
5.665129e-01
5.667105e-01
5.672744e-01
5.681185e-01
5.691410e-01
5.702003e-01
5.713153e-01
5.722081e-01
0.000000e+00
1.000000e+00
5.728256e-01
5.723525e-01
5.719871e-01
5.716076e-01
5.712475e-01
5.709444e-01
5.707393e-01
5.706645e-01
5.707322e-01
5.709308e-01
5.712312e-01
5.715993e-01
5.719933e-01
5.725620e-01
5.730404e-01
0.000000e+00
1.000000e+00
5.731424e-01
5.729516e-01
5.729393e-01
5.729114e-01
5.728847e-01
5.728619e-01
5.728462e-01
5.728395e-01
5.728423e-01
5.728538e-01
5.728728e-01
5.729004e-01
5.729317e-01
5.732489e-01
5.751309e-01
0.000000e+00
1.000000e+00
5.731940e-01
5.730000e-01
5.730300e-01
5.730357e-01
5.730410e-01
5.730454e-01
5.730483e-01
5.730493e-01
5.730478e-01
5.730433e-01
5.730354e-01
5.730259e-01
5.730103e-01
5.731521e-01
5.754957e-01
0.000000e+00
1.000000e+00
5.729266e-01
5.725563e-01
5.723371e-01
5.720875e-01
5.718508e-01
5.716520e-01
5.715182e-01
5.714712e-01
5.715190e-01
5.716538e-01
5.718520e-01
5.720821e-01
5.723297e-01
5.725210e-01
5.748670e-01
0.000000e+00
1.000000e+00
5.724775e-01
5.717116e-01
5.709941e-01
5.702487e-01
5.695419e-01
5.689482e-01
5.685484e-01
5.684072e-01
5.685498e-01
5.689556e-01
5.695612e-01
5.702674e-01
5.710199e-01
5.715943e-01
5.739389e-01
0.000000e+00
1.000000e+00
5.718990e-01
5.705436e-01
5.691533e-01
5.677288e-01
5.663785e-01
5.652446e-01
5.644819e-01
5.642139e-01
5.644893e-01
5.652659e-01
5.664210e-01
5.677766e-01
5.692151e-01
5.703895e-01
5.731116e-01
0.000000e+00
1.000000e+00
5.711829e-01
5.691570e-01
5.669715e-01
5.647416e-01
5.626282e-01
5.608542e-01
5.596617e-01
5.592448e-01
5.596791e-01
5.608949e-01
5.626960e-01
5.648139e-01
5.670480e-01
5.689825e-01
5.715309e-01
0.000000e+00
1.000000e+00
5.637406e-01
5.539201e-01
5.431470e-01
5.321352e-01
5.217209e-01
5.130031e-01
5.071706e-01
5.051672e-01
5.073452e-01
5.133339e-01
5.221046e-01
5.326736e-01
5.434574e-01
5.542764e-01
5.630242e-01
0.000000e+00
1.000000e+00
5.643293e-01
5.551128e-01
5.450062e-01
5.346765e-01
5.249054e-01
5.167261e-01
5.112548e-01
5.093771e-01
5.114217e-01
5.170376e-01
5.253030e-01
5.351415e-01
5.452945e-01
5.554061e-01
5.638883e-01
0.000000e+00
1.000000e+00
5.650565e-01
5.566754e-01
5.474508e-01
5.380215e-01
5.291000e-01
5.216315e-01
5.166356e-01
5.149207e-01
5.167870e-01
5.219108e-01
5.294823e-01
5.384345e-01
5.477480e-01
5.570526e-01
5.648777e-01
0.000000e+00
1.000000e+00
5.659539e-01
5.585921e-01
5.504475e-01
5.421229e-01
5.342439e-01
5.276464e-01
5.232327e-01
5.217167e-01
5.233649e-01
5.278872e-01
5.345904e-01
5.424936e-01
5.507569e-01
5.592589e-01
5.646090e-01
0.000000e+00
1.000000e+00
5.670052e-01
5.608031e-01
5.539017e-01
5.468505e-01
5.401750e-01
5.345829e-01
5.308403e-01
5.295533e-01
5.309483e-01
5.347784e-01
5.404651e-01
5.471905e-01
5.541963e-01
5.615747e-01
5.644116e-01
0.000000e+00
1.000000e+00
5.681756e-01
5.632081e-01
5.576570e-01
5.519903e-01
5.466240e-01
5.421266e-01
5.391141e-01
5.380759e-01
5.391949e-01
5.422731e-01
5.468456e-01
5.522854e-01
5.578928e-01
5.636592e-01
5.661738e-01
0.000000e+00
1.000000e+00
5.694000e-01
5.656661e-01
5.614992e-01
5.572495e-01
5.532238e-01
5.498482e-01
5.475848e-01
5.468012e-01
5.476373e-01
5.499462e-01
5.533756e-01
5.574784e-01
5.616813e-01
5.657877e-01
5.689380e-01
0.000000e+00
1.000000e+00
5.705634e-01
5.680153e-01
5.651767e-01
5.622843e-01
5.595433e-01
5.572435e-01
5.556992e-01
5.551606e-01
5.557254e-01
5.572967e-01
5.596334e-01
5.624416e-01
5.653240e-01
5.680216e-01
5.710564e-01
0.000000e+00
1.000000e+00
5.716084e-01
5.700962e-01
5.684336e-01
5.667433e-01
5.651409e-01
5.637952e-01
5.628896e-01
5.625704e-01
5.628951e-01
5.638105e-01
5.651802e-01
5.668381e-01
5.685477e-01
5.701327e-01
5.728238e-01
0.000000e+00
1.000000e+00
5.725081e-01
5.717600e-01
5.710433e-01
5.703164e-01
5.696270e-01
5.690473e-01
5.686560e-01
5.685154e-01
5.686499e-01
5.690380e-01
5.696273e-01
5.703563e-01
5.711183e-01
5.718683e-01
5.727396e-01
0.000000e+00
1.000000e+00
5.731455e-01
5.729003e-01
5.728432e-01
5.727809e-01
5.727218e-01
5.726718e-01
5.726372e-01
5.726228e-01
5.726300e-01
5.726589e-01
5.727103e-01
5.727877e-01
5.728896e-01
5.728873e-01
5.700761e-01
0.000000e+00
1.000000e+00
5.734621e-01
5.734723e-01
5.737569e-01
5.740316e-01
5.742922e-01
5.745111e-01
5.746582e-01
5.747090e-01
5.746541e-01
5.745058e-01
5.742909e-01
5.740376e-01
5.737845e-01
5.734972e-01
5.714982e-01
0.000000e+00
1.000000e+00
5.734771e-01
5.734826e-01
5.737914e-01
5.740784e-01
5.743506e-01
5.745793e-01
5.747329e-01
5.747863e-01
5.747300e-01
5.745759e-01
5.743496e-01
5.740761e-01
5.737973e-01
5.737274e-01
5.740755e-01
0.000000e+00
1.000000e+00
5.731606e-01
5.729863e-01
5.730269e-01
5.730310e-01
5.730351e-01
5.730384e-01
5.730404e-01
5.730402e-01
5.730372e-01
5.730325e-01
5.730267e-01
5.730174e-01
5.730246e-01
5.732391e-01
5.751816e-01
0.000000e+00
1.000000e+00
5.727051e-01
5.720918e-01
5.715955e-01
5.710719e-01
5.705760e-01
5.701596e-01
5.698795e-01
5.697805e-01
5.698796e-01
5.701621e-01
5.705797e-01
5.710715e-01
5.716167e-01
5.722179e-01
5.749028e-01
0.000000e+00
1.000000e+00
5.720904e-01
5.708686e-01
5.696632e-01
5.684273e-01
5.672560e-01
5.662727e-01
5.656114e-01
5.653793e-01
5.656176e-01
5.662911e-01
5.672877e-01
5.684575e-01
5.697214e-01
5.709006e-01
5.745328e-01
0.000000e+00
1.000000e+00
5.713091e-01
5.694260e-01
5.673938e-01
5.653198e-01
5.633542e-01
5.617044e-01
5.605958e-01
5.602082e-01
5.606119e-01
5.617435e-01
5.634140e-01
5.653762e-01
5.674682e-01
5.692718e-01
5.737370e-01
0.000000e+00
1.000000e+00
5.642201e-01
5.551138e-01
5.450096e-01
5.346805e-01
5.249111e-01
5.167350e-01
5.112673e-01
5.093927e-01
5.114394e-01
5.170609e-01
5.252881e-01
5.351978e-01
5.453118e-01
5.554936e-01
5.633393e-01
0.000000e+00
1.000000e+00
5.648357e-01
5.562954e-01
5.468484e-01
5.371952e-01
5.280624e-01
5.204179e-01
5.153056e-01
5.135532e-01
5.154671e-01
5.207194e-01
5.284462e-01
5.376402e-01
5.471334e-01
5.565746e-01
5.645941e-01
0.000000e+00
1.000000e+00
5.655719e-01
5.578459e-01
5.492739e-01
5.405157e-01
5.322283e-01
5.252908e-01
5.206517e-01
5.190616e-01
5.207989e-01
5.255627e-01
5.326010e-01
5.409191e-01
5.495757e-01
5.582294e-01
5.653877e-01
0.000000e+00
1.000000e+00
5.664897e-01
5.597571e-01
5.522621e-01
5.446057e-01
5.373589e-01
5.312907e-01
5.272324e-01
5.258409e-01
5.273604e-01
5.315248e-01
5.376990e-01
5.449762e-01
5.525814e-01
5.604026e-01
5.650349e-01
0.000000e+00
1.000000e+00
5.675455e-01
5.619663e-01
5.557156e-01
5.493335e-01
5.432908e-01
5.382292e-01
5.348423e-01
5.336802e-01
5.349462e-01
5.384185e-01
5.435796e-01
5.496796e-01
5.560218e-01
5.626752e-01
5.650809e-01
0.000000e+00
1.000000e+00
5.687159e-01
5.643742e-01
5.594771e-01
5.544823e-01
5.497520e-01
5.457880e-01
5.431333e-01
5.422202e-01
5.432098e-01
5.459287e-01
5.499776e-01
5.547897e-01
5.597461e-01
5.648425e-01
5.670455e-01
0.000000e+00
1.000000e+00
5.699446e-01
5.668376e-01
5.633282e-01
5.597540e-01
5.563682e-01
5.535296e-01
5.516267e-01
5.509684e-01
5.516737e-01
5.536209e-01
5.565269e-01
5.600110e-01
5.635691e-01
5.670770e-01
5.691444e-01
0.000000e+00
1.000000e+00
5.711222e-01
5.691909e-01
5.670117e-01
5.647969e-01
5.626982e-01
5.609376e-01
5.597553e-01
5.593425e-01
5.597747e-01
5.609804e-01
5.627921e-01
5.649937e-01
5.672244e-01
5.692616e-01
5.714397e-01
0.000000e+00
1.000000e+00
5.721904e-01
5.712676e-01
5.702642e-01
5.692498e-01
5.682883e-01
5.674808e-01
5.669369e-01
5.667434e-01
5.669352e-01
5.674822e-01
5.683204e-01
5.693719e-01
5.704330e-01
5.713322e-01
5.735985e-01
0.000000e+00
1.000000e+00
5.730918e-01
5.729143e-01
5.728520e-01
5.727930e-01
5.727370e-01
5.726896e-01
5.726565e-01
5.726417e-01
5.726464e-01
5.726723e-01
5.727309e-01
5.728444e-01
5.729878e-01
5.730463e-01
5.733274e-01
0.000000e+00
1.000000e+00
5.737293e-01
5.740239e-01
5.746078e-01
5.751973e-01
5.757563e-01
5.762259e-01
5.765417e-01
5.766521e-01
5.765372e-01
5.762216e-01
5.757666e-01
5.752385e-01
5.747312e-01
5.740123e-01
5.716182e-01
0.000000e+00
1.000000e+00
5.740629e-01
5.745505e-01
5.754537e-01
5.763559e-01
5.772118e-01
5.779317e-01
5.784177e-01
5.785919e-01
5.784255e-01
5.779522e-01
5.772526e-01
5.764096e-01
5.755634e-01
5.743493e-01
5.704452e-01
0.000000e+00
1.000000e+00
5.740836e-01
5.745035e-01
5.754033e-01
5.762871e-01
5.771259e-01
5.778319e-01
5.783093e-01
5.784817e-01
5.783193e-01
5.778531e-01
5.771632e-01
5.763285e-01
5.754894e-01
5.743429e-01
5.696075e-01
0.000000e+00
1.000000e+00
5.737618e-01
5.739340e-01
5.745449e-01
5.751101e-01
5.756463e-01
5.760970e-01
5.764007e-01
5.765081e-01
5.764004e-01
5.760995e-01
5.756599e-01
5.751215e-01
5.746025e-01
5.740534e-01
5.709115e-01
0.000000e+00
1.000000e+00
5.732235e-01
5.729839e-01
5.730032e-01
5.730007e-01
5.729992e-01
5.729991e-01
5.730000e-01
5.730007e-01
5.730007e-01
5.730023e-01
5.730045e-01
5.730050e-01
5.730609e-01
5.732510e-01
5.731154e-01
0.000000e+00
1.000000e+00
5.725361e-01
5.716957e-01
5.709596e-01
5.702027e-01
5.694857e-01
5.688841e-01
5.684804e-01