<?xml version="1.0"?>
<VTKFile type="StructuredGrid" version="0.1">
  <StructuredGrid WholeExtent="0 16 0 16 0 16">
    <Piece Extent="0 16 0 16 0 16">
      <PointData Scalars="temperature" Vectors="velocity">
        <DataArray type="Float32" Name="temperature" format="ascii">
1.000000e+00
5.730813e-01
5.730230e-01
5.730418e-01
5.730559e-01
5.730694e-01
5.730806e-01
5.730882e-01
5.730908e-01
5.730881e-01
5.730805e-01
5.730694e-01
5.730559e-01
5.730417e-01
5.730379e-01
5.728207e-01
0.000000e+00
1.000000e+00
5.731761e-01
5.732338e-01
5.733756e-01
5.735125e-01
5.736423e-01
5.737514e-01
5.738248e-01
5.738505e-01
5.738241e-01
5.737502e-01
5.736413e-01
5.735131e-01
5.733779e-01
5.732359e-01
5.729066e-01
0.000000e+00
1.000000e+00
5.734085e-01
5.736863e-01
5.740852e-01
5.744845e-01
5.748631e-01
5.751812e-01
5.753955e-01
5.754711e-01
5.753945e-01
5.751795e-01
5.748615e-01
5.744864e-01
5.740968e-01
5.736997e-01
5.732961e-01
0.000000e+00
1.000000e+00
5.737550e-01
5.743967e-01
5.751988e-01
5.760094e-01
5.767780e-01
5.774239e-01
5.778590e-01
5.780128e-01
5.778579e-01
5.774216e-01
5.767762e-01
5.760175e-01
5.752252e-01
5.744260e-01
5.735923e-01
0.000000e+00
1.000000e+00
5.742235e-01
5.753668e-01
5.767182e-01
5.780898e-01
5.793905e-01
5.804836e-01
5.812202e-01
5.814809e-01
5.812195e-01
5.804819e-01
5.793928e-01
5.781138e-01
5.767660e-01
5.754084e-01
5.740832e-01
0.000000e+00
1.000000e+00
5.748232e-01
5.765775e-01
5.786163e-01
5.806887e-01
5.826542e-01
5.843061e-01
5.854196e-01
5.858143e-01
5.854206e-01
5.843091e-01
5.826709e-01
5.807378e-01
5.786825e-01
5.766326e-01
5.746551e-01
0.000000e+00
1.000000e+00
5.755323e-01
5.779892e-01
5.808333e-01
5.837245e-01
5.864665e-01
5.887713e-01
5.903253e-01
5.908771e-01
5.903299e-01
5.887844e-01
5.865074e-01
5.837973e-01
5.809150e-01
5.780573e-01
5.753394e-01
0.000000e+00
1.000000e+00
5.763064e-01
5.795457e-01
5.832783e-01
5.870724e-01
5.906708e-01
5.936958e-01
5.957359e-01
5.964614e-01
5.957460e-01
5.937248e-01
5.907388e-01
5.871621e-01
5.833728e-01
5.796292e-01
5.760781e-01
0.000000e+00
1.000000e+00
5.771157e-01
5.811731e-01
5.858349e-01
5.905731e-01
5.950670e-01
5.988451e-01
6.013936e-01
6.023012e-01
6.014110e-01
5.988927e-01
5.951607e-01
5.906757e-01
5.859422e-01
5.812704e-01
5.768195e-01
0.000000e+00
1.000000e+00
5.779153e-01
5.827881e-01
5.883725e-01
5.940475e-01
5.994299e-01
6.039554e-01
6.070089e-01
6.080977e-01
6.070355e-01
6.040249e-01
5.995486e-01
5.941641e-01
5.884891e-01
5.828978e-01
5.775420e-01
0.000000e+00
1.000000e+00
5.786700e-01
5.843063e-01
5.907594e-01
5.973153e-01
6.035335e-01
6.087621e-01
6.122907e-01
6.135509e-01
6.123293e-01
6.088551e-01
6.036738e-01
5.974455e-01
5.908849e-01
5.844247e-01
5.782607e-01
0.000000e+00
1.000000e+00
5.793535e-01
5.856505e-01
5.928772e-01
6.002149e-01
6.071747e-01
6.130274e-01
6.169783e-01
6.183918e-01
6.170306e-01
6.131424e-01
6.073330e-01
6.003588e-01
5.930088e-01
5.857813e-01
5.789001e-01
0.000000e+00
1.000000e+00
5.799182e-01
5.867631e-01
5.946331e-01
6.026187e-01
6.101934e-01
6.165640e-01
6.208659e-01
6.224082e-01
6.209318e-01
6.166969e-01
6.103667e-01
6.027742e-01
5.947700e-01
5.869046e-01
5.794148e-01
0.000000e+00
1.000000e+00
5.803562e-01
5.876042e-01
5.959653e-01
6.044426e-01
6.124846e-01
6.192490e-01
6.238183e-01
6.254594e-01
6.238941e-01
6.193933e-01
6.126683e-01
6.046068e-01
5.961029e-01
5.877575e-01
5.797972e-01
0.000000e+00
1.000000e+00
5.806766e-01
5.881509e-01
5.968452e-01
6.056488e-01
6.140008e-01
6.210265e-01
6.257734e-01
6.274800e-01
6.258536e-01
6.211761e-01
6.141921e-01
6.058192e-01
5.969822e-01
5.883186e-01
5.800788e-01
0.000000e+00
1.000000e+00
5.808504e-01
5.884090e-01
5.972772e-01
6.062419e-01
6.147470e-01
6.219019e-01
6.267367e-01
6.284753e-01
6.268160e-01
6.220499e-01
6.149423e-01
6.064165e-01
5.974129e-01
5.885957e-01
5.801992e-01
0.000000e+00
1.000000e+00
5.808736e-01
5.884102e-01
5.972917e-01
6.062609e-01
6.147703e-01
6.219287e-01
6.267660e-01
6.285063e-01
6.268445e-01
6.220641e-01
6.149644e-01
6.064370e-01
5.974246e-01
5.886058e-01
5.801150e-01
0.000000e+00
1.000000e+00
5.730684e-01
5.730157e-01
5.730300e-01
5.730398e-01
5.730490e-01
5.730567e-01
5.730618e-01
5.730635e-01
5.730615e-01
5.730561e-01
5.730486e-01
5.730410e-01
5.730331e-01
5.730366e-01
5.727983e-01
0.000000e+00
1.000000e+00
5.732828e-01
5.734590e-01
5.737263e-01
5.739928e-01
5.742455e-01
5.744579e-01
5.746008e-01
5.746512e-01
5.746000e-01
5.744563e-01
5.742436e-01
5.739925e-01
5.737327e-01
5.734798e-01
5.729807e-01
0.000000e+00
1.000000e+00
5.736475e-01
5.741677e-01
5.748391e-01
5.755168e-01
5.761595e-01
5.766994e-01
5.770632e-01
5.771917e-01
5.770622e-01
5.766973e-01
5.761564e-01
5.755190e-01
5.748573e-01
5.741935e-01
5.734766e-01
0.000000e+00
1.000000e+00
5.741324e-01
5.751550e-01
5.763889e-01
5.776389e-01
5.788242e-01
5.798204e-01
5.804916e-01
5.807292e-01
5.804909e-01
5.798187e-01
5.788233e-01
5.776562e-01
5.764291e-01
5.751946e-01
5.739168e-01
0.000000e+00
1.000000e+00
5.747512e-01
5.764158e-01
5.783661e-01
5.803462e-01
5.822240e-01
5.838023e-01
5.848661e-01
5.852434e-01
5.848674e-01
5.838047e-01
5.822358e-01
5.803886e-01
5.784281e-01
5.764668e-01
5.745533e-01
0.000000e+00
1.000000e+00
5.754964e-01
5.779207e-01
5.807271e-01
5.835791e-01
5.862838e-01
5.885571e-01
5.900898e-01
5.906339e-01
5.900944e-01
5.885686e-01
5.863184e-01
5.836438e-01
5.808018e-01
5.779850e-01
5.752580e-01
0.000000e+00
1.000000e+00
5.763406e-01
5.796157e-01
5.833889e-01
5.872238e-01
5.908608e-01
5.939181e-01
5.959800e-01
5.967135e-01
5.959905e-01
5.939443e-01
5.909232e-01
5.873066e-01
5.834767e-01
5.796948e-01
5.760630e-01
0.000000e+00
1.000000e+00
5.772417e-01
5.814270e-01
5.862350e-01
5.911209e-01
5.957547e-01
5.996503e-01
6.022783e-01
6.032146e-01
6.022965e-01
5.996954e-01
5.958473e-01
5.912222e-01
5.863352e-01
5.815224e-01
5.769041e-01
0.000000e+00
1.000000e+00
5.781548e-01
5.832643e-01
5.891230e-01
5.950750e-01
6.007200e-01
6.054662e-01
6.086688e-01
6.098114e-01
6.086969e-01
6.055343e-01
6.008426e-01
5.951940e-01
5.892349e-01
5.833734e-01
5.777596e-01
0.000000e+00
1.000000e+00
5.790366e-01
5.850285e-01
5.918982e-01
5.988745e-01
6.054912e-01
6.110549e-01
6.148102e-01
6.161523e-01
6.148510e-01
6.111493e-01
6.056411e-01
5.990125e-01
5.920198e-01
5.851504e-01
5.785872e-01
0.000000e+00
1.000000e+00
5.798453e-01
5.866239e-01
5.944123e-01
6.023165e-01
6.098134e-01
6.161181e-01
6.203748e-01
6.218995e-01
6.204315e-01
6.162396e-01
6.099883e-01
6.024729e-01
5.945440e-01
5.867593e-01
5.793493e-01
0.000000e+00
1.000000e+00
5.805437e-01
5.879691e-01
5.965394e-01
6.052287e-01
6.134708e-01
6.204031e-01
6.250856e-01
6.267667e-01
6.251584e-01
6.205492e-01
6.136672e-01
6.054018e-01
5.966789e-01
5.881220e-01
5.799895e-01
0.000000e+00
1.000000e+00
5.810908e-01
5.890075e-01
5.981890e-01
6.074873e-01
6.163079e-01
6.237280e-01
6.287421e-01
6.305461e-01
6.288278e-01
6.238929e-01
6.165218e-01
6.076719e-01
5.983346e-01
5.891782e-01
5.804669e-01
0.000000e+00
1.000000e+00
5.814842e-01
5.897039e-01
5.993106e-01
6.090242e-01
6.182397e-01
6.259930e-01
6.312340e-01
6.331219e-01
6.313267e-01
6.261682e-01
6.184651e-01
6.092181e-01
5.994565e-01
5.898965e-01
5.807961e-01
0.000000e+00
1.000000e+00
5.817290e-01
5.900468e-01
5.998952e-01
6.098273e-01
6.192503e-01
6.271787e-01
6.325387e-01
6.344698e-01
6.326321e-01
6.273558e-01
6.194814e-01
6.100278e-01
6.000414e-01
5.902684e-01
5.809896e-01
0.000000e+00
1.000000e+00
5.818002e-01
5.900584e-01
5.999696e-01
6.099314e-01
6.193826e-01
6.273346e-01
6.327106e-01
6.346463e-01
6.327992e-01
6.275050e-01
6.196099e-01
6.101291e-01
6.001137e-01
5.903159e-01
5.810020e-01
0.000000e+00
1.000000e+00
5.817282e-01
5.897791e-01
5.995828e-01
6.094026e-01
6.187192e-01
6.265583e-01
6.318579e-01
6.337659e-01
6.319405e-01
6.267052e-01
6.189339e-01
6.095927e-01
5.997142e-01
5.900562e-01
5.808817e-01
0.000000e+00
1.000000e+00
5.729398e-01
5.727729e-01
5.726452e-01
5.725131e-01
5.723877e-01
5.722824e-01
5.722112e-01
5.721859e-01
5.722106e-01
5.722812e-01
5.723867e-01
5.725169e-01
5.726527e-01
5.728004e-01
5.727704e-01
0.000000e+00
1.000000e+00
5.732750e-01
5.734541e-01
5.737137e-01
5.739756e-01
5.742238e-01
5.744324e-01
5.745727e-01
5.746220e-01
5.745714e-01
5.744297e-01
5.742200e-01
5.739758e-01
5.737265e-01
5.734875e-01
5.730957e-01
0.000000e+00
1.000000e+00
5.737654e-01
5.744268e-01
5.752425e-01
5.760689e-01
5.768526e-01
5.775110e-01
5.779546e-01
5.781112e-01
5.779528e-01
5.775069e-01
5.768457e-01
5.760723e-01
5.752704e-01
5.744646e-01
5.735104e-01
0.000000e+00
1.000000e+00
5.743862e-01
5.757033e-01
5.772460e-01
5.788124e-01
5.802976e-01
5.815458e-01
5.823868e-01
5.826844e-01
5.823856e-01
5.815425e-01
5.802960e-01
5.788417e-01
5.773018e-01
5.757504e-01
5.740955e-01
0.000000e+00
1.000000e+00
5.751583e-01
5.772688e-01
5.797015e-01
5.821746e-01
5.845198e-01
5.864908e-01
5.878195e-01
5.882907e-01
5.878212e-01
5.864951e-01
5.845426e-01
5.822314e-01
5.797684e-01
5.773254e-01
5.748521e-01
0.000000e+00
1.000000e+00
5.760680e-01
5.790797e-01
5.825448e-01
5.860680e-01
5.894091e-01
5.922174e-01
5.941111e-01
5.947841e-01
5.941181e-01
5.922355e-01
5.894615e-01
5.861423e-01
5.826216e-01
5.791500e-01
5.757227e-01
0.000000e+00
1.000000e+00
5.770610e-01
5.810666e-01
5.856676e-01
5.903439e-01
5.947789e-01
5.985074e-01
6.010227e-01
6.019186e-01
6.010379e-01
5.985450e-01
5.948629e-01
5.904388e-01
5.857582e-01
5.811539e-01
5.766742e-01
0.000000e+00
1.000000e+00
5.780898e-01
5.831384e-01
5.889250e-01
5.948041e-01
6.003799e-01
6.050684e-01
6.082324e-01
6.093613e-01
6.082579e-01
6.051304e-01
6.004964e-01
5.949229e-01
5.890277e-01
5.832415e-01
5.776593e-01
0.000000e+00
1.000000e+00
5.791131e-01
5.851849e-01
5.921454e-01
5.992135e-01
6.059173e-01
6.115546e-01
6.153601e-01
6.167204e-01
6.153987e-01
6.116453e-01
6.060652e-01
5.993569e-01
5.922590e-01
5.853040e-01
5.786378e-01
0.000000e+00
1.000000e+00
5.800833e-01
5.870908e-01
5.951494e-01
6.033263e-01
6.110818e-01
6.176044e-01
6.220092e-01
6.235873e-01
6.220645e-01
6.177266e-01
6.112599e-01
6.034951e-01
5.952743e-01
5.872252e-01
5.795479e-01
0.000000e+00
1.000000e+00
5.809369e-01
5.887486e-01
5.977708e-01
6.069151e-01
6.155890e-01
6.228852e-01
6.278148e-01
6.295862e-01
6.278894e-01
6.230391e-01
6.157962e-01
6.071085e-01
5.979079e-01
5.889020e-01
5.803402e-01
0.000000e+00
1.000000e+00
5.816374e-01
5.900736e-01
5.998786e-01
6.098013e-01
6.192143e-01
6.271340e-01
6.324877e-01
6.344166e-01
6.325789e-01
6.273144e-01
6.194477e-01
6.100127e-01
6.000275e-01
5.902505e-01
5.809709e-01
0.000000e+00
1.000000e+00
5.821566e-01
5.910100e-01
6.013874e-01
6.118682e-01
6.218120e-01
6.301798e-01
6.358389e-01
6.378809e-01
6.359402e-01
6.303772e-01
6.220668e-01
6.120901e-01
6.015426e-01
5.912177e-01
5.814068e-01
0.000000e+00
1.000000e+00
5.824953e-01
5.915277e-01
6.022628e-01
6.130698e-01
6.233238e-01
6.319533e-01
6.377904e-01
6.398971e-01
6.378942e-01
6.321559e-01
6.235899e-01
6.133009e-01
6.024165e-01
5.917786e-01
5.816621e-01
0.000000e+00
1.000000e+00
5.826571e-01
5.916242e-01
6.025196e-01
6.134250e-01
6.237714e-01
6.324786e-01
6.383677e-01
6.404920e-01
6.384679e-01
6.326772e-01
6.240388e-01
6.136580e-01
6.026732e-01
5.919438e-01
5.817582e-01
0.000000e+00
1.000000e+00
5.825996e-01
5.913460e-01
6.022102e-01
6.130020e-01
6.232402e-01
6.318556e-01
6.376818e-01
6.397806e-01
6.377733e-01
6.320422e-01
6.234959e-01
6.132235e-01
6.023548e-01
5.917430e-01
5.816650e-01
0.000000e+00
1.000000e+00
5.823701e-01
5.907847e-01
6.014071e-01
6.119007e-01
6.218563e-01
6.302339e-01
6.358990e-01
6.379383e-01
6.359778e-01
6.303960e-01
6.220929e-01
6.121082e-01
6.015375e-01
5.912151e-01
5.814448e-01
0.000000e+00
1.000000e+00
5.726822e-01
5.722668e-01
5.718507e-01
5.714250e-01
5.710214e-01
5.706821e-01
5.704534e-01
5.703721e-01
5.704526e-01
5.706810e-01
5.710213e-01
5.714377e-01
5.718663e-01
5.722877e-01
5.725695e-01
0.000000e+00
1.000000e+00
5.731398e-01
5.731832e-01
5.732870e-01
5.733915e-01
5.734906e-01
5.735737e-01
5.736294e-01
5.736485e-01
5.736275e-01
5.735700e-01
5.734854e-01
5.733976e-01
5.733055e-01
5.732104e-01
5.730759e-01
0.000000e+00
1.000000e+00
5.737473e-01
5.744223e-01
5.752305e-01
5.760525e-01
5.768320e-01
5.774869e-01
5.779279e-01
5.780834e-01
5.779253e-01
5.774807e-01
5.768211e-01
5.760575e-01
5.752721e-01
5.744670e-01
5.736072e-01
0.000000e+00
1.000000e+00
5.745119e-01
5.759894e-01
5.776885e-01
5.794180e-01
5.810580e-01
5.824361e-01
5.833646e-01
5.836928e-01
5.833620e-01
5.824297e-01
5.810531e-01
5.794540e-01
5.777614e-01
5.760435e-01
5.743298e-01
0.000000e+00
1.000000e+00
5.754412e-01
5.778600e-01
5.806237e-01
5.834370e-01
5.861047e-01
5.883468e-01
5.898581e-01
5.903940e-01
5.898594e-01
5.883515e-01
5.861372e-01
5.835055e-01
5.807021e-01
5.779194e-01
5.752303e-01
0.000000e+00
1.000000e+00
5.765138e-01
5.799761e-01
5.839505e-01
5.879924e-01
5.918254e-01
5.950474e-01
5.972203e-01
5.979929e-01
5.972293e-01
5.950720e-01
5.918930e-01
5.880804e-01
5.840381e-01
5.800516e-01
5.762233e-01
0.000000e+00
1.000000e+00
5.776553e-01
5.822539e-01
5.875344e-01
5.928999e-01
5.979883e-01
6.022663e-01
6.051526e-01
6.061810e-01
6.051716e-01
6.023151e-01
5.980885e-01
5.930132e-01
5.876306e-01
5.823496e-01
5.772993e-01
0.000000e+00
1.000000e+00
5.788118e-01
5.845834e-01
5.911990e-01
5.979173e-01
6.042891e-01
6.096469e-01
6.132630e-01
6.145537e-01
6.132948e-01
6.097253e-01
6.044222e-01
5.980585e-01
5.913037e-01
5.846949e-01
5.783911e-01
0.000000e+00
1.000000e+00
5.799407e-01
5.868329e-01
5.947410e-01
6.027668e-01
6.103789e-01
6.167804e-01
6.211027e-01
6.226488e-01
6.211520e-01
6.168932e-01
6.105436e-01
6.029383e-01
5.948585e-01
5.869611e-01
5.794560e-01
0.000000e+00
1.000000e+00
5.809822e-01
5.888692e-01
5.979545e-01
6.071663e-01
6.159039e-01
6.232537e-01
6.282188e-01
6.299999e-01
6.282901e-01
6.234030e-01
6.160998e-01
6.073722e-01
5.980869e-01
5.890152e-01
5.804213e-01
0.000000e+00
1.000000e+00
5.818683e-01
5.905734e-01
6.006579e-01
6.108678e-01
6.205536e-01
6.287033e-01
6.342123e-01
6.361946e-01
6.343054e-01
6.288870e-01
6.207816e-01
6.111054e-01
6.008109e-01
5.907411e-01
5.812294e-01
0.000000e+00
1.000000e+00
5.825597e-01
5.918589e-01
6.027172e-01
6.136886e-01
6.240988e-01
6.328600e-01
6.387852e-01
6.409216e-01
6.388931e-01
6.330691e-01
6.243589e-01
6.139426e-01
6.028909e-01
5.920586e-01
5.818433e-01
0.000000e+00
1.000000e+00
5.830374e-01
5.926705e-01
6.040560e-01
6.155255e-01
6.264087e-01
6.355687e-01
6.417656e-01
6.440013e-01
6.418791e-01
6.357905e-01
6.266941e-01
6.157886e-01
6.042347e-01
5.929165e-01
5.822308e-01
0.000000e+00
1.000000e+00
5.833130e-01
5.929817e-01
6.046605e-01
6.163579e-01
6.274554e-01
6.367959e-01
6.431158e-01
6.453947e-01
6.432271e-01
6.370173e-01
6.277517e-01
6.166319e-01
6.048313e-01
5.933007e-01
5.824015e-01
0.000000e+00
1.000000e+00
5.833711e-01
5.928114e-01
6.045716e-01
6.162368e-01
6.273027e-01
6.366166e-01
6.429173e-01
6.451873e-01
6.430215e-01
6.368290e-01
6.275967e-01
6.165055e-01
6.047312e-01
5.932411e-01
5.823806e-01
0.000000e+00
1.000000e+00
5.831503e-01
5.922902e-01
6.038659e-01
6.152674e-01
6.260833e-01
6.351864e-01
6.413439e-01
6.435592e-01
6.414366e-01
6.353844e-01
6.263627e-01
6.155151e-01
6.040117e-01
5.927858e-01
5.821819e-01
0.000000e+00
1.000000e+00
5.827497e-01
5.915180e-01
6.026390e-01
6.135843e-01
6.239688e-01
6.327085e-01
6.386205e-01
6.407461e-01
6.386967e-01
6.328851e-01
6.242273e-01
6.138092e-01
6.027682e-01
5.919914e-01
5.818243e-01
0.000000e+00
1.000000e+00
5.723050e-01
5.714888e-01
5.706302e-01
5.697538e-01
5.689228e-01
5.682244e-01
5.677539e-01
5.675870e-01
5.677535e-01
5.682250e-01
5.689263e-01
5.697817e-01
5.706611e-01
5.715201e-01
5.721538e-01
0.000000e+00
1.000000e+00
5.728708e-01
5.726272e-01
5.724156e-01
5.721984e-01
5.719926e-01
5.718195e-01
5.717029e-01
5.716612e-01
5.717015e-01
5.718169e-01
5.719889e-01
5.722202e-01
5.724423e-01
5.726580e-01
5.727691e-01
0.000000e+00
1.000000e+00
5.735918e-01
5.741207e-01
5.747555e-01
5.754022e-01
5.760154e-01
5.765305e-01
5.768772e-01
5.769991e-01
5.768741e-01
5.765238e-01
5.760034e-01
5.754117e-01
5.748053e-01
5.741734e-01
5.734227e-01
0.000000e+00
1.000000e+00
5.744983e-01
5.759669e-01
5.776489e-01
5.793639e-01
5.809901e-01
5.823567e-01
5.832773e-01
5.836026e-01
5.832742e-01
5.823486e-01
5.809792e-01
5.794016e-01
5.777379e-01
5.760318e-01
5.742763e-01
0.000000e+00
1.000000e+00
5.755761e-01
5.781313e-01
5.810445e-01
5.840130e-01
5.868278e-01
5.891935e-01
5.907877e-01
5.913525e-01
5.907876e-01
5.891951e-01
5.868602e-01
5.840913e-01
5.811422e-01
5.782018e-01
5.753116e-01
0.000000e+00
1.000000e+00
5.767907e-01
5.805428e-01
5.848347e-01
5.892029e-01
5.933450e-01
5.968267e-01
5.991743e-01
6.000086e-01
5.991830e-01
5.968521e-01
5.934198e-01
5.893016e-01
5.849364e-01
5.806270e-01
5.764597e-01
0.000000e+00
1.000000e+00
5.780745e-01
5.830983e-01
5.888567e-01
5.947099e-01
6.002607e-01
6.049273e-01
6.080755e-01
6.091971e-01
6.080969e-01
6.049832e-01
6.003724e-01
5.948395e-01
5.889626e-01
5.832001e-01
5.776779e-01
0.000000e+00
1.000000e+00
5.793666e-01
5.856660e-01
5.929017e-01
6.002482e-01
6.072155e-01
6.130741e-01
6.170284e-01
6.184407e-01
6.170677e-01
6.131680e-01
6.073629e-01
6.004127e-01
5.930171e-01
5.857859e-01
5.789015e-01
0.000000e+00
1.000000e+00
5.805980e-01
5.880961e-01
5.967357e-01
6.054973e-01
6.138073e-01
6.207965e-01
6.255168e-01
6.272079e-01
6.255813e-01
6.209333e-01
6.139866e-01
6.057005e-01
5.968644e-01
5.882376e-01
5.800627e-01
0.000000e+00
1.000000e+00
5.817036e-01
5.902389e-01
6.001286e-01
6.101426e-01
6.196418e-01
6.276337e-01
6.330347e-01
6.349767e-01
6.331279e-01
6.278119e-01
6.198505e-01
6.103879e-01
6.002797e-01
5.904029e-01
5.810842e-01
0.000000e+00
1.000000e+00
5.826266e-01
5.919661e-01
6.028852e-01
6.139179e-01
6.243856e-01
6.331948e-01
6.391522e-01
6.413004e-01
6.392690e-01
6.334076e-01
6.246249e-01
6.141893e-01
6.030790e-01
5.921625e-01
5.818982e-01
0.000000e+00
1.000000e+00
5.833067e-01
5.931902e-01
6.048700e-01
6.166383e-01
6.278062e-01
6.372066e-01
6.435661e-01
6.458620e-01
6.436948e-01
6.374415e-01
6.280841e-01
6.169123e-01
6.051001e-01
5.934406e-01
5.824847e-01
0.000000e+00
1.000000e+00
5.837459e-01
5.938576e-01
6.060184e-01
6.182173e-01
6.297929e-01
6.395359e-01
6.461277e-01
6.485069e-01
6.462572e-01
6.397760e-01
6.300959e-01
6.185103e-01
6.062408e-01
5.941808e-01
5.828208e-01
0.000000e+00
1.000000e+00
5.839552e-01
5.939575e-01
6.063400e-01
6.186628e-01
6.303520e-01
6.401902e-01
6.468462e-01
6.492458e-01
6.469689e-01
6.404227e-01
6.306623e-01
6.189745e-01
6.065439e-01
5.943695e-01
5.829261e-01
0.000000e+00
1.000000e+00
5.838344e-01
5.935922e-01
6.059023e-01
6.180610e-01
6.295933e-01
6.392996e-01
6.458656e-01
6.482291e-01
6.459760e-01
6.395180e-01
6.299005e-01
6.183634e-01
6.060852e-01
5.940706e-01
5.827613e-01
0.000000e+00
1.000000e+00
5.834212e-01
5.929019e-01
6.048041e-01
6.165523e-01
6.276963e-01
6.370757e-01
6.434208e-01
6.457034e-01
6.435167e-01
6.372786e-01
6.279923e-01
6.168276e-01
6.049608e-01
5.933740e-01
5.824630e-01
0.000000e+00
1.000000e+00
5.828833e-01
5.918798e-01
6.031655e-01
6.143090e-01
6.248801e-01
6.337764e-01
6.397940e-01
6.419582e-01
6.398739e-01
6.339602e-01
6.251561e-01
6.145516e-01
6.033028e-01
5.923273e-01
5.819906e-01
0.000000e+00
1.000000e+00
5.717919e-01
5.704479e-01
5.689969e-01
5.675174e-01
5.661146e-01
5.649360e-01
5.641421e-01
5.638612e-01
5.641436e-01
5.649409e-01
5.661249e-01
5.675631e-01
5.690450e-01
5.704935e-01
5.716280e-01
0.000000e+00
1.000000e+00
5.724540e-01
5.717870e-01
5.710977e-01
5.703940e-01
5.697270e-01
5.691667e-01
5.687895e-01
5.686561e-01
5.687900e-01
5.691682e-01
5.697288e-01
5.704417e-01
5.711429e-01
5.718309e-01
5.723394e-01
0.000000e+00
1.000000e+00
5.732935e-01
5.735110e-01
5.737987e-01
5.740922e-01
5.743705e-01
5.746042e-01
5.747613e-01
5.748161e-01
5.747585e-01
5.745986e-01
5.743609e-01
5.741170e-01
5.738538e-01
5.735716e-01
5.731108e-01
0.000000e+00
1.000000e+00
5.743219e-01
5.756101e-01
5.770877e-01
5.785957e-01
5.800257e-01
5.812273e-01
5.820367e-01
5.823227e-01
5.820341e-01
5.812205e-01
5.800121e-01
5.786288e-01
5.771854e-01
5.756870e-01
5.740942e-01
0.000000e+00
1.000000e+00
5.755212e-01
5.780424e-01
5.809010e-01
5.838166e-01
5.865812e-01
5.889047e-01
5.904705e-01
5.910250e-01
5.904694e-01
5.889024e-01
5.866028e-01
5.839033e-01
5.810171e-01
5.781254e-01
5.752624e-01
0.000000e+00
1.000000e+00
5.768581e-01
5.807228e-01
5.851092e-01
5.895782e-01
5.938158e-01
5.973775e-01
5.997787e-01
6.006313e-01
5.997854e-01
5.973985e-01
5.938909e-01
5.896903e-01
5.852294e-01
5.808155e-01
5.765311e-01
0.000000e+00
1.000000e+00
5.782698e-01
5.835284e-01
5.895219e-01
5.956199e-01
6.014026e-01
6.062637e-01
6.095427e-01
6.107103e-01
6.095636e-01
6.063208e-01
6.015227e-01
5.957578e-01
5.896458e-01
5.836352e-01
5.778761e-01
0.000000e+00
1.000000e+00
5.796770e-01
5.863069e-01
5.938999e-01
6.016140e-01
6.089296e-01
6.150807e-01
6.192322e-01
6.207152e-01
6.192752e-01
6.151842e-01
6.090878e-01
6.017862e-01
5.940307e-01
5.864317e-01
5.792020e-01
0.000000e+00
1.000000e+00
5.809994e-01
5.888905e-01
5.979809e-01
6.072010e-01
6.159457e-01
6.233005e-01
6.282682e-01
6.300500e-01
6.283428e-01
6.234554e-01
6.161354e-01
6.074170e-01
5.981258e-01
5.890362e-01
5.804358e-01
0.000000e+00
1.000000e+00
5.821680e-01
5.911149e-01
6.015123e-01
6.120361e-01
6.220190e-01
6.304185e-01
6.360970e-01
6.381429e-01
6.362064e-01
6.306208e-01
6.222370e-01
6.122948e-01
6.016924e-01
5.912879e-01
5.814933e-01
0.000000e+00
1.000000e+00
5.831197e-01
5.928441e-01
6.042878e-01
6.158380e-01
6.267975e-01
6.360224e-01
6.422638e-01
6.445196e-01
6.423985e-01
6.362605e-01
6.270510e-01
6.161037e-01
6.045275e-01
5.930663e-01
5.823066e-01
0.000000e+00
1.000000e+00
5.837775e-01
5.939961e-01
6.061748e-01
6.184257e-01
6.300531e-01
6.398423e-01
6.464673e-01
6.488637e-01
6.466113e-01
6.400972e-01
6.303468e-01
6.186868e-01
6.064327e-01
5.942963e-01
5.828567e-01
0.000000e+00
1.000000e+00
5.841497e-01
5.945322e-01
6.071226e-01
6.197314e-01
6.316980e-01
6.417710e-01
6.485870e-01
6.510503e-01
6.487274e-01
6.420219e-01
6.320078e-01
6.200293e-01
6.073573e-01
5.949154e-01
5.831427e-01
0.000000e+00
1.000000e+00
5.842273e-01
5.944864e-01
6.071640e-01
6.197935e-01
6.317759e-01
6.418604e-01
6.486823e-01
6.511434e-01
6.488110e-01
6.420951e-01
6.320862e-01
6.201206e-01
6.073931e-01
5.948914e-01
5.831889e-01
0.000000e+00
1.000000e+00
5.839484e-01
5.939803e-01
6.063913e-01
6.187326e-01
6.304398e-01
6.402923e-01
6.469570e-01
6.493590e-01
6.470695e-01
6.405091e-01
6.307511e-01
6.190585e-01
6.065985e-01
5.943593e-01
5.829325e-01
0.000000e+00
1.000000e+00
5.834193e-01
5.930807e-01
6.049263e-01
6.167227e-01
6.279140e-01
6.373328e-01
6.437046e-01
6.460020e-01
6.438050e-01
6.375339e-01
6.282216e-01
6.170214e-01
6.051014e-01
5.934635e-01
5.825224e-01
0.000000e+00
1.000000e+00
5.828051e-01
5.918251e-01
6.029207e-01
6.139763e-01
6.244651e-01
6.332917e-01
6.392613e-01
6.414120e-01
6.393500e-01
6.334748e-01
6.247488e-01
6.142235e-01
6.030621e-01
5.921851e-01
5.819276e-01
0.000000e+00
1.000000e+00
5.711611e-01
5.691723e-01
5.669966e-01
5.647785e-01
5.626757e-01
5.609094e-01
5.597203e-01
5.593009e-01
5.597261e-01
5.609225e-01
5.626964e-01
5.648430e-01
5.670601e-01
5.692272e-01
5.710209e-01
0.000000e+00
1.000000e+00
5.719046e-01
5.706844e-01
5.693680e-01
5.680257e-01
5.667534e-01
5.656850e-01
5.649661e-01
5.647125e-01
5.649698e-01
5.656937e-01
5.667655e-01
5.680978e-01
5.694381e-01
5.707456e-01
5.718097e-01
0.000000e+00
1.000000e+00
5.728477e-01
5.726056e-01
5.723788e-01
5.721481e-01
5.719295e-01
5.717460e-01
5.716223e-01
5.715781e-01
5.716211e-01
5.717438e-01
5.719254e-01
5.722032e-01
5.724444e-01
5.726735e-01
5.726814e-01
0.000000e+00
1.000000e+00
5.739766e-01
5.749200e-01
5.760044e-01
5.771125e-01
5.781632e-01
5.790463e-01
5.796411e-01
5.798513e-01
5.796394e-01
5.790422e-01
5.781532e-01
5.771453e-01
5.761058e-01
5.750069e-01
5.737743e-01
0.000000e+00
1.000000e+00
5.752817e-01
5.775784e-01
5.801703e-01
5.828164e-01
5.853257e-01
5.874347e-01
5.888559e-01
5.893591e-01
5.888552e-01
5.874319e-01
5.853311e-01
5.829005e-01
5.803032e-01
5.776732e-01
5.750480e-01
0.000000e+00
1.000000e+00
5.767235e-01
5.804827e-01
5.847264e-01
5.890540e-01
5.931576e-01
5.966066e-01
5.989315e-01
5.997564e-01
5.989360e-01
5.966206e-01
5.932260e-01
5.891775e-01
5.848639e-01
5.805825e-01
5.764253e-01
0.000000e+00
1.000000e+00
5.782347e-01
5.834935e-01
5.894582e-01
5.955325e-01
6.012923e-01
6.061338e-01
6.093988e-01
6.105603e-01
6.094164e-01
6.061847e-01
6.014174e-01
5.956744e-01
5.895996e-01
5.836047e-01
5.778575e-01
0.000000e+00
1.000000e+00
5.797205e-01
5.864425e-01
5.941006e-01
6.018880e-01
6.092726e-01
6.154812e-01
6.196707e-01
6.211663e-01
6.197112e-01
6.155836e-01
6.094402e-01
6.020582e-01
5.942488e-01
5.865678e-01
5.792577e-01
0.000000e+00
1.000000e+00
5.811061e-01
5.891451e-01
5.983664e-01
6.077277e-01
6.166058e-01
6.240722e-01
6.291148e-01
6.309233e-01
6.291897e-01
6.242340e-01
6.168074e-01
6.079282e-01
5.985339e-01
5.892873e-01
5.805294e-01
0.000000e+00
1.000000e+00
5.823099e-01
5.914255e-01
6.019861e-01
6.126835e-01
6.228305e-01
6.313679e-01
6.371399e-01
6.392204e-01
6.372528e-01
6.315834e-01
6.230641e-01
6.129033e-01
6.022008e-01
5.915946e-01
5.816046e-01
0.000000e+00
1.000000e+00
5.832503e-01
5.931483e-01
6.047470e-01
6.164649e-01
6.275833e-01
6.369424e-01
6.432755e-01
6.455659e-01
6.434148e-01
6.371933e-01
6.278568e-01
6.166874e-01
6.050109e-01
5.933693e-01
5.824133e-01
0.000000e+00
1.000000e+00
5.838648e-01
5.942365e-01
6.065206e-01
6.188970e-01
6.306439e-01
6.405343e-01
6.472288e-01
6.496513e-01
6.473756e-01
6.407943e-01
6.309449e-01
6.191636e-01
6.067626e-01
5.945296e-01
5.829387e-01
0.000000e+00
1.000000e+00
5.841475e-01
5.946728e-01
6.072715e-01
6.199320e-01
6.319488e-01
6.420651e-01
6.489110e-01
6.513851e-01
6.490509e-01
6.423129e-01
6.322527e-01
6.202341e-01
6.074845e-01
5.950280e-01
5.831913e-01
0.000000e+00
1.000000e+00
5.840816e-01
5.945115e-01
6.070527e-01
6.196361e-01
6.315776e-01
6.416287e-01
6.484292e-01
6.508841e-01
6.485542e-01
6.418568e-01
6.318841e-01
6.199625e-01
6.072919e-01
5.948581e-01
5.831688e-01
0.000000e+00
1.000000e+00
5.837125e-01
5.938355e-01
6.059786e-01
6.181626e-01
6.297241e-01
6.394555e-01
6.460398e-01
6.484174e-01
6.461522e-01
6.396651e-01
6.300387e-01
6.184979e-01
6.061872e-01
5.941317e-01
5.828408e-01
0.000000e+00
1.000000e+00
5.831387e-01
5.927079e-01
6.041977e-01
6.157225e-01
6.266584e-01
6.358626e-01
6.420901e-01
6.443391e-01
6.421968e-01
6.360548e-01
6.269675e-01
6.160204e-01
6.043696e-01
5.930057e-01
5.823197e-01
0.000000e+00
1.000000e+00
5.823876e-01
5.912667e-01
6.018851e-01
6.125541e-01
6.226779e-01
6.311975e-01
6.369598e-01
6.390379e-01
6.370557e-01
6.313731e-01
6.229581e-01
6.127925e-01
6.020233e-01
5.915259e-01
5.816130e-01
0.000000e+00
1.000000e+00
5.704440e-01
5.677121e-01
5.647084e-01
5.616457e-01
5.587424e-01
5.563040e-01
5.546634e-01
5.540861e-01
5.546753e-01
5.563279e-01
5.587754e-01
5.617288e-01
5.647867e-01
5.677749e-01
5.703322e-01
0.000000e+00
1.000000e+00
5.712512e-01
5.693645e-01
5.672984e-01
5.651923e-01
5.631961e-01
5.615201e-01
5.603928e-01
5.599962e-01
5.604014e-01
5.615386e-01
5.632213e-01
5.652863e-01
5.673899e-01
5.694391e-01
5.711772e-01
0.000000e+00
1.000000e+00
5.722723e-01
5.714427e-01
5.705554e-01
5.696517e-01
5.687954e-01
5.680768e-01
5.675935e-01
5.674231e-01
5.675958e-01
5.680817e-01
5.688017e-01
5.697434e-01
5.706427e-01
5.715232e-01
5.721249e-01
0.000000e+00
1.000000e+00
5.734832e-01
5.739259e-01
5.744453e-01
5.749777e-01
5.754826e-01
5.759073e-01
5.761938e-01
5.762954e-01
5.761936e-01
5.759062e-01
5.754775e-01
5.750318e-01
5.745497e-01
5.740191e-01
5.732975e-01
0.000000e+00
1.000000e+00
5.748723e-01
5.767567e-01
5.788806e-01
5.810507e-01
5.831087e-01
5.848384e-01
5.860040e-01
5.864168e-01
5.860042e-01
5.848380e-01
5.831033e-01
5.811216e-01
5.790290e-01
5.768640e-01
5.746565e-01
0.000000e+00
1.000000e+00
5.763959e-01
5.798268e-01
5.836948e-01
5.876419e-01
5.913849e-01
5.945312e-01
5.966523e-01
5.974047e-01
5.966557e-01
5.945397e-01
5.914370e-01
5.877723e-01
5.838484e-01
5.799360e-01
5.761124e-01
0.000000e+00
1.000000e+00
5.779768e-01
5.829841e-01
5.886539e-01
5.944316e-01
5.999100e-01
6.045148e-01
6.076196e-01
6.087230e-01
6.076330e-01
6.045541e-01
6.000280e-01
5.945780e-01
5.888082e-01
5.831027e-01
5.776179e-01
0.000000e+00
1.000000e+00
5.795085e-01
5.860484e-01
5.934732e-01
6.010291e-01
6.081940e-01
6.142172e-01
6.182805e-01
6.197293e-01
6.183137e-01
6.143055e-01
6.083619e-01
6.011969e-01
5.936296e-01
5.861772e-01
5.790585e-01
0.000000e+00
1.000000e+00
5.809193e-01
5.888242e-01
5.978482e-01
6.070181e-01
6.157141e-01
6.230266e-01
6.279636e-01
6.297317e-01
6.280280e-01
6.231766e-01
6.159237e-01
6.072018e-01
5.980196e-01
5.889634e-01
5.803495e-01
0.000000e+00
1.000000e+00
5.821269e-01
5.911286e-01
6.014983e-01
6.120155e-01
6.219906e-01
6.303821e-01
6.360534e-01
6.380945e-01
6.361545e-01
6.305889e-01
6.222406e-01
6.122004e-01
6.017120e-01
5.912870e-01
5.814246e-01
0.000000e+00
1.000000e+00
5.830304e-01
5.928294e-01
6.042098e-01
6.157284e-01
6.266561e-01
6.358531e-01
6.420745e-01
6.443213e-01
6.422021e-01
6.360932e-01
6.269337e-01
6.159312e-01
6.044608e-01
5.930206e-01
5.822234e-01
0.000000e+00
1.000000e+00
5.835843e-01
5.938541e-01
6.058602e-01
6.179903e-01
6.295012e-01
6.391918e-01
6.457495e-01
6.481196e-01
6.458850e-01
6.394361e-01
6.297878e-01
6.182527e-01
6.061078e-01
5.940902e-01
5.827151e-01
0.000000e+00
1.000000e+00
5.837816e-01
5.941962e-01
6.064281e-01
6.187714e-01
6.304859e-01
6.403481e-01
6.470221e-01
6.494325e-01
6.471507e-01
6.405796e-01
6.307797e-01
6.190781e-01
6.066564e-01
5.944620e-01
5.829252e-01
0.000000e+00
1.000000e+00
5.836469e-01
5.939074e-01
6.059851e-01
6.181652e-01
6.297242e-01
6.394547e-01
6.460397e-01
6.484191e-01
6.461580e-01
6.396684e-01
6.300303e-01
6.184979e-01
6.062013e-01
5.941578e-01
5.828441e-01
0.000000e+00
1.000000e+00
5.832342e-01
5.930531e-01
6.046586e-01
6.163496e-01
6.274443e-01
6.367835e-01
6.431036e-01
6.453883e-01
6.432169e-01
6.369800e-01
6.277570e-01
6.166679e-01
6.048377e-01
5.932925e-01
5.824598e-01
0.000000e+00
1.000000e+00
5.825916e-01
5.917701e-01
6.026299e-01
6.135708e-01
6.239528e-01
6.326906e-01
6.386019e-01