<?xml version="1.0"?>
<VTKFile type="StructuredGrid" version="0.1">
  <StructuredGrid WholeExtent="0 16 0 16 0 16">
    <Piece Extent="0 16 0 16 0 16">
      <PointData Scalars="temperature" Vectors="velocity">
        <DataArray type="Float32" Name="temperature" format="ascii">
1.000000e+00
5.653215e-01
5.578866e-01
5.493099e-01
5.405767e-01
5.323122e-01
5.253912e-01
5.207613e-01
5.191731e-01
5.209073e-01
5.256542e-01
5.326477e-01
5.410599e-01
5.497148e-01
5.583377e-01
5.649153e-01
0.000000e+00
1.000000e+00
5.661888e-01
5.597395e-01
5.521834e-01
5.445058e-01
5.372393e-01
5.311536e-01
5.270831e-01
5.256886e-01
5.272166e-01
5.313935e-01
5.375503e-01
5.449956e-01
5.525532e-01
5.602106e-01
5.652281e-01
0.000000e+00
1.000000e+00
5.672646e-01
5.618223e-01
5.554368e-01
5.489548e-01
5.428170e-01
5.376739e-01
5.342308e-01
5.330477e-01
5.343334e-01
5.378576e-01
5.430573e-01
5.494029e-01
5.557811e-01
5.624402e-01
5.654546e-01
0.000000e+00
1.000000e+00
5.684121e-01
5.640630e-01
5.589463e-01
5.537575e-01
5.488435e-01
5.447252e-01
5.419668e-01
5.410178e-01
5.420462e-01
5.448668e-01
5.490303e-01
5.541719e-01
5.592733e-01
5.647495e-01
5.660164e-01
0.000000e+00
1.000000e+00
5.696100e-01
5.663956e-01
5.626039e-01
5.587637e-01
5.551263e-01
5.520770e-01
5.500337e-01
5.493275e-01
5.500861e-01
5.521732e-01
5.552547e-01
5.591434e-01
5.629114e-01
5.670082e-01
5.672510e-01
0.000000e+00
1.000000e+00
5.707993e-01
5.687243e-01
5.662567e-01
5.637638e-01
5.614024e-01
5.594223e-01
5.580939e-01
5.576308e-01
5.581177e-01
5.594692e-01
5.614659e-01
5.640985e-01
5.665405e-01
5.692093e-01
5.687691e-01
0.000000e+00
1.000000e+00
5.719526e-01
5.709386e-01
5.697313e-01
5.685202e-01
5.673728e-01
5.664103e-01
5.657631e-01
5.655336e-01
5.657632e-01
5.664117e-01
5.673674e-01
5.687786e-01
5.699861e-01
5.712765e-01
5.707147e-01
0.000000e+00
1.000000e+00
5.730246e-01
5.729194e-01
5.728477e-01
5.727867e-01
5.727291e-01
5.726808e-01
5.726473e-01
5.726317e-01
5.726355e-01
5.726574e-01
5.726854e-01
5.729028e-01
5.730526e-01
5.731586e-01
5.721769e-01
0.000000e+00
1.000000e+00
5.739375e-01
5.745593e-01
5.754392e-01
5.763356e-01
5.771859e-01
5.779002e-01
5.783804e-01
5.785475e-01
5.783707e-01
5.778806e-01
5.771492e-01
5.763663e-01
5.756374e-01
5.747400e-01
5.732061e-01
0.000000e+00
1.000000e+00
5.746105e-01
5.757799e-01
5.773740e-01
5.789849e-01
5.805131e-01
5.817978e-01
5.826637e-01
5.829698e-01
5.826617e-01
5.817920e-01
5.805025e-01
5.790627e-01
5.775961e-01
5.759344e-01
5.741597e-01
0.000000e+00
1.000000e+00
5.750423e-01
5.765315e-01
5.785699e-01
5.806226e-01
5.825695e-01
5.842061e-01
5.853097e-01
5.857016e-01
5.853141e-01
5.842147e-01
5.826004e-01
5.807714e-01
5.787816e-01
5.766739e-01
5.747494e-01
0.000000e+00
1.000000e+00
5.752130e-01
5.767976e-01
5.789974e-01
5.812084e-01
5.833055e-01
5.850686e-01
5.862578e-01
5.866810e-01
5.862655e-01
5.850868e-01
5.833662e-01
5.813761e-01
5.791877e-01
5.769338e-01
5.749440e-01
0.000000e+00
1.000000e+00
5.751139e-01
5.765930e-01
5.786816e-01
5.807758e-01
5.827622e-01
5.844324e-01
5.855592e-01
5.859605e-01
5.855668e-01
5.844530e-01
5.828304e-01
5.809345e-01
5.788645e-01
5.767428e-01
5.747739e-01
0.000000e+00
1.000000e+00
5.747595e-01
5.759696e-01
5.776981e-01
5.794289e-01
5.810707e-01
5.824513e-01
5.833826e-01
5.837137e-01
5.833864e-01
5.824639e-01
5.811244e-01
5.795582e-01
5.778820e-01
5.761248e-01
5.742100e-01
0.000000e+00
1.000000e+00
5.742092e-01
5.749944e-01
5.761528e-01
5.773131e-01
5.784141e-01
5.793402e-01
5.799648e-01
5.801862e-01
5.799650e-01
5.793448e-01
5.784474e-01
5.774024e-01
5.763303e-01
5.751555e-01
5.735095e-01
0.000000e+00
1.000000e+00
5.735196e-01
5.737419e-01
5.741707e-01
5.745994e-01
5.750068e-01
5.753504e-01
5.755830e-01
5.756655e-01
5.755828e-01
5.753555e-01
5.750377e-01
5.746790e-01
5.743397e-01
5.739160e-01
5.729024e-01
0.000000e+00
1.000000e+00
5.727531e-01
5.722908e-01
5.718807e-01
5.714636e-01
5.710695e-01
5.707405e-01
5.705216e-01
5.704464e-01
5.705281e-01
5.707612e-01
5.711370e-01
5.715787e-01
5.720522e-01
5.724777e-01
5.721675e-01
0.000000e+00
1.000000e+00
5.647290e-01
5.562276e-01
5.467323e-01
5.370469e-01
5.278804e-01
5.202025e-01
5.150633e-01
5.132963e-01
5.152132e-01
5.204740e-01
5.282347e-01
5.375100e-01
5.471598e-01
5.568977e-01
5.636436e-01
0.000000e+00
1.000000e+00
5.654198e-01
5.579489e-01
5.494202e-01
5.407259e-01
5.324989e-01
5.256107e-01
5.210048e-01
5.194278e-01
5.211578e-01
5.258861e-01
5.328588e-01
5.412456e-01
5.498656e-01
5.588731e-01
5.632487e-01
0.000000e+00
1.000000e+00
5.664138e-01
5.599650e-01
5.525598e-01
5.450176e-01
5.378775e-01
5.318957e-01
5.278923e-01
5.265174e-01
5.280130e-01
5.321104e-01
5.381520e-01
5.455043e-01
5.529691e-01
5.609742e-01
5.636655e-01
0.000000e+00
1.000000e+00
5.675128e-01
5.621763e-01
5.560131e-01
5.497429e-01
5.438058e-01
5.388308e-01
5.354998e-01
5.343547e-01
5.355969e-01
5.390021e-01
5.440210e-01
5.501908e-01
5.563890e-01
5.630332e-01
5.649443e-01
0.000000e+00
1.000000e+00
5.687009e-01
5.645167e-01
5.596742e-01
5.547532e-01
5.500926e-01
5.461861e-01
5.435687e-01
5.426668e-01
5.436401e-01
5.463118e-01
5.502491e-01
5.551535e-01
5.600165e-01
5.651045e-01
5.668680e-01
0.000000e+00
1.000000e+00
5.698914e-01
5.668855e-01
5.633848e-01
5.598323e-01
5.564669e-01
5.536448e-01
5.517523e-01
5.510964e-01
5.517954e-01
5.537235e-01
5.565644e-01
5.601784e-01
5.636913e-01
5.672515e-01
5.688896e-01
0.000000e+00
1.000000e+00
5.710403e-01
5.691682e-01
5.669607e-01
5.647272e-01
5.626108e-01
5.608351e-01
5.596423e-01
5.592248e-01
5.596582e-01
5.608662e-01
5.626463e-01
5.650076e-01
5.672290e-01
5.694070e-01
5.707544e-01
0.000000e+00
1.000000e+00
5.721347e-01
5.712380e-01
5.702073e-01
5.691715e-01
5.681896e-01
5.673651e-01
5.668094e-01
5.666112e-01
5.668055e-01
5.673584e-01
5.681710e-01
5.693561e-01
5.704211e-01
5.714288e-01
5.717794e-01
0.000000e+00
1.000000e+00
5.730904e-01
5.729726e-01
5.729403e-01
5.729134e-01
5.728878e-01
5.728658e-01
5.728495e-01
5.728401e-01
5.728379e-01
5.728432e-01
5.728475e-01
5.729794e-01
5.730987e-01
5.731037e-01
5.726073e-01
0.000000e+00
1.000000e+00
5.737840e-01
5.742828e-01
5.750105e-01
5.757484e-01
5.764480e-01
5.770357e-01
5.774307e-01
5.775680e-01
5.774219e-01
5.770176e-01
5.764172e-01
5.757640e-01
5.751543e-01
5.743768e-01
5.737599e-01
0.000000e+00
1.000000e+00
5.742390e-01
5.751102e-01
5.763216e-01
5.775435e-01
5.787023e-01
5.796762e-01
5.803322e-01
5.805637e-01
5.803289e-01
5.796684e-01
5.786939e-01
5.775968e-01
5.764715e-01
5.752130e-01
5.741769e-01
0.000000e+00
1.000000e+00
5.744595e-01
5.754314e-01
5.768382e-01
5.782513e-01
5.795914e-01
5.807178e-01
5.814769e-01
5.817458e-01
5.814768e-01
5.807179e-01
5.796040e-01
5.783388e-01
5.769785e-01
5.755357e-01
5.741919e-01
0.000000e+00
1.000000e+00
5.743936e-01
5.752657e-01
5.765850e-01
5.779048e-01
5.791566e-01
5.802088e-01
5.809182e-01
5.811698e-01
5.809189e-01
5.802113e-01
5.791764e-01
5.779882e-01
5.767122e-01
5.753723e-01
5.741718e-01
0.000000e+00
1.000000e+00
5.740468e-01
5.746643e-01
5.756393e-01
5.766096e-01
5.775301e-01
5.783041e-01
5.788260e-01
5.790110e-01
5.788263e-01
5.783065e-01
5.775470e-01
5.766694e-01
5.757579e-01
5.747737e-01
5.736567e-01
0.000000e+00
1.000000e+00
5.734940e-01
5.736997e-01
5.741142e-01
5.745216e-01
5.749085e-01
5.752345e-01
5.754549e-01
5.755333e-01
5.754558e-01
5.752402e-01
5.749300e-01
5.745734e-01
5.742317e-01
5.738385e-01
5.727768e-01
0.000000e+00
1.000000e+00
5.728214e-01
5.724522e-01
5.721430e-01
5.718230e-01
5.715207e-01
5.712684e-01
5.711003e-01
5.710424e-01
5.711057e-01
5.712850e-01
5.715681e-01
5.719006e-01
5.722692e-01
5.726164e-01
5.721793e-01
0.000000e+00
1.000000e+00
5.720750e-01
5.710055e-01
5.698629e-01
5.687009e-01
5.676009e-01
5.666800e-01
5.660642e-01
5.658516e-01
5.660813e-01
5.667188e-01
5.676918e-01
5.688134e-01
5.700164e-01
5.711727e-01
5.716147e-01
0.000000e+00
1.000000e+00
5.640856e-01
5.548543e-01
5.445824e-01
5.341039e-01
5.241872e-01
5.158813e-01
5.103222e-01
5.084113e-01
5.104852e-01
5.161798e-01
5.245899e-01
5.345405e-01
5.450327e-01
5.555977e-01
5.629334e-01
0.000000e+00
1.000000e+00
5.647305e-01
5.564560e-01
5.470906e-01
5.375369e-01
5.284979e-01
5.209306e-01
5.158706e-01
5.141382e-01
5.160382e-01
5.212353e-01
5.289070e-01
5.380505e-01
5.475549e-01
5.573648e-01
5.631471e-01
0.000000e+00
1.000000e+00
5.656708e-01
5.583854e-01
5.500978e-01
5.416477e-01
5.336487e-01
5.269487e-01
5.224657e-01
5.209264e-01
5.226020e-01
5.271933e-01
5.339652e-01
5.421536e-01
5.505194e-01
5.592833e-01
5.636663e-01
0.000000e+00
1.000000e+00
5.667201e-01
5.605493e-01
5.534766e-01
5.462712e-01
5.394493e-01
5.337334e-01
5.299075e-01
5.285923e-01
5.300197e-01
5.339330e-01
5.396980e-01
5.467396e-01
5.538569e-01
5.612555e-01
5.647007e-01
0.000000e+00
1.000000e+00
5.678911e-01
5.628835e-01
5.571237e-01
5.512619e-01
5.457107e-01
5.410580e-01
5.379418e-01
5.368686e-01
5.380278e-01
5.412098e-01
5.458956e-01
5.516735e-01
5.574589e-01
5.633234e-01
5.665925e-01
0.000000e+00
1.000000e+00
5.690969e-01
5.652818e-01
5.608770e-01
5.563988e-01
5.521567e-01
5.485996e-01
5.462150e-01
5.453904e-01
5.462732e-01
5.487032e-01
5.522813e-01
5.567442e-01
5.611648e-01
5.655523e-01
5.683590e-01
0.000000e+00
1.000000e+00
5.702741e-01
5.676223e-01
5.645421e-01
5.614157e-01
5.584531e-01
5.559675e-01
5.542989e-01
5.537175e-01
5.543289e-01
5.560237e-01
5.585199e-01
5.616931e-01
5.647863e-01
5.678169e-01
5.699805e-01
0.000000e+00
1.000000e+00
5.713862e-01
5.697716e-01
5.679097e-01
5.660255e-01
5.642394e-01
5.627397e-01
5.617306e-01
5.613750e-01
5.617369e-01
5.627531e-01
5.642506e-01
5.662249e-01
5.681082e-01
5.699394e-01
5.710221e-01
0.000000e+00
1.000000e+00
5.723753e-01
5.715969e-01
5.707787e-01
5.699532e-01
5.691703e-01
5.685121e-01
5.680676e-01
5.679078e-01
5.680602e-01
5.684984e-01
5.691420e-01
5.700609e-01
5.709254e-01
5.716935e-01
5.718500e-01
0.000000e+00
1.000000e+00
5.731198e-01
5.729934e-01
5.729821e-01
5.729704e-01
5.729591e-01
5.729489e-01
5.729407e-01
5.729348e-01
5.729309e-01
5.729294e-01
5.729248e-01
5.729891e-01
5.730753e-01
5.730323e-01
5.730696e-01
0.000000e+00
1.000000e+00
5.735917e-01
5.738964e-01
5.744097e-01
5.749252e-01
5.754140e-01
5.758244e-01
5.761003e-01
5.761963e-01
5.760944e-01
5.758120e-01
5.753937e-01
5.749281e-01
5.744879e-01
5.739509e-01
5.736156e-01
0.000000e+00
1.000000e+00
5.738298e-01
5.742758e-01
5.750174e-01
5.757574e-01
5.764592e-01
5.770489e-01
5.774461e-01
5.775862e-01
5.774441e-01
5.770447e-01
5.764545e-01
5.757807e-01
5.750880e-01
5.743391e-01
5.736318e-01
0.000000e+00
1.000000e+00
5.737940e-01
5.741497e-01
5.748285e-01
5.754992e-01
5.761354e-01
5.766700e-01
5.770303e-01
5.771578e-01
5.770298e-01
5.766695e-01
5.761383e-01
5.755255e-01
5.748904e-01
5.742148e-01
5.736554e-01
0.000000e+00
1.000000e+00
5.734868e-01
5.735731e-01
5.739240e-01
5.742609e-01
5.745805e-01
5.748493e-01
5.750305e-01
5.750947e-01
5.750303e-01
5.748505e-01
5.745879e-01
5.742844e-01
5.739883e-01
5.736441e-01
5.731879e-01
0.000000e+00
1.000000e+00
5.729440e-01
5.726207e-01
5.724235e-01
5.722065e-01
5.720014e-01
5.718298e-01
5.717149e-01
5.716749e-01
5.717173e-01
5.718376e-01
5.720255e-01
5.722432e-01
5.724997e-01
5.727359e-01
5.722634e-01
0.000000e+00
1.000000e+00
5.722603e-01
5.713802e-01
5.704661e-01
5.695272e-01
5.686384e-01
5.678936e-01
5.673943e-01
5.672206e-01
5.674041e-01
5.679168e-01
5.686971e-01
5.695979e-01
5.705734e-01
5.715303e-01
5.716269e-01
0.000000e+00
1.000000e+00
5.715107e-01
5.699396e-01
5.681972e-01
5.664205e-01
5.647387e-01
5.633300e-01
5.623866e-01
5.620596e-01
5.624076e-01
5.633758e-01
5.648378e-01
5.665235e-01
5.683383e-01
5.700861e-01
5.710977e-01
0.000000e+00
1.000000e+00
5.636030e-01
5.538358e-01
5.429967e-01
5.319341e-01
5.214654e-01
5.126985e-01
5.068321e-01
5.048171e-01
5.070085e-01
5.130244e-01
5.218989e-01
5.323759e-01
5.434688e-01
5.545702e-01
5.624883e-01
0.000000e+00
1.000000e+00
5.642095e-01
5.553255e-01
5.453294e-01
5.351266e-01
5.254741e-01
5.173940e-01
5.119918e-01
5.101427e-01
5.121716e-01
5.177243e-01
5.259209e-01
5.356163e-01
5.458044e-01
5.561101e-01
5.629407e-01
0.000000e+00
1.000000e+00
5.651223e-01
5.571683e-01
5.482011e-01
5.390510e-01
5.303910e-01
5.231386e-01
5.182868e-01
5.166223e-01
5.184371e-01
5.234110e-01
5.307537e-01
5.395447e-01
5.486373e-01
5.578951e-01
5.635895e-01
0.000000e+00
1.000000e+00
5.661317e-01
5.592776e-01
5.514978e-01
5.435626e-01
5.360503e-01
5.297574e-01
5.255462e-01
5.240995e-01
5.256722e-01
5.299838e-01
5.363404e-01
5.440401e-01
5.518882e-01
5.598541e-01
5.645379e-01
0.000000e+00
1.000000e+00
5.672598e-01
5.615963e-01
5.551197e-01
5.485190e-01
5.422687e-01
5.370308e-01
5.335236e-01
5.323166e-01
5.336225e-01
5.372070e-01
5.424880e-01
5.489451e-01
5.554603e-01
5.619545e-01
5.663238e-01
0.000000e+00
1.000000e+00
5.684706e-01
5.640179e-01
5.589041e-01
5.536981e-01
5.487670e-01
5.446327e-01
5.418619e-01
5.409052e-01
5.419324e-01
5.447577e-01
5.489196e-01
5.540547e-01
5.591939e-01
5.642564e-01
5.680274e-01
0.000000e+00
1.000000e+00
5.696793e-01
5.664100e-01
5.626476e-01
5.588219e-01
5.551969e-01
5.521558e-01
5.501152e-01
5.494063e-01
5.501569e-01
5.522317e-01
5.552885e-01
5.591048e-01
5.628909e-01
5.666070e-01
5.695278e-01
0.000000e+00
1.000000e+00
5.708060e-01
5.686314e-01
5.661265e-01
5.635841e-01
5.611741e-01
5.591508e-01
5.577906e-01
5.573135e-01
5.578062e-01
5.591813e-01
5.612095e-01
5.637871e-01
5.663170e-01
5.688087e-01
5.704561e-01
0.000000e+00
1.000000e+00
5.718114e-01
5.705419e-01
5.691231e-01
5.676863e-01
5.663238e-01
5.651788e-01
5.644071e-01
5.641329e-01
5.644052e-01
5.651761e-01
5.663134e-01
5.678002e-01
5.692602e-01
5.706377e-01
5.712672e-01
0.000000e+00
1.000000e+00
5.726142e-01
5.720217e-01
5.714534e-01
5.708770e-01
5.703300e-01
5.698697e-01
5.695584e-01
5.694456e-01
5.695504e-01
5.698541e-01
5.702998e-01
5.709089e-01
5.715330e-01
5.720295e-01
5.725552e-01
0.000000e+00
1.000000e+00
5.731324e-01
5.729961e-01
5.729929e-01
5.729850e-01
5.729773e-01
5.729704e-01
5.729649e-01
5.729613e-01
5.729592e-01
5.729582e-01
5.729544e-01
5.729717e-01
5.730274e-01
5.730104e-01
5.731944e-01
0.000000e+00
1.000000e+00
5.733867e-01
5.734333e-01
5.736894e-01
5.739386e-01
5.741748e-01
5.743732e-01
5.745066e-01
5.745534e-01
5.745048e-01
5.743688e-01
5.741655e-01
5.739326e-01
5.737077e-01
5.734598e-01
5.732546e-01
0.000000e+00
1.000000e+00
5.733732e-01
5.733451e-01
5.735630e-01
5.737657e-01
5.739579e-01
5.741195e-01
5.742283e-01
5.742669e-01
5.742284e-01
5.741196e-01
5.739563e-01
5.737657e-01
5.735777e-01
5.733761e-01
5.732931e-01
0.000000e+00
1.000000e+00
5.730862e-01
5.727900e-01
5.726962e-01
5.725792e-01
5.724685e-01
5.723757e-01
5.723133e-01
5.722914e-01
5.723142e-01
5.723789e-01
5.724745e-01
5.725843e-01
5.727176e-01
5.728263e-01
5.728937e-01
0.000000e+00
1.000000e+00
5.725826e-01
5.718488e-01
5.712158e-01
5.705528e-01
5.699248e-01
5.693976e-01
5.690432e-01
5.689188e-01
5.690471e-01
5.694094e-01
5.699519e-01
5.705782e-01
5.712628e-01
5.719376e-01
5.719437e-01
0.000000e+00
1.000000e+00
5.718961e-01
5.706114e-01
5.692693e-01
5.678884e-01
5.665805e-01
5.654834e-01
5.647466e-01
5.644889e-01
5.647569e-01
5.655115e-01
5.666396e-01
5.679459e-01
5.693583e-01
5.707430e-01
5.712541e-01
0.000000e+00
1.000000e+00
5.711171e-01
5.691704e-01
5.670064e-01
5.647907e-01
5.626928e-01
5.609343e-01
5.597544e-01
5.593432e-01
5.597751e-01
5.609861e-01
5.627899e-01
5.648794e-01
5.671216e-01
5.693075e-01
5.707175e-01
0.000000e+00
1.000000e+00
5.633440e-01
5.532515e-01
5.420916e-01
5.306952e-01
5.199122e-01
5.108836e-01
5.048438e-01
5.027711e-01
5.050309e-01
5.112322e-01
5.203531e-01
5.311821e-01
5.425961e-01
5.539384e-01
5.622168e-01
0.000000e+00
1.000000e+00
5.639052e-01
5.546402e-01
5.442656e-01
5.336708e-01
5.236482e-01
5.152590e-01
5.096507e-01
5.077319e-01
5.098394e-01
5.156080e-01
5.241033e-01
5.341830e-01
5.447441e-01
5.552726e-01
5.629280e-01
0.000000e+00
1.000000e+00
5.647820e-01
5.564045e-01
5.470116e-01
5.374226e-01
5.283486e-01
5.207510e-01
5.156695e-01
5.139276e-01
5.158308e-01
5.210460e-01
5.287412e-01
5.379055e-01
5.474433e-01
5.569531e-01
5.638036e-01
0.000000e+00
1.000000e+00
5.657788e-01
5.584647e-01
5.502314e-01
5.418285e-01
5.338745e-01
5.272129e-01
5.227562e-01
5.212266e-01
5.228934e-01
5.274615e-01
5.342052e-01
5.422877e-01
5.506175e-01
5.589195e-01
5.646706e-01
0.000000e+00
1.000000e+00
5.668878e-01
5.607655e-01
5.538270e-01
5.467493e-01
5.400481e-01
5.344331e-01
5.306748e-01
5.293826e-01
5.307842e-01
5.346301e-01
5.403091e-01
5.471661e-01
5.541613e-01
5.610747e-01
5.663259e-01
0.000000e+00
1.000000e+00
5.680876e-01
5.632033e-01
5.576364e-01
5.519628e-01
5.465893e-01
5.420847e-01
5.390668e-01
5.380261e-01
5.391468e-01
5.422276e-01
5.467801e-01
5.523175e-01
5.579170e-01
5.634498e-01
5.678256e-01
0.000000e+00
1.000000e+00
5.693045e-01
5.656413e-01
5.614494e-01
5.571818e-01
5.531383e-01
5.497467e-01
5.474716e-01
5.466827e-01
5.475217e-01
5.498374e-01
5.532626e-01
5.574659e-01
5.616834e-01
5.658777e-01
5.690556e-01
0.000000e+00
1.000000e+00
5.704572e-01
5.679291e-01
5.650298e-01
5.620827e-01
5.592893e-01
5.569443e-01
5.553686e-01
5.548174e-01
5.553906e-01
5.569864e-01
5.593508e-01
5.622949e-01
5.652168e-01
5.681445e-01
5.699204e-01
0.000000e+00
1.000000e+00
5.714932e-01
5.699159e-01
5.681430e-01
5.663446e-01
5.646391e-01
5.632062e-01
5.622409e-01
5.618995e-01
5.622425e-01
5.632100e-01
5.646449e-01
5.664676e-01
5.682761e-01
5.700380e-01
5.708328e-01
0.000000e+00
1.000000e+00
5.723322e-01
5.714712e-01
5.705888e-01
5.696932e-01
5.688435e-01
5.681289e-01
5.676462e-01
5.674730e-01
5.676392e-01
5.681150e-01
5.688183e-01
5.697350e-01
5.706680e-01
5.714885e-01
5.721433e-01
0.000000e+00
1.000000e+00
5.728908e-01
5.725106e-01
5.722290e-01
5.719391e-01
5.716639e-01
5.714321e-01
5.712751e-01
5.712176e-01
5.712690e-01
5.714192e-01
5.716393e-01
5.719242e-01
5.722513e-01
5.725107e-01
5.728876e-01
0.000000e+00
1.000000e+00
5.731753e-01
5.729984e-01
5.730033e-01
5.729993e-01
5.729953e-01
5.729917e-01
5.729890e-01
5.729874e-01
5.729867e-01
5.729860e-01
5.729832e-01
5.729839e-01
5.730013e-01
5.729988e-01
5.730614e-01
0.000000e+00
1.000000e+00
5.731888e-01
5.729451e-01
5.729303e-01
5.728992e-01
5.728695e-01
5.728444e-01
5.728273e-01
5.728211e-01
5.728267e-01
5.728423e-01
5.728635e-01
5.728890e-01
5.729209e-01
5.729524e-01
5.731251e-01
0.000000e+00
1.000000e+00
5.729180e-01
5.724071e-01
5.720944e-01
5.717545e-01
5.714321e-01
5.711613e-01
5.709787e-01
5.709141e-01
5.709789e-01
5.711618e-01
5.714308e-01
5.717478e-01
5.720946e-01
5.724218e-01
5.728203e-01
0.000000e+00
1.000000e+00
5.724156e-01
5.714708e-01
5.706251e-01
5.697432e-01
5.689074e-01
5.682057e-01
5.677336e-01
5.675675e-01
5.677376e-01
5.682166e-01
5.689247e-01
5.697564e-01
5.706584e-01
5.715319e-01
5.718638e-01
0.000000e+00
1.000000e+00
5.717573e-01
5.702310e-01
5.686763e-01
5.670756e-01
5.655592e-01
5.642868e-01
5.634320e-01
5.631329e-01
5.634442e-01
5.643186e-01
5.656090e-01
5.671197e-01
5.687459e-01
5.703410e-01
5.711835e-01
0.000000e+00
1.000000e+00
5.709867e-01
5.687837e-01
5.664059e-01
5.639680e-01
5.616593e-01
5.597228e-01
5.584230e-01
5.579706e-01
5.584475e-01
5.597818e-01
5.617497e-01
5.640452e-01
5.665032e-01
5.689126e-01
5.705403e-01
0.000000e+00
1.000000e+00
5.633266e-01
5.531605e-01
5.419528e-01
5.305037e-01
5.196729e-01
5.106065e-01
5.045433e-01
5.024651e-01
5.047378e-01
5.109712e-01
5.201156e-01
5.310446e-01
5.424360e-01
5.537472e-01
5.624220e-01
0.000000e+00
1.000000e+00
5.638538e-01
5.544675e-01
5.440005e-01
5.333071e-01
5.231919e-01
5.147262e-01
5.090677e-01
5.071328e-01
5.092611e-01
5.150858e-01
5.236395e-01
5.338781e-01
5.444447e-01
5.549139e-01
5.633511e-01
0.000000e+00
1.000000e+00
5.646782e-01
5.561665e-01
5.466439e-01
5.369196e-01
5.277185e-01
5.200159e-01
5.148656e-01
5.131019e-01
5.150341e-01
5.203259e-01
5.281166e-01
5.374401e-01
5.470461e-01
5.565588e-01
5.642355e-01
0.000000e+00
1.000000e+00
5.656653e-01
5.581907e-01
5.498040e-01
5.412429e-01
5.331402e-01
5.263550e-01
5.218173e-01
5.202617e-01
5.219620e-01
5.266191e-01
5.334897e-01
5.417093e-01
5.501759e-01
5.585587e-01
5.650517e-01
0.000000e+00
1.000000e+00
5.667802e-01
5.604807e-01
5.533829e-01
5.461407e-01
5.392843e-01
5.335403e-01
5.296970e-01
5.283772e-01
5.298136e-01
5.337518e-01
5.395729e-01
5.465536e-01
5.537137e-01
5.608005e-01
5.663112e-01
0.000000e+00
1.000000e+00
5.679770e-01
5.629338e-01
5.572183e-01
5.513902e-01
5.458707e-01
5.412445e-01
5.381462e-01
5.370794e-01
5.382324e-01
5.413997e-01
5.460913e-01
5.517451e-01
5.575073e-01
5.632408e-01
5.675042e-01
0.000000e+00
1.000000e+00
5.691948e-01
5.654130e-01
5.610952e-01
5.566970e-01
5.525300e-01
5.490353e-01
5.466918e-01
5.458805e-01
5.467466e-01
5.491350e-01
5.526806e-01
5.569902e-01
5.613454e-01
5.657122e-01
5.686724e-01
0.000000e+00
1.000000e+00
5.703749e-01
5.677607e-01
5.647668e-01
5.617226e-01
5.588373e-01
5.564157e-01
5.547889e-01
5.542206e-01
5.548133e-01
5.564627e-01
5.589182e-01
5.619530e-01
5.649717e-01
5.680314e-01
5.695772e-01
0.000000e+00
1.000000e+00
5.714556e-01
5.698144e-01
5.679833e-01
5.661259e-01
5.643646e-01
5.628849e-01
5.618883e-01
5.615359e-01
5.618902e-01
5.628892e-01
5.643794e-01
5.662745e-01
5.681300e-01
5.699805e-01
5.705472e-01
0.000000e+00
1.000000e+00
5.723285e-01
5.714334e-01
5.705292e-01
5.696116e-01
5.687411e-01
5.680090e-01
5.675143e-01
5.673366e-01
5.675062e-01
5.679927e-01
5.687157e-01
5.696757e-01
5.706106e-01
5.714800e-01
5.719567e-01
0.000000e+00
1.000000e+00
5.729132e-01
5.725265e-01
5.722535e-01
5.719729e-01
5.717066e-01
5.714822e-01
5.713299e-01
5.712738e-01
5.713226e-01
5.714669e-01
5.716792e-01
5.719688e-01
5.722811e-01
5.725425e-01
5.727783e-01
0.000000e+00
1.000000e+00
5.732209e-01
5.730534e-01
5.730883e-01
5.731161e-01
5.731424e-01
5.731642e-01
5.731786e-01
5.731829e-01
5.731758e-01
5.731578e-01
5.731302e-01
5.731045e-01
5.730920e-01
5.730557e-01
5.730075e-01
0.000000e+00
1.000000e+00
5.732559e-01
5.730238e-01
5.730500e-01
5.730638e-01
5.730767e-01
5.730874e-01
5.730946e-01
5.730969e-01
5.730938e-01
5.730859e-01
5.730728e-01
5.730567e-01
5.730432e-01
5.730245e-01
5.731729e-01
0.000000e+00
1.000000e+00
5.730231e-01
5.724953e-01
5.722262e-01
5.719357e-01
5.716601e-01
5.714284e-01
5.712722e-01
5.712167e-01
5.712722e-01
5.714288e-01
5.716591e-01
5.719308e-01
5.722272e-01
5.725115e-01
5.729600e-01
0.000000e+00
1.000000e+00
5.725598e-01
5.715573e-01
5.707524e-01
5.699182e-01
5.691276e-01
5.684636e-01
5.680166e-01
5.678589e-01
5.680191e-01
5.684714e-01
5.691398e-01
5.699288e-01
5.707825e-01
5.716110e-01
5.720226e-01
0.000000e+00
1.000000e+00
5.719408e-01
5.703099e-01
5.687858e-01
5.672261e-01
5.657482e-01
5.645080e-01
5.636745e-01
5.633824e-01
5.636848e-01
5.645357e-01
5.657899e-01
5.672647e-01
5.688512e-01
5.703871e-01
5.714858e-01
0.000000e+00
1.000000e+00
5.712849e-01
5.688530e-01
5.664881e-01
5.640810e-01
5.618011e-01
5.598888e-01
5.586056e-01
5.581590e-01
5.586297e-01
5.599462e-01
5.618846e-01
5.641510e-01
5.665784e-01
5.689256e-01
5.706946e-01
0.000000e+00
1.000000e+00
5.635306e-01
5.535897e-01
5.426229e-01
5.314186e-01
5.208217e-01
5.119532e-01
5.060248e-01
5.039957e-01
5.062229e-01
5.123269e-01
5.212695e-01
5.319938e-01
5.430516e-01
5.540489e-01
5.631465e-01
0.000000e+00
1.000000e+00
5.640523e-01
5.548444e-01
5.445898e-01
5.341117e-01
5.242005e-01
5.159066e-01
5.103641e-01
5.084706e-01
5.105580e-01
5.162681e-01
5.246430e-01
5.347130e-01
5.449635e-01
5.551644e-01
5.639413e-01
0.000000e+00
1.000000e+00
5.648404e-01
5.564991e-01
5.471666e-01
5.376350e-01
5.286169e-01
5.210684e-01
5.160228e-01
5.142973e-01
5.161942e-01
5.213847e-01
5.290143e-01
5.381894e-01
5.475168e-01
5.568070e-01
5.647525e-01
0.000000e+00
1.000000e+00
5.658079e-01
5.585024e-01
5.502934e-01
5.419129e-01
5.339813e-01
5.273405e-01
5.229007e-01
5.213809e-01
5.230486e-01
5.276115e-01
5.343357e-01
5.424031e-01
5.506305e-01
5.588308e-01
5.655768e-01
0.000000e+00
1.000000e+00
5.669175e-01
5.607940e-01
5.538726e-01
5.468109e-01
5.401256e-01
5.345256e-01
5.307800e-01
5.294959e-01
5.308994e-01
5.347435e-01
5.404252e-01
5.472406e-01
5.541973e-01
5.611569e-01
5.664419e-01
0.000000e+00
1.000000e+00
5.681414e-01
5.632696e-01
5.577413e-01
5.521059e-01
5.467691e-01
5.422966e-01
5.393022e-01
5.382729e-01
5.393904e-01
5.424563e-01
5.470040e-01
5.524821e-01
5.580461e-01
5.636437e-01
5.674159e-01
0.000000e+00
1.000000e+00
5.693849e-01
5.657868e-01
5.616795e-01
5.574968e-01
5.535341e-01
5.502112e-01
5.479836e-01
5.472132e-01
5.480384e-01
5.503119e-01
5.536981e-01
5.578218e-01
5.619515e-01
5.661409e-01
5.686719e-01
0.000000e+00
1.000000e+00
5.705774e-01
5.681856e-01
5.654314e-01
5.626325e-01
5.599800e-01
5.577541e-01
5.562589e-01
5.557363e-01
5.562808e-01
5.577968e-01
5.600679e-01
5.629008e-01
5.656542e-01
5.685096e-01
5.695891e-01
0.000000e+00
1.000000e+00
5.716873e-01
5.702962e-01
5.687356e-01
5.671559e-01
5.656579e-01
5.643996e-01
5.635517e-01
5.632506e-01
5.635496e-01
5.643958e-01
5.656686e-01
5.673406e-01
5.688997e-01
5.705165e-01
5.705883e-01
0.000000e+00
1.000000e+00
5.725993e-01
5.719667e-01
5.713631e-01
5.707534e-01
5.701749e-01
5.696880e-01
5.693582e-01
5.692378e-01
5.693466e-01
5.696642e-01
5.701401e-01
5.708350e-01
5.714637e-01
5.720659e-01
5.720684e-01
0.000000e+00
1.000000e+00
5.732107e-01
5.730994e-01
5.731522e-01
5.732035e-01
5.732519e-01
5.732920e-01
5.733177e-01
5.733241e-01
5.733086e-01
5.732728e-01
5.732201e-01
5.732087e-01
5.732093e-01
5.731575e-01
5.729283e-01
0.000000e+00
1.000000e+00
5.735249e-01
5.736518e-01
5.740288e-01
5.744037e-01
5.747591e-01
5.750576e-01
5.752584e-01
5.753288e-01
5.752555e-01
5.750509e-01
5.747486e-01
5.744055e-01
5.740644e-01
5.736860e-01
5.731628e-01
0.000000e+00
1.000000e+00
5.735607e-01
5.736312e-01
5.740069e-01
5.743736e-01
5.747213e-01
5.750136e-01
5.752107e-01
5.752808e-01
5.752113e-01
5.750141e-01
5.747212e-01
5.743777e-01
5.740261e-01
5.736542e-01
5.734401e-01
0.000000e+00
1.000000e+00
5.733103e-01
5.730951e-01
5.731754e-01
5.732349e-01
5.732913e-01
5.733386e-01
5.733706e-01
5.733821e-01
5.733712e-01
5.733397e-01
5.732910e-01
5.732324e-01
5.731879e-01
5.731233e-01
5.732545e-01
0.000000e+00
1.000000e+00
5.727859e-01
5.721369e-01
5.716730e-01
5.711777e-01
5.707085e-01
5.703144e-01
5.700489e-01
5.699550e-01
5.700498e-01
5.703195e-01
5.707189e-01
5.711856e-01
5.717044e-01
5.721832e-01
5.723190e-01
0.000000e+00
1.000000e+00
5.720988e-01
5.708617e-01
5.696629e-01
5.684264e-01
5.672550e-01
5.662720e-01
5.656112e-01
5.653792e-01
5.656184e-01
5.662942e-01
5.672964e-01
5.684653e-01
5.697377e-01
5.709106e-01
5.720535e-01
0.000000e+00
1.000000e+00
5.713141e-01
5.693681e-01
5.673155e-01
5.652131e-01
5.632221e-01
5.615525e-01
5.604318e-01
5.600407e-01
5.604504e-01
5.616006e-01
5.633011e-01
5.652795e-01
5.674131e-01
5.694046e-01
5.711787e-01
0.000000e+00
1.000000e+00
5.639327e-01
5.545297e-01
5.440922e-01
5.334280e-01
5.233429e-01
5.149047e-01
5.092663e-01
5.073400e-01
5.094637e-01
5.152776e-01
5.237900e-01
5.339980e-01
5.444998e-01
5.549822e-01
5.637539e-01
0.000000e+00
1.000000e+00
5.644835e-01
5.557680e-01
5.460302e-01
5.360809e-01
5.266697e-01
5.187948e-01
5.135338e-01
5.117387e-01
5.137236e-01
5.191487e-01
5.271047e-01
5.366608e-01
5.463903e-01
5.560677e-01
5.644906e-01
0.000000e+00
1.000000e+00
5.652583e-01
5.574067e-01
5.485843e-01
5.395750e-01
5.310510e-01
5.239168e-01
5.191499e-01
5.175224e-01
5.193193e-01
5.242298e-01
5.314463e-01
5.401190e-01
5.489203e-01
5.576993e-01
5.652928e-01
0.000000e+00
1.000000e+00
5.662270e-01
5.594099e-01
5.517108e-01
5.438528e-01
5.364157e-01
5.301894e-01
5.260282e-01
5.246064e-01
5.261740e-01
5.304575e-01
5.367695e-01
5.443435e-01
5.520339e-01
5.597293e-01
5.662151e-01
0.000000e+00
1.000000e+00
5.673416e-01
5.617156e-01
5.553111e-01
5.487802e-01
5.425971e-01
5.374184e-01
5.339553e-01
5.327708e-01
5.340724e-01
5.376323e-01
5.428991e-01
5.492224e-01
5.556393e-01
5.621188e-01
5.669400e-01
0.000000e+00
1.000000e+00
5.685917e-01
5.642189e-01
5.592221e-01
5.541330e-01
5.493136e-01
5.452751e-01
5.425718e-01
5.416442e-01
5.426563e-01
5.454289e-01
5.495534e-01
5.545352e-01
5.595454e-01
5.646687e-01
5.677375e-01
0.000000e+00
1.000000e+00
5.698638e-01
5.667725e-01
5.632191e-01
5.596045e-01
5.561804e-01
5.533095e-01
5.513852e-01
5.507197e-01
5.514331e-01
5.533993e-01
5.563472e-01
5.599691e-01
5.635168e-01
5.672030e-01
5.689583e-01
0.000000e+00
1.000000e+00
5.710688e-01
5.692143e-01
5.670394e-01
5.648343e-01
5.627449e-01
5.609916e-01
5.598137e-01
5.594006e-01
5.598267e-01
5.610171e-01
5.628215e-01
5.651450e-01
5.672969e-01
5.696110e-01
5.698968e-01
0.000000e+00
1.000000e+00
5.722065e-01
5.713694e-01
5.704132e-01
5.694528e-01
5.685422e-01
5.677771e-01
5.672606e-01
5.670744e-01
5.672505e-01
5.677560e-01
5.685295e-01
5.696618e-01
5.706114e-01
5.716630e-01
5.709174e-01
0.000000e+00
1.000000e+00
5.731626e-01
5.730761e-01
5.731006e-01
5.731326e-01
5.731626e-01
5.731868e-01
5.732010e-01
5.732008e-01
5.731842e-01
5.731520e-01
5.731120e-01
5.732030e-01
5.732423e-01
5.732419e-01
5.723358e-01
0.000000e+00
1.000000e+00
5.737969e-01
5.742325e-01
5.749320e-01
5.756406e-01
5.763123e-01
5.768763e-01
5.772549e-01
5.773856e-01
5.772432e-01
5.768526e-01
5.762822e-01
5.756648e-01
5.750501e-01
5.743403e-01
5.733013e-01
0.000000e+00
1.000000e+00
5.741169e-01
5.747945e-01
5.758284e-01
5.768676e-01
5.778531e-01
5.786812e-01
5.792387e-01
5.794350e-01
5.792343e-01
5.786734e-01
5.778566e-01
5.769146e-01
5.759292e-01
5.748800e-01
5.736101e-01
0.000000e+00
1.000000e+00
5.741503e-01
5.747658e-01
5.758012e-01
5.768304e-01
5.778066e-01
5.786270e-01
5.791799e-01
5.793758e-01
5.791799e-01
5.786281e-01
5.778227e-01
5.768776e-01
5.758804e-01
5.748401e-01
5.738513e-01
0.000000e+00
1.000000e+00
5.738538e-01
5.742091e-01
5.749394e-01
5.756506e-01
5.763251e-01
5.768920e-01
5.772739e-01
5.774090e-01
5.772736e-01
5.768933e-01
5.763357e-01
5.756775e-01
5.750049e-01
5.742900e-01
5.737485e-01
0.000000e+00
1.000000e+00
5.732995e-01
5.732260e-01
5.733868e-01
5.735251e-01
5.736565e-01
5.737671e-01
5.738416e-01
5.738675e-01
5.738405e-01
5.737691e-01
5.736678e-01
5.735449e-01
5.734503e-01
5.733020e-01
5.727873e-01
0.000000e+00
1.000000e+00
5.726083e-01
5.719141e-01
5.713150e-01
5.706888e-01
5.700961e-01
5.695991e-01
5.692654e-01