<?xml version="1.0"?>
<VTKFile type="StructuredGrid" version="0.1">
  <StructuredGrid WholeExtent="0 16 0 16 0 16">
    <Piece Extent="0 16 0 16 0 16">
      <PointData Scalars="temperature" Vectors="velocity">
        <DataArray type="Float32" Name="temperature" format="ascii">
1.000000e+00
5.657638e-01
5.579516e-01
5.494402e-01
5.407441e-01
5.325019e-01
5.255811e-01
5.209251e-01
5.192878e-01
5.209583e-01
5.256414e-01
5.325796e-01
5.408459e-01
5.495430e-01
5.580847e-01
5.655466e-01
0.000000e+00
1.000000e+00
5.666404e-01
5.597924e-01
5.523156e-01
5.446799e-01
5.374425e-01
5.313655e-01
5.272773e-01
5.258399e-01
5.273073e-01
5.314201e-01
5.375145e-01
5.447839e-01
5.524165e-01
5.599474e-01
5.662274e-01
0.000000e+00
1.000000e+00
5.676403e-01
5.618603e-01
5.555515e-01
5.491095e-01
5.430030e-01
5.378750e-01
5.344245e-01
5.332105e-01
5.344474e-01
5.379166e-01
5.430571e-01
5.492047e-01
5.556490e-01
5.620829e-01
5.669567e-01
0.000000e+00
1.000000e+00
5.687152e-01
5.640963e-01
5.590521e-01
5.539022e-01
5.490204e-01
5.449207e-01
5.421620e-01
5.411913e-01
5.421800e-01
5.449534e-01
5.490612e-01
5.539903e-01
5.591453e-01
5.643496e-01
5.678502e-01
0.000000e+00
1.000000e+00
5.698368e-01
5.664262e-01
5.626998e-01
5.588962e-01
5.552906e-01
5.522625e-01
5.502247e-01
5.495072e-01
5.502371e-01
5.522855e-01
5.553173e-01
5.589757e-01
5.627868e-01
5.666485e-01
5.689916e-01
0.000000e+00
1.000000e+00
5.709597e-01
5.687522e-01
5.663415e-01
5.638821e-01
5.615507e-01
5.595927e-01
5.582747e-01
5.578099e-01
5.582811e-01
5.596055e-01
5.615632e-01
5.639508e-01
5.664215e-01
5.689210e-01
5.702307e-01
0.000000e+00
1.000000e+00
5.720335e-01
5.709629e-01
5.698036e-01
5.686222e-01
5.675022e-01
5.665615e-01
5.659280e-01
5.657037e-01
5.659286e-01
5.665634e-01
5.674992e-01
5.686736e-01
5.698779e-01
5.710735e-01
5.715847e-01
0.000000e+00
1.000000e+00
5.730026e-01
5.729434e-01
5.729070e-01
5.728713e-01
5.728375e-01
5.728090e-01
5.727896e-01
5.727817e-01
5.727864e-01
5.728026e-01
5.728239e-01
5.728900e-01
5.729662e-01
5.730168e-01
5.727054e-01
0.000000e+00
1.000000e+00
5.738148e-01
5.745882e-01
5.754868e-01
5.764037e-01
5.772731e-01
5.780036e-01
5.784954e-01
5.786685e-01
5.784917e-01
5.779963e-01
5.772605e-01
5.764032e-01
5.755386e-01
5.746401e-01
5.735697e-01
0.000000e+00
1.000000e+00
5.744202e-01
5.758141e-01
5.774113e-01
5.790388e-01
5.805822e-01
5.818793e-01
5.827532e-01
5.830622e-01
5.827516e-01
5.818760e-01
5.805771e-01
5.790513e-01
5.774698e-01
5.758567e-01
5.742769e-01
0.000000e+00
1.000000e+00
5.747941e-01
5.765685e-01
5.785974e-01
5.806628e-01
5.826215e-01
5.842676e-01
5.853770e-01
5.857701e-01
5.853777e-01
5.842692e-01
5.826269e-01
5.806965e-01
5.786550e-01
5.766080e-01
5.747141e-01
0.000000e+00
1.000000e+00
5.749255e-01
5.768355e-01
5.790175e-01
5.812381e-01
5.833440e-01
5.851138e-01
5.863065e-01
5.867294e-01
5.863085e-01
5.851182e-01
5.833569e-01
5.812796e-01
5.790693e-01
5.768730e-01
5.748637e-01
0.000000e+00
1.000000e+00
5.748280e-01
5.766318e-01
5.786980e-01
5.808007e-01
5.827947e-01
5.844706e-01
5.856001e-01
5.860006e-01
5.856019e-01
5.844752e-01
5.828090e-01
5.808401e-01
5.787468e-01
5.766718e-01
5.747449e-01
0.000000e+00
1.000000e+00
5.745195e-01
5.760031e-01
5.777125e-01
5.794513e-01
5.811002e-01
5.824860e-01
5.834199e-01
5.837508e-01
5.834206e-01
5.824886e-01
5.811108e-01
5.794816e-01
5.777595e-01
5.760433e-01
5.743586e-01
0.000000e+00
1.000000e+00
5.740347e-01
5.750180e-01
5.761677e-01
5.773360e-01
5.784440e-01
5.793753e-01
5.800029e-01
5.802250e-01
5.800023e-01
5.793753e-01
5.784495e-01
5.773550e-01
5.762103e-01
5.750590e-01
5.738096e-01
0.000000e+00
1.000000e+00
5.734151e-01
5.737552e-01
5.741875e-01
5.746248e-01
5.750398e-01
5.753889e-01
5.756243e-01
5.757075e-01
5.756236e-01
5.753887e-01
5.750442e-01
5.746419e-01
5.742255e-01
5.738016e-01
5.732060e-01
0.000000e+00
1.000000e+00
5.727022e-01
5.722959e-01
5.718999e-01
5.714927e-01
5.711071e-01
5.707839e-01
5.705668e-01
5.704903e-01
5.705681e-01
5.707877e-01
5.711191e-01
5.715185e-01
5.719364e-01
5.723489e-01
5.725001e-01
0.000000e+00
1.000000e+00
5.650214e-01
5.562945e-01
5.468502e-01
5.371979e-01
5.280489e-01
5.203663e-01
5.151971e-01
5.133783e-01
5.152310e-01
5.204282e-01
5.281292e-01
5.372941e-01
5.469527e-01
5.565016e-01
5.646013e-01
0.000000e+00
1.000000e+00
5.658131e-01
5.580235e-01
5.495543e-01
5.408998e-01
5.326972e-01
5.258099e-01
5.211769e-01
5.195484e-01
5.212117e-01
5.258729e-01
5.327831e-01
5.410024e-01
5.496666e-01
5.583374e-01
5.650129e-01
0.000000e+00
1.000000e+00
5.667736e-01
5.600198e-01
5.526757e-01
5.451723e-01
5.380599e-01
5.320873e-01
5.280687e-01
5.266550e-01
5.280955e-01
5.321354e-01
5.381262e-01
5.452661e-01
5.527840e-01
5.603778e-01
5.657743e-01
0.000000e+00
1.000000e+00
5.678271e-01
5.622203e-01
5.561194e-01
5.498869e-01
5.439790e-01
5.390178e-01
5.356794e-01
5.345047e-01
5.357010e-01
5.390565e-01
5.440307e-01
5.499760e-01
5.562209e-01
5.625236e-01
5.668857e-01
0.000000e+00
1.000000e+00
5.689441e-01
5.645523e-01
5.597690e-01
5.548836e-01
5.502525e-01
5.463632e-01
5.437458e-01
5.428245e-01
5.437619e-01
5.463921e-01
5.502888e-01
5.549641e-01
5.598620e-01
5.647506e-01
5.682635e-01
0.000000e+00
1.000000e+00
5.700788e-01
5.669151e-01
5.634672e-01
5.599467e-01
5.566094e-01
5.538064e-01
5.519198e-01
5.512551e-01
5.519301e-01
5.538255e-01
5.566310e-01
5.600157e-01
5.635489e-01
5.670283e-01
5.696921e-01
0.000000e+00
1.000000e+00
5.711766e-01
5.691906e-01
5.670293e-01
5.648237e-01
5.627327e-01
5.609763e-01
5.597938e-01
5.593764e-01
5.597984e-01
5.609855e-01
5.627407e-01
5.648788e-01
5.671009e-01
5.692601e-01
5.710427e-01
0.000000e+00
1.000000e+00
5.721788e-01
5.712543e-01
5.702612e-01
5.692486e-01
5.682885e-01
5.674819e-01
5.669384e-01
5.667458e-01
5.669381e-01
5.674817e-01
5.682841e-01
5.692843e-01
5.703210e-01
5.713107e-01
5.720417e-01
0.000000e+00
1.000000e+00
5.730284e-01
5.729895e-01
5.729804e-01
5.729717e-01
5.729634e-01
5.729563e-01
5.729511e-01
5.729483e-01
5.729480e-01
5.729501e-01
5.729518e-01
5.729811e-01
5.730249e-01
5.730262e-01
5.728630e-01
0.000000e+00
1.000000e+00
5.736750e-01
5.743017e-01
5.750386e-01
5.757898e-01
5.765022e-01
5.771007e-01
5.775036e-01
5.776455e-01
5.775006e-01
5.770946e-01
5.764923e-01
5.757895e-01
5.750767e-01
5.743263e-01
5.736641e-01
0.000000e+00
1.000000e+00
5.740850e-01
5.751299e-01
5.763395e-01
5.775711e-01
5.787390e-01
5.797204e-01
5.803815e-01
5.806153e-01
5.803801e-01
5.797174e-01
5.787351e-01
5.775816e-01
5.763787e-01
5.751590e-01
5.740690e-01
0.000000e+00
1.000000e+00
5.742458e-01
5.754527e-01
5.768482e-01
5.782676e-01
5.796137e-01
5.807448e-01
5.815071e-01
5.817770e-01
5.815070e-01
5.807448e-01
5.796158e-01
5.782881e-01
5.768852e-01
5.754820e-01
5.741747e-01
0.000000e+00
1.000000e+00
5.741659e-01
5.752878e-01
5.765905e-01
5.779148e-01
5.791707e-01
5.802261e-01
5.809374e-01
5.811894e-01
5.809376e-01
5.802271e-01
5.791749e-01
5.779346e-01
5.766239e-01
5.753168e-01
5.741169e-01
0.000000e+00
1.000000e+00
5.738724e-01
5.746837e-01
5.756434e-01
5.766181e-01
5.775424e-01
5.783192e-01
5.788426e-01
5.790280e-01
5.788425e-01
5.783196e-01
5.775457e-01
5.766318e-01
5.756739e-01
5.747117e-01
5.737560e-01
0.000000e+00
1.000000e+00
5.733955e-01
5.737119e-01
5.741204e-01
5.745327e-01
5.749238e-01
5.752526e-01
5.754741e-01
5.755525e-01
5.754738e-01
5.752527e-01
5.749272e-01
5.745439e-01
5.741482e-01
5.737492e-01
5.731515e-01
0.000000e+00
1.000000e+00
5.727811e-01
5.724566e-01
5.721531e-01
5.718392e-01
5.715418e-01
5.712923e-01
5.711244e-01
5.710650e-01
5.711249e-01
5.712942e-01
5.715497e-01
5.718561e-01
5.721800e-01
5.725036e-01
5.725533e-01
0.000000e+00
1.000000e+00
5.720753e-01
5.710035e-01
5.698765e-01
5.687223e-01
5.676286e-01
5.667102e-01
5.660921e-01
5.658740e-01
5.660948e-01
5.667171e-01
5.676454e-01
5.687462e-01
5.699094e-01
5.710537e-01
5.719073e-01
0.000000e+00
1.000000e+00
5.643688e-01
5.549201e-01
5.446988e-01
5.342523e-01
5.243506e-01
5.160360e-01
5.104416e-01
5.084734e-01
5.104788e-01
5.161041e-01
5.244380e-01
5.343545e-01
5.448078e-01
5.551511e-01
5.639261e-01
0.000000e+00
1.000000e+00
5.651050e-01
5.565334e-01
5.472236e-01
5.377089e-01
5.286911e-01
5.211195e-01
5.160262e-01
5.142359e-01
5.160645e-01
5.211893e-01
5.287846e-01
5.378176e-01
5.473366e-01
5.568354e-01
5.645117e-01
0.000000e+00
1.000000e+00
5.660242e-01
5.584462e-01
5.502141e-01
5.418021e-01
5.338286e-01
5.271330e-01
5.226282e-01
5.210434e-01
5.226585e-01
5.271876e-01
5.339038e-01
5.418967e-01
5.503217e-01
5.587518e-01
5.652801e-01
0.000000e+00
1.000000e+00
5.670538e-01
5.605995e-01
5.535836e-01
5.464151e-01
5.396200e-01
5.339138e-01
5.300743e-01
5.287232e-01
5.300991e-01
5.339585e-01
5.396814e-01
5.465021e-01
5.536837e-01
5.608385e-01
5.662974e-01
0.000000e+00
1.000000e+00
5.681658e-01
5.629221e-01
5.572184e-01
5.513913e-01
5.458676e-01
5.412287e-01
5.381070e-01
5.370082e-01
5.381260e-01
5.412630e-01
5.459133e-01
5.514684e-01
5.573081e-01
5.630630e-01
5.676664e-01
0.000000e+00
1.000000e+00
5.693112e-01
5.653113e-01
5.609577e-01
5.565108e-01
5.522952e-01
5.487546e-01
5.463715e-01
5.455321e-01
5.463847e-01
5.487785e-01
5.523255e-01
5.565754e-01
5.610343e-01
5.653907e-01
5.690164e-01
0.000000e+00
1.000000e+00
5.704328e-01
5.676432e-01
5.646077e-01
5.615081e-01
5.585694e-01
5.561010e-01
5.544393e-01
5.538532e-01
5.544468e-01
5.561152e-01
5.585859e-01
5.615587e-01
5.646732e-01
5.676983e-01
5.703010e-01
0.000000e+00
1.000000e+00
5.714674e-01
5.697840e-01
5.679594e-01
5.660970e-01
5.643311e-01
5.628476e-01
5.618484e-01
5.614952e-01
5.618508e-01
5.628528e-01
5.643355e-01
5.661337e-01
5.680149e-01
5.698339e-01
5.713278e-01
0.000000e+00
1.000000e+00
5.723539e-01
5.716058e-01
5.708129e-01
5.700039e-01
5.692366e-01
5.685918e-01
5.681572e-01
5.680028e-01
5.681559e-01
5.685897e-01
5.692311e-01
5.700225e-01
5.708554e-01
5.716337e-01
5.721738e-01
0.000000e+00
1.000000e+00
5.730385e-01
5.730028e-01
5.730028e-01
5.730022e-01
5.730015e-01
5.730008e-01
5.729999e-01
5.729988e-01
5.729972e-01
5.729953e-01
5.729922e-01
5.730025e-01
5.730301e-01
5.730118e-01
5.730229e-01
0.000000e+00
1.000000e+00
5.734847e-01
5.739052e-01
5.744189e-01
5.749412e-01
5.754364e-01
5.758525e-01
5.761326e-01
5.762313e-01
5.761307e-01
5.758485e-01
5.754301e-01
5.749398e-01
5.744385e-01
5.739206e-01
5.734928e-01
0.000000e+00
1.000000e+00
5.736744e-01
5.742860e-01
5.750184e-01
5.757621e-01
5.764673e-01
5.770598e-01
5.774590e-01
5.776002e-01
5.774583e-01
5.770584e-01
5.764654e-01
5.757663e-01
5.750357e-01
5.743040e-01
5.736184e-01
0.000000e+00
1.000000e+00
5.736150e-01
5.741613e-01
5.748251e-01
5.754974e-01
5.761350e-01
5.766707e-01
5.770317e-01
5.771594e-01
5.770314e-01
5.766706e-01
5.761355e-01
5.755034e-01
5.748415e-01
5.741793e-01
5.735874e-01
0.000000e+00
1.000000e+00
5.733332e-01
5.735830e-01
5.739192e-01
5.742571e-01
5.745776e-01
5.748470e-01
5.750285e-01
5.750926e-01
5.750282e-01
5.748470e-01
5.745793e-01
5.742628e-01
5.739360e-01
5.736011e-01
5.732516e-01
0.000000e+00
1.000000e+00
5.728699e-01
5.726269e-01
5.724205e-01
5.722052e-01
5.720012e-01
5.718298e-01
5.717145e-01
5.716737e-01
5.717147e-01
5.718311e-01
5.720059e-01
5.722135e-01
5.724379e-01
5.726576e-01
5.726372e-01
0.000000e+00
1.000000e+00
5.722648e-01
5.713811e-01
5.704687e-01
5.695329e-01
5.686457e-01
5.679005e-01
5.673987e-01
5.672216e-01
5.674007e-01
5.679053e-01
5.686571e-01
5.695484e-01
5.704921e-01
5.714258e-01
5.720287e-01
0.000000e+00
1.000000e+00
5.715663e-01
5.699358e-01
5.682054e-01
5.664341e-01
5.647550e-01
5.633447e-01
5.623952e-01
5.620603e-01
5.623999e-01
5.633551e-01
5.647736e-01
5.664557e-01
5.682372e-01
5.699807e-01
5.713970e-01
0.000000e+00
1.000000e+00
5.638882e-01
5.539073e-01
5.431146e-01
5.320833e-01
5.216275e-01
5.128479e-01
5.069410e-01
5.048633e-01
5.069815e-01
5.129226e-01
5.217218e-01
5.321906e-01
5.432343e-01
5.541338e-01
5.634552e-01
0.000000e+00
1.000000e+00
5.645727e-01
5.554067e-01
5.454618e-01
5.352969e-01
5.256630e-01
5.175742e-01
5.121331e-01
5.102208e-01
5.121746e-01
5.176502e-01
5.257603e-01
5.354145e-01
5.455802e-01
5.556606e-01
5.640913e-01
0.000000e+00
1.000000e+00
5.654490e-01
5.572333e-01
5.483177e-01
5.392057e-01
5.305689e-01
5.233166e-01
5.184374e-01
5.167212e-01
5.184709e-01
5.233775e-01
5.306478e-01
5.393089e-01
5.484265e-01
5.574700e-01
5.648774e-01
0.000000e+00
1.000000e+00
5.664526e-01
5.593346e-01
5.516055e-01
5.437068e-01
5.362197e-01
5.299325e-01
5.257023e-01
5.242140e-01
5.257303e-01
5.299830e-01
5.362852e-01
5.437990e-01
5.517063e-01
5.595199e-01
5.658494e-01
0.000000e+00
1.000000e+00
5.675562e-01
5.616415e-01
5.552153e-01
5.486488e-01
5.424243e-01
5.371969e-01
5.336794e-01
5.324413e-01
5.337012e-01
5.372363e-01
5.424745e-01
5.487286e-01
5.553039e-01
5.617495e-01
5.671761e-01
0.000000e+00
1.000000e+00
5.687104e-01
5.640503e-01
5.589849e-01
5.538097e-01
5.489037e-01
5.447833e-01
5.420101e-01
5.410335e-01
5.420258e-01
5.448115e-01
5.489384e-01
5.538743e-01
5.590582e-01
5.641171e-01
5.685114e-01
0.000000e+00
1.000000e+00
5.698538e-01
5.664317e-01
5.627121e-01
5.589127e-01
5.553106e-01
5.522849e-01
5.502481e-01
5.495300e-01
5.502578e-01
5.523027e-01
5.553314e-01
5.589610e-01
5.627718e-01
5.664868e-01
5.697700e-01
0.000000e+00
1.000000e+00
5.709197e-01
5.686434e-01
5.661743e-01
5.636527e-01
5.612619e-01
5.592534e-01
5.579009e-01
5.574233e-01
5.579054e-01
5.592622e-01
5.612710e-01
5.636855e-01
5.662225e-01
5.686964e-01
5.707788e-01
0.000000e+00
1.000000e+00
5.718418e-01
5.705464e-01
5.691543e-01
5.677328e-01
5.663848e-01
5.652522e-01
5.644890e-01
5.642188e-01
5.644895e-01
5.652535e-01
5.663845e-01
5.677508e-01
5.691908e-01
5.705752e-01
5.716444e-01
0.000000e+00
1.000000e+00
5.725623e-01
5.720242e-01
5.714697e-01
5.709029e-01
5.703654e-01
5.699136e-01
5.696089e-01
5.695005e-01
5.696072e-01
5.699103e-01
5.703590e-01
5.709060e-01
5.714916e-01
5.720251e-01
5.725410e-01
0.000000e+00
1.000000e+00
5.730424e-01
5.729977e-01
5.729965e-01
5.729935e-01
5.729906e-01
5.729881e-01
5.729861e-01
5.729849e-01
5.729844e-01
5.729845e-01
5.729843e-01
5.729881e-01
5.730052e-01
5.730021e-01
5.730637e-01
0.000000e+00
1.000000e+00
5.732601e-01
5.734346e-01
5.736834e-01
5.739340e-01
5.741716e-01
5.743712e-01
5.745057e-01
5.745531e-01
5.745051e-01
5.743699e-01
5.741689e-01
5.739320e-01
5.736883e-01
5.734426e-01
5.732227e-01
0.000000e+00
1.000000e+00
5.732208e-01
5.733491e-01
5.735517e-01
5.737537e-01
5.739452e-01
5.741061e-01
5.742145e-01
5.742529e-01
5.742145e-01
5.741061e-01
5.739447e-01
5.737536e-01
5.735560e-01
5.733578e-01
5.732086e-01
0.000000e+00
1.000000e+00
5.729501e-01
5.727946e-01
5.726843e-01
5.725661e-01
5.724540e-01
5.723598e-01
5.722963e-01
5.722739e-01
5.722964e-01
5.723602e-01
5.724547e-01
5.725667e-01
5.726889e-01
5.728023e-01
5.729053e-01
0.000000e+00
1.000000e+00
5.724907e-01
5.718513e-01
5.712065e-01
5.705429e-01
5.699138e-01
5.693852e-01
5.690292e-01
5.689033e-01
5.690301e-01
5.693875e-01
5.699187e-01
5.705483e-01
5.712167e-01
5.718758e-01
5.722873e-01
0.000000e+00
1.000000e+00
5.718935e-01
5.706122e-01
5.692653e-01
5.678851e-01
5.665767e-01
5.654776e-01
5.647376e-01
5.644765e-01
5.647406e-01
5.654843e-01
5.665880e-01
5.678980e-01
5.692856e-01
5.706520e-01
5.716627e-01
0.000000e+00
1.000000e+00
5.712073e-01
5.691715e-01
5.670090e-01
5.647961e-01
5.626983e-01
5.609363e-01
5.597502e-01
5.593321e-01
5.597562e-01
5.609487e-01
5.627162e-01
5.648153e-01
5.670350e-01
5.692089e-01
5.710272e-01
0.000000e+00
1.000000e+00
5.636150e-01
5.533292e-01
5.422107e-01
5.308457e-01
5.200739e-01
5.110292e-01
5.049444e-01
5.028046e-01
5.049877e-01
5.111095e-01
5.201743e-01
5.309578e-01
5.423408e-01
5.535458e-01
5.631912e-01
0.000000e+00
1.000000e+00
5.642547e-01
5.547256e-01
5.443971e-01
5.338392e-01
5.238329e-01
5.154316e-01
5.097806e-01
5.077948e-01
5.098244e-01
5.155123e-01
5.239328e-01
5.339661e-01
5.445228e-01
5.549269e-01
5.638743e-01
0.000000e+00
1.000000e+00
5.650908e-01
5.564725e-01
5.471286e-01
5.375778e-01
5.285252e-01
5.209241e-01
5.158105e-01
5.140124e-01
5.158468e-01
5.209903e-01
5.286059e-01
5.376940e-01
5.472407e-01
5.566428e-01
5.647152e-01
0.000000e+00
1.000000e+00
5.660699e-01
5.585246e-01
5.503392e-01
5.419732e-01
5.340433e-01
5.273844e-01
5.229044e-01
5.213286e-01
5.229350e-01
5.274399e-01
5.341099e-01
5.420784e-01
5.504409e-01
5.586627e-01
5.656447e-01
0.000000e+00
1.000000e+00
5.671646e-01
5.608153e-01
5.539234e-01
5.468800e-01
5.402036e-01
5.345968e-01
5.308243e-01
5.294967e-01
5.308485e-01
5.346407e-01
5.402553e-01
5.469708e-01
5.540121e-01
5.609027e-01
5.669214e-01
0.000000e+00
1.000000e+00
5.683259e-01
5.632404e-01
5.577182e-01
5.520754e-01
5.467262e-01
5.422337e-01
5.392103e-01
5.381458e-01
5.392280e-01
5.422656e-01
5.467630e-01
5.521492e-01
5.577925e-01
5.633079e-01
5.681935e-01
0.000000e+00
1.000000e+00
5.694897e-01
5.656663e-01
5.615147e-01
5.572731e-01
5.532520e-01
5.498745e-01
5.476010e-01
5.467997e-01
5.476124e-01
5.498952e-01
5.532750e-01
5.573283e-01
5.615758e-01
5.657332e-01
5.693728e-01
0.000000e+00
1.000000e+00
5.705853e-01
5.679425e-01
5.650776e-01
5.621511e-01
5.593765e-01
5.570456e-01
5.554761e-01
5.549222e-01
5.554819e-01
5.570566e-01
5.593875e-01
5.621879e-01
5.651264e-01
5.680071e-01
5.703779e-01
0.000000e+00
1.000000e+00
5.715417e-01
5.699199e-01
5.681737e-01
5.663901e-01
5.646989e-01
5.632779e-01
5.623206e-01
5.619820e-01
5.623220e-01
5.632809e-01
5.647005e-01
5.664094e-01
5.682099e-01
5.699573e-01
5.713013e-01
0.000000e+00
1.000000e+00
5.722962e-01
5.714715e-01
5.706041e-01
5.697178e-01
5.688772e-01
5.681707e-01
5.676945e-01
5.675254e-01
5.676933e-01
5.681684e-01
5.688721e-01
5.697220e-01
5.706260e-01
5.714759e-01
5.722286e-01
0.000000e+00
1.000000e+00
5.728073e-01
5.725095e-01
5.722313e-01
5.719458e-01
5.716749e-01
5.714472e-01
5.712935e-01
5.712385e-01
5.712918e-01
5.714435e-01
5.716683e-01
5.719396e-01
5.722373e-01
5.725101e-01
5.728067e-01
0.000000e+00
1.000000e+00
5.730507e-01
5.729959e-01
5.729955e-01
5.729921e-01
5.729889e-01
5.729860e-01
5.729840e-01
5.729831e-01
5.729832e-01
5.729841e-01
5.729852e-01
5.729873e-01
5.729943e-01
5.729965e-01
5.730190e-01
0.000000e+00
1.000000e+00
5.730300e-01
5.729435e-01
5.729156e-01
5.728826e-01
5.728513e-01
5.728250e-01
5.728072e-01
5.728008e-01
5.728070e-01
5.728244e-01
5.728496e-01
5.728798e-01
5.729129e-01
5.729456e-01
5.730247e-01
0.000000e+00
1.000000e+00
5.727713e-01
5.724070e-01
5.720768e-01
5.717341e-01
5.714091e-01
5.711360e-01
5.709519e-01
5.708867e-01
5.709519e-01
5.711359e-01
5.714084e-01
5.717321e-01
5.720765e-01
5.724104e-01
5.727607e-01
0.000000e+00
1.000000e+00
5.723152e-01
5.714700e-01
5.706098e-01
5.697256e-01
5.688872e-01
5.681828e-01
5.677082e-01
5.675403e-01
5.677089e-01
5.681846e-01
5.688900e-01
5.697282e-01
5.706172e-01
5.714852e-01
5.721414e-01
0.000000e+00
1.000000e+00
5.717136e-01
5.702301e-01
5.686677e-01
5.670666e-01
5.655488e-01
5.642736e-01
5.634148e-01
5.631116e-01
5.634176e-01
5.642795e-01
5.655572e-01
5.670762e-01
5.686830e-01
5.702589e-01
5.715173e-01
0.000000e+00
1.000000e+00
5.710196e-01
5.687855e-01
5.664051e-01
5.639690e-01
5.616597e-01
5.597199e-01
5.584140e-01
5.579533e-01
5.584197e-01
5.597316e-01
5.616750e-01
5.639851e-01
5.664260e-01
5.688172e-01
5.708474e-01
0.000000e+00
1.000000e+00
5.635739e-01
5.532402e-01
5.420719e-01
5.306555e-01
5.198353e-01
5.107504e-01
5.046390e-01
5.024905e-01
5.046841e-01
5.108345e-01
5.199404e-01
5.307744e-01
5.421896e-01
5.534202e-01
5.632466e-01
0.000000e+00
1.000000e+00
5.641797e-01
5.545542e-01
5.441296e-01
5.334728e-01
5.233729e-01
5.148933e-01
5.091898e-01
5.071858e-01
5.092348e-01
5.149767e-01
5.234752e-01
5.336091e-01
5.442412e-01
5.546926e-01
5.639618e-01
0.000000e+00
1.000000e+00
5.649829e-01
5.562373e-01
5.467615e-01
5.370753e-01
5.278945e-01
5.201861e-01
5.150007e-01
5.131777e-01
5.150388e-01
5.202560e-01
5.279781e-01
5.372031e-01
5.468658e-01
5.563522e-01
5.647880e-01
0.000000e+00
1.000000e+00
5.659430e-01
5.582511e-01
5.499120e-01
5.413884e-01
5.333092e-01
5.265253e-01
5.219615e-01
5.203566e-01
5.219939e-01
5.265844e-01
5.333787e-01
5.415046e-01
5.500074e-01
5.583571e-01
5.656923e-01
0.000000e+00
1.000000e+00
5.670318e-01
5.605313e-01
5.534796e-01
5.462725e-01
5.394409e-01
5.337042e-01
5.298444e-01
5.284865e-01
5.298703e-01
5.337513e-01
5.394960e-01
5.463732e-01
5.535636e-01
5.606208e-01
5.668312e-01
0.000000e+00
1.000000e+00
5.682004e-01
5.629736e-01
5.573012e-01
5.515046e-01
5.460096e-01
5.413949e-01
5.382894e-01
5.371964e-01
5.383086e-01
5.414295e-01
5.460502e-01
5.515881e-01
5.573739e-01
5.630605e-01
5.680027e-01
0.000000e+00
1.000000e+00
5.693834e-01
5.654408e-01
5.611622e-01
5.567906e-01
5.526462e-01
5.491653e-01
5.468223e-01
5.459969e-01
5.468348e-01
5.491881e-01
5.526727e-01
5.568558e-01
5.612233e-01
5.655276e-01
5.691726e-01
0.000000e+00
1.000000e+00
5.705064e-01
5.677753e-01
5.648161e-01
5.617932e-01
5.589272e-01
5.565196e-01
5.548985e-01
5.543266e-01
5.549050e-01
5.565317e-01
5.589406e-01
5.618402e-01
5.648650e-01
5.678574e-01
5.702097e-01
0.000000e+00
1.000000e+00
5.714943e-01
5.698188e-01
5.680153e-01
5.661734e-01
5.644268e-01
5.629593e-01
5.619707e-01
5.616210e-01
5.619722e-01
5.629625e-01
5.644291e-01
5.662014e-01
5.680517e-01
5.698704e-01
5.711735e-01
0.000000e+00
1.000000e+00
5.722800e-01
5.714344e-01
5.705458e-01
5.696380e-01
5.687771e-01
5.680536e-01
5.675657e-01
5.673925e-01
5.675642e-01
5.680506e-01
5.687712e-01
5.696475e-01
5.705694e-01
5.714491e-01
5.721544e-01
0.000000e+00
1.000000e+00
5.728183e-01
5.725264e-01
5.722576e-01
5.719818e-01
5.717202e-01
5.715002e-01
5.713516e-01
5.712983e-01
5.713494e-01
5.714956e-01
5.717123e-01
5.719777e-01
5.722662e-01
5.725319e-01
5.727760e-01
0.000000e+00
1.000000e+00
5.730824e-01
5.730520e-01
5.730829e-01
5.731119e-01
5.731393e-01
5.731622e-01
5.731775e-01
5.731825e-01
5.731762e-01
5.731596e-01
5.731349e-01
5.731073e-01
5.730832e-01
5.730527e-01
5.730181e-01
0.000000e+00
1.000000e+00
5.730754e-01
5.730222e-01
5.730383e-01
5.730508e-01
5.730625e-01
5.730723e-01
5.730788e-01
5.730810e-01
5.730783e-01
5.730713e-01
5.730606e-01
5.730480e-01
5.730361e-01
5.730217e-01
5.730671e-01
0.000000e+00
1.000000e+00
5.728244e-01
5.724933e-01
5.722112e-01
5.719183e-01
5.716404e-01
5.714069e-01
5.712494e-01
5.711936e-01
5.712492e-01
5.714064e-01
5.716394e-01
5.719161e-01
5.722108e-01
5.724981e-01
5.728352e-01
0.000000e+00
1.000000e+00
5.723715e-01
5.715521e-01
5.707374e-01
5.699005e-01
5.691068e-01
5.684399e-01
5.679906e-01
5.678315e-01
5.679909e-01
5.684411e-01
5.691087e-01
5.699023e-01
5.707442e-01
5.715668e-01
5.722245e-01
0.000000e+00
1.000000e+00
5.717705e-01
5.703001e-01
5.687760e-01
5.672151e-01
5.657352e-01
5.644918e-01
5.636543e-01
5.633584e-01
5.636564e-01
5.644965e-01
5.657419e-01
5.672233e-01
5.687903e-01
5.703208e-01
5.716414e-01
0.000000e+00
1.000000e+00
5.710790e-01
5.688394e-01
5.664873e-01
5.640816e-01
5.618010e-01
5.598853e-01
5.585953e-01
5.581401e-01
5.586003e-01
5.598955e-01
5.618140e-01
5.640953e-01
5.665054e-01
5.688554e-01
5.709205e-01
0.000000e+00
1.000000e+00
5.637756e-01
5.536677e-01
5.427412e-01
5.315716e-01
5.209856e-01
5.120978e-01
5.061194e-01
5.040183e-01
5.061653e-01
5.121836e-01
5.210934e-01
5.316933e-01
5.428426e-01
5.538077e-01
5.635961e-01
0.000000e+00
1.000000e+00
5.643618e-01
5.549280e-01
5.447146e-01
5.342736e-01
5.243782e-01
5.160705e-01
5.104828e-01
5.085200e-01
5.105279e-01
5.161542e-01
5.244821e-01
5.344103e-01
5.448132e-01
5.550269e-01
5.642722e-01
0.000000e+00
1.000000e+00
5.651434e-01
5.565707e-01
5.472838e-01
5.377903e-01
5.287926e-01
5.212380e-01
5.161564e-01
5.143705e-01
5.161952e-01
5.213095e-01
5.288793e-01
5.379212e-01
5.473720e-01
5.566544e-01
5.650649e-01
0.000000e+00
1.000000e+00
5.660930e-01
5.585639e-01
5.504019e-01
5.420590e-01
5.341514e-01
5.275118e-01
5.230454e-01
5.214753e-01
5.230786e-01
5.275726e-01
5.342246e-01
5.421788e-01
5.504848e-01
5.586548e-01
5.659695e-01
0.000000e+00
1.000000e+00
5.671818e-01
5.608446e-01
5.539702e-01
5.469443e-01
5.402845e-01
5.346923e-01
5.309300e-01
5.296070e-01
5.309567e-01
5.347410e-01
5.403436e-01
5.470497e-01
5.540486e-01
5.609488e-01
5.669759e-01
0.000000e+00
1.000000e+00
5.683601e-01
5.633087e-01
5.578257e-01
5.522228e-01
5.469115e-01
5.424512e-01
5.394499e-01
5.383940e-01
5.394697e-01
5.424871e-01
5.469560e-01
5.523129e-01
5.578973e-01
5.634186e-01
5.680767e-01
0.000000e+00
1.000000e+00
5.695612e-01
5.658156e-01
5.617488e-01
5.575938e-01
5.536548e-01
5.503466e-01
5.481201e-01
5.473360e-01
5.481329e-01
5.503701e-01
5.536845e-01
5.576677e-01
5.618108e-01
5.659205e-01
5.692875e-01
0.000000e+00
1.000000e+00
5.707090e-01
5.682021e-01
5.654838e-01
5.627074e-01
5.600751e-01
5.578641e-01
5.563754e-01
5.558502e-01
5.563815e-01
5.578758e-01
5.600899e-01
5.627645e-01
5.655372e-01
5.683035e-01
5.703453e-01
0.000000e+00
1.000000e+00
5.717250e-01
5.703015e-01
5.687706e-01
5.672076e-01
5.657255e-01
5.644802e-01
5.636413e-01
5.633443e-01
5.636418e-01
5.644816e-01
5.657262e-01
5.672462e-01
5.688150e-01
5.703737e-01
5.713379e-01
0.000000e+00
1.000000e+00
5.725376e-01
5.719691e-01
5.713826e-01
5.707838e-01
5.702159e-01
5.697385e-01
5.694164e-01
5.693015e-01
5.694137e-01
5.697332e-01
5.702064e-01
5.707992e-01
5.714135e-01
5.720010e-01
5.723604e-01
0.000000e+00
1.000000e+00
5.730973e-01
5.731020e-01
5.731588e-01
5.732159e-01
5.732699e-01
5.733150e-01
5.733451e-01
5.733549e-01
5.733423e-01
5.733091e-01
5.732600e-01
5.732141e-01
5.731755e-01
5.731194e-01
5.730075e-01
0.000000e+00
1.000000e+00
5.733745e-01
5.736534e-01
5.740250e-01
5.744019e-01
5.747592e-01
5.750594e-01
5.752615e-01
5.753327e-01
5.752602e-01
5.750568e-01
5.747552e-01
5.744006e-01
5.740340e-01
5.736629e-01
5.732591e-01
0.000000e+00
1.000000e+00
5.733719e-01
5.736331e-01
5.739956e-01
5.743615e-01
5.747085e-01
5.750000e-01
5.751964e-01
5.752660e-01
5.751963e-01
5.749998e-01
5.747080e-01
5.743619e-01
5.740006e-01
5.736383e-01
5.733470e-01
0.000000e+00
1.000000e+00
5.731171e-01
5.730985e-01
5.731597e-01
5.732170e-01
5.732713e-01
5.733168e-01
5.733474e-01
5.733582e-01
5.733473e-01
5.733167e-01
5.732708e-01
5.732161e-01
5.731631e-01
5.731038e-01
5.731213e-01
0.000000e+00
1.000000e+00
5.726534e-01
5.721394e-01
5.716578e-01
5.711605e-01
5.706890e-01
5.702927e-01
5.700256e-01
5.699309e-01
5.700255e-01
5.702930e-01
5.706900e-01
5.711616e-01
5.716650e-01
5.721473e-01
5.725028e-01
0.000000e+00
1.000000e+00
5.720359e-01
5.708605e-01
5.696542e-01
5.684174e-01
5.672449e-01
5.662596e-01
5.655959e-01
5.653611e-01
5.655969e-01
5.662627e-01
5.672505e-01
5.684248e-01
5.696710e-01
5.708718e-01
5.720046e-01
0.000000e+00
1.000000e+00
5.713286e-01
5.693676e-01
5.673149e-01
5.652147e-01
5.632237e-01
5.615512e-01
5.604250e-01
5.600273e-01
5.604287e-01
5.615593e-01
5.632348e-01
5.652270e-01
5.673349e-01
5.693679e-01
5.712563e-01
0.000000e+00
1.000000e+00
5.642166e-01
5.546055e-01
5.442088e-01
5.335807e-01
5.235080e-01
5.150515e-01
5.093637e-01
5.073655e-01
5.094091e-01
5.151367e-01
5.236150e-01
5.337007e-01
5.443019e-01
5.547822e-01
5.641045e-01
0.000000e+00
1.000000e+00
5.647987e-01
5.558451e-01
5.461495e-01
5.362377e-01
5.268439e-01
5.189575e-01
5.136536e-01
5.117907e-01
5.136975e-01
5.190392e-01
5.269465e-01
5.363677e-01
5.462423e-01
5.559381e-01
5.647426e-01
0.000000e+00
1.000000e+00
5.655729e-01
5.574754e-01
5.486995e-01
5.397286e-01
5.312262e-01
5.240878e-01
5.192865e-01
5.175997e-01
5.193248e-01
5.241585e-01
5.313140e-01
5.398535e-01
5.487849e-01
5.575535e-01
5.655289e-01
0.000000e+00
1.000000e+00
5.665227e-01
5.594693e-01
5.518186e-01
5.439988e-01
5.365869e-01
5.303638e-01
5.261779e-01
5.247071e-01
5.262108e-01
5.304241e-01
5.366619e-01
5.441149e-01
5.518996e-01
5.595587e-01
5.664676e-01
0.000000e+00
1.000000e+00
5.676185e-01
5.617645e-01
5.554095e-01
5.489149e-01
5.427588e-01
5.375897e-01
5.341125e-01
5.328904e-01
5.341389e-01
5.376380e-01
5.428199e-01
5.490208e-01
5.554874e-01
5.618840e-01
5.674312e-01
0.000000e+00
1.000000e+00
5.688093e-01
5.642562e-01
5.593084e-01
5.542527e-01
5.494604e-01
5.454361e-01
5.427285e-01
5.417765e-01
5.427479e-01
5.454714e-01
5.495067e-01
5.543473e-01
5.593839e-01
5.643951e-01
5.684796e-01
0.000000e+00
1.000000e+00
5.700287e-01
5.668017e-01
5.632916e-01
5.597062e-01
5.563073e-01
5.534529e-01
5.515319e-01
5.508556e-01
5.515438e-01
5.534749e-01
5.563376e-01
5.597890e-01
5.633635e-01
5.669368e-01
5.696900e-01
0.000000e+00
1.000000e+00
5.711999e-01
5.692328e-01
5.670963e-01
5.649153e-01
5.628476e-01
5.611108e-01
5.599415e-01
5.595288e-01
5.599459e-01
5.611195e-01
5.628601e-01
5.649851e-01
5.671630e-01
5.693607e-01
5.707710e-01
0.000000e+00
1.000000e+00
5.722410e-01
5.713768e-01
5.704531e-01
5.695113e-01
5.686182e-01
5.678678e-01
5.673620e-01
5.671823e-01
5.673604e-01
5.678645e-01
5.686126e-01
5.695588e-01
5.705074e-01
5.714716e-01
5.717867e-01
0.000000e+00
1.000000e+00
5.730761e-01
5.730822e-01
5.731253e-01
5.731700e-01
5.732122e-01
5.732475e-01
5.732708e-01
5.732776e-01
5.732662e-01
5.732382e-01
5.731971e-01
5.731841e-01
5.731646e-01
5.731328e-01
5.728005e-01
0.000000e+00
1.000000e+00
5.736509e-01
5.742415e-01
5.749439e-01
5.756600e-01
5.763391e-01
5.769095e-01
5.772935e-01
5.774283e-01
5.772897e-01
5.769020e-01
5.763288e-01
5.756630e-01
5.749755e-01
5.742728e-01
5.734918e-01
0.000000e+00
1.000000e+00
5.739342e-01
5.748045e-01
5.758294e-01
5.768725e-01
5.778616e-01
5.786927e-01
5.792526e-01
5.794505e-01
5.792511e-01
5.786902e-01
5.778609e-01
5.768824e-01
5.758559e-01
5.748279e-01
5.737720e-01
0.000000e+00
1.000000e+00
5.739282e-01
5.747802e-01
5.757946e-01
5.768248e-01
5.778016e-01
5.786225e-01
5.791757e-01
5.793716e-01
5.791757e-01
5.786230e-01
5.778051e-01
5.768357e-01
5.758150e-01
5.747987e-01
5.738465e-01
0.000000e+00
1.000000e+00
5.736597e-01
5.742269e-01
5.749299e-01
5.756408e-01
5.763148e-01
5.768812e-01
5.772629e-01
5.773980e-01
5.772628e-01
5.768816e-01
5.763167e-01
5.756465e-01
5.749463e-01
5.742467e-01
5.736406e-01
0.000000e+00
1.000000e+00
5.731729e-01
5.732367e-01
5.733792e-01
5.735175e-01
5.736486e-01
5.737587e-01
5.738328e-01
5.738587e-01
5.738321e-01
5.737582e-01
5.736493e-01
5.735204e-01
5.733935e-01
5.732520e-01
5.729988e-01
0.000000e+00
1.000000e+00
5.725260e-01
5.719174e-01
5.713117e-01
5.706868e-01
5.700944e-01
5.695967e-01
5.692613e-01