<?xml version="1.0"?>
<VTKFile type="StructuredGrid" version="0.1">
  <StructuredGrid WholeExtent="0 16 0 16 0 16">
    <Piece Extent="0 16 0 16 0 16">
      <PointData Scalars="temperature" Vectors="velocity">
        <DataArray type="Float32" Name="temperature" format="ascii">
1.000000e+00
5.734682e-01
5.736767e-01
5.740604e-01
5.744489e-01
5.748178e-01
5.751283e-01
5.753377e-01
5.754108e-01
5.753337e-01
5.751206e-01
5.748203e-01
5.745430e-01
5.742229e-01
5.738580e-01
5.728649e-01
0.000000e+00
1.000000e+00
5.743108e-01
5.752849e-01
5.765895e-01
5.779121e-01
5.791669e-01
5.802220e-01
5.809328e-01
5.811836e-01
5.809294e-01
5.802158e-01
5.791687e-01
5.779983e-01
5.768089e-01
5.754933e-01
5.736945e-01
0.000000e+00
1.000000e+00
5.752863e-01
5.771457e-01
5.795186e-01
5.819230e-01
5.842042e-01
5.861223e-01
5.874154e-01
5.878741e-01
5.874181e-01
5.861310e-01
5.842461e-01
5.820664e-01
5.797762e-01
5.773734e-01
5.745895e-01
0.000000e+00
1.000000e+00
5.763837e-01
5.792173e-01
5.827846e-01
5.863949e-01
5.898201e-01
5.927007e-01
5.946442e-01
5.953369e-01
5.946592e-01
5.927384e-01
5.899259e-01
5.866028e-01
5.830514e-01
5.794628e-01
5.755755e-01
0.000000e+00
1.000000e+00
5.775532e-01
5.814333e-01
5.862843e-01
5.911863e-01
5.958370e-01
5.997485e-01
6.023888e-01
6.033334e-01
6.024212e-01
5.998270e-01
5.960099e-01
5.914415e-01
5.865536e-01
5.817033e-01
5.766309e-01
0.000000e+00
1.000000e+00
5.787558e-01
5.837060e-01
5.898771e-01
5.961049e-01
6.020139e-01
6.069846e-01
6.103420e-01
6.115474e-01
6.103966e-01
6.071108e-01
6.022490e-01
5.963961e-01
5.901471e-01
5.840016e-01
5.777087e-01
0.000000e+00
1.000000e+00
5.799446e-01
5.859237e-01
5.933922e-01
6.009174e-01
6.080573e-01
6.140651e-01
6.181264e-01
6.195900e-01
6.182088e-01
6.142468e-01
6.083483e-01
6.012354e-01
5.936475e-01
5.862935e-01
5.786725e-01
0.000000e+00
1.000000e+00
5.810652e-01
5.879657e-01
5.966433e-01
6.053679e-01
6.136465e-01
6.206148e-01
6.253302e-01
6.270374e-01
6.254486e-01
6.208591e-01
6.139855e-01
6.057043e-01
5.968649e-01
5.886476e-01
5.783316e-01
0.000000e+00
1.000000e+00
5.820575e-01
5.897123e-01
5.994459e-01
6.092043e-01
6.184653e-01
6.262645e-01
6.315487e-01
6.334728e-01
6.317111e-01
6.265741e-01
6.188446e-01
6.095521e-01
5.996194e-01
5.910354e-01
5.769499e-01
0.000000e+00
1.000000e+00
5.828748e-01
5.910562e-01
6.016375e-01
6.122055e-01
6.222380e-01
6.306924e-01
6.364278e-01
6.385279e-01
6.366337e-01
6.310608e-01
6.226508e-01
6.125623e-01
6.017777e-01
5.927348e-01
5.765550e-01
0.000000e+00
1.000000e+00
5.834680e-01
5.919176e-01
6.030982e-01
6.142093e-01
6.247619e-01
6.336588e-01
6.397001e-01
6.419210e-01
6.399387e-01
6.340709e-01
6.252021e-01
6.145784e-01
6.032291e-01
5.933134e-01
5.774900e-01
0.000000e+00
1.000000e+00
5.838114e-01
5.922483e-01
6.037621e-01
6.151281e-01
6.259247e-01
6.350281e-01
6.412112e-01
6.434886e-01
6.414656e-01
6.354587e-01
6.263811e-01
6.155102e-01
6.039223e-01
5.932317e-01
5.788430e-01
0.000000e+00
1.000000e+00
5.838853e-01
5.920395e-01
6.036243e-01
6.149520e-01
6.257073e-01
6.347731e-01
6.409297e-01
6.431977e-01
6.411842e-01
6.352003e-01
6.261766e-01
6.153610e-01
6.038390e-01
5.928024e-01
5.805203e-01
0.000000e+00
1.000000e+00
5.836491e-01
5.913411e-01
6.027331e-01
6.137349e-01
6.241754e-01
6.329743e-01
6.389475e-01
6.411453e-01
6.391878e-01
6.333859e-01
6.246545e-01
6.141651e-01
6.029986e-01
5.921584e-01
5.814560e-01
0.000000e+00
1.000000e+00
5.832091e-01
5.902629e-01
6.011672e-01
6.115848e-01
6.214703e-01
6.298016e-01
6.354530e-01
6.375231e-01
6.356704e-01
6.302007e-01
6.219511e-01
6.120307e-01
6.014588e-01
5.911365e-01
5.807063e-01
0.000000e+00
1.000000e+00
5.824749e-01
5.889469e-01
5.990238e-01
6.086470e-01
6.177802e-01
6.254790e-01
6.307003e-01
6.326071e-01
6.309061e-01
6.258689e-01
6.182581e-01
6.091145e-01
5.993535e-01
5.897128e-01
5.803899e-01
0.000000e+00
1.000000e+00
5.814885e-01
5.874503e-01
5.964372e-01
6.051027e-01
6.133282e-01
6.202627e-01
6.249675e-01
6.266865e-01
6.251677e-01
6.206478e-01
6.138152e-01
6.056107e-01
5.968427e-01
5.881721e-01
5.808368e-01
0.000000e+00
1.000000e+00
5.741743e-01
5.750178e-01
5.761736e-01
5.773423e-01
5.784510e-01
5.793830e-01
5.800108e-01
5.802323e-01
5.800071e-01
5.793753e-01
5.784487e-01
5.774098e-01
5.763517e-01
5.751976e-01
5.735506e-01
0.000000e+00
1.000000e+00
5.750507e-01
5.766790e-01
5.787885e-01
5.809228e-01
5.829476e-01
5.846499e-01
5.857974e-01
5.862041e-01
5.857984e-01
5.846533e-01
5.829769e-01
5.810460e-01
5.790262e-01
5.768923e-01
5.743472e-01
0.000000e+00
1.000000e+00
5.760623e-01
5.785959e-01
5.818096e-01
5.850596e-01
5.881425e-01
5.907351e-01
5.924840e-01
5.931069e-01
5.924953e-01
5.907639e-01
5.882333e-01
5.852498e-01
5.820601e-01
5.788250e-01
5.752736e-01
0.000000e+00
1.000000e+00
5.771888e-01
5.807233e-01
5.851690e-01
5.896592e-01
5.939190e-01
5.975015e-01
5.999194e-01
6.007837e-01
5.999465e-01
5.975684e-01
5.940778e-01
5.899035e-01
5.854285e-01
5.809783e-01
5.762801e-01
0.000000e+00
1.000000e+00
5.783844e-01
5.829918e-01
5.887534e-01
5.945668e-01
6.000820e-01
6.047212e-01
6.078544e-01
6.089785e-01
6.079024e-01
6.048347e-01
6.003075e-01
5.948617e-01
5.890208e-01
5.832729e-01
5.773751e-01
0.000000e+00
1.000000e+00
5.796099e-01
5.853014e-01
5.924089e-01
5.995712e-01
6.063667e-01
6.120840e-01
6.159484e-01
6.173396e-01
6.160228e-01
6.122534e-01
6.066575e-01
5.999192e-01
5.926848e-01
5.856050e-01
5.784596e-01
0.000000e+00
1.000000e+00
5.808168e-01
5.875300e-01
5.959487e-01
6.044173e-01
6.124525e-01
6.192148e-01
6.237896e-01
6.254438e-01
6.238999e-01
6.194500e-01
6.128026e-01
6.048232e-01
5.962285e-01
5.878619e-01
5.796871e-01
0.000000e+00
1.000000e+00
5.819374e-01
5.895462e-01
5.991698e-01
6.088269e-01
6.179907e-01
6.257062e-01
6.309318e-01
6.328324e-01
6.310886e-01
6.260129e-01
6.183908e-01
6.092838e-01
5.994384e-01
5.899881e-01
5.806378e-01
0.000000e+00
1.000000e+00
5.829064e-01
5.912221e-01
6.018740e-01
6.125292e-01
6.226422e-01
6.311621e-01
6.369409e-01
6.390560e-01
6.371476e-01
6.315388e-01
6.230864e-01
6.130206e-01
6.021155e-01
5.921307e-01
5.797313e-01
0.000000e+00
1.000000e+00
5.836652e-01
5.924478e-01
6.038912e-01
6.152930e-01
6.261186e-01
6.352449e-01
6.414432e-01
6.437231e-01
6.416915e-01
6.356817e-01
6.266105e-01
6.157892e-01
6.041178e-01
5.941221e-01
5.779233e-01
0.000000e+00
1.000000e+00
5.841625e-01
5.931480e-01
6.051020e-01
6.169568e-01
6.282166e-01
6.377130e-01
6.441668e-01
6.465471e-01
6.444414e-01
6.381919e-01
6.287493e-01
6.174306e-01
6.053213e-01
5.949663e-01
5.780419e-01
0.000000e+00
1.000000e+00
5.843516e-01
5.932957e-01
6.054500e-01
6.174434e-01
6.288354e-01
6.384428e-01
6.449718e-01
6.473822e-01
6.452577e-01
6.389409e-01
6.293826e-01
6.178921e-01
6.056636e-01
5.947429e-01
5.784140e-01
0.000000e+00
1.000000e+00
5.842313e-01
5.929046e-01
6.049465e-01
6.167617e-01
6.279801e-01
6.374386e-01
6.438645e-01
6.462365e-01
6.441473e-01
6.379312e-01
6.285221e-01
6.172091e-01
6.051824e-01
5.938830e-01
5.796545e-01
0.000000e+00
1.000000e+00
5.839092e-01
5.919596e-01
6.036483e-01
6.149883e-01
6.257502e-01
6.348212e-01
6.409814e-01
6.432536e-01
6.412499e-01
6.352902e-01
6.262849e-01
6.154583e-01
6.039455e-01
5.927840e-01
5.812679e-01
0.000000e+00
1.000000e+00
5.833287e-01
5.906217e-01
6.016581e-01
6.122610e-01
6.223222e-01
6.308028e-01
6.365597e-01
6.386810e-01
6.368137e-01
6.312552e-01
6.228544e-01
6.127604e-01
6.020107e-01
5.914693e-01
5.809801e-01
0.000000e+00
1.000000e+00
5.824188e-01
5.891169e-01
5.991106e-01
6.087660e-01
6.179308e-01
6.256565e-01
6.309002e-01
6.328306e-01
6.311409e-01
6.260876e-01
6.184476e-01
6.092819e-01
5.995224e-01
5.898259e-01
5.806833e-01
0.000000e+00
1.000000e+00
5.812958e-01
5.873956e-01
5.961470e-01
6.047016e-01
6.128241e-01
6.196716e-01
6.243199e-01
6.260269e-01
6.245313e-01
6.200561e-01
6.132967e-01
6.052000e-01
5.965739e-01
5.880558e-01
5.810416e-01
0.000000e+00
1.000000e+00
5.747663e-01
5.761352e-01
5.779362e-01
5.797557e-01
5.814814e-01
5.829321e-01
5.839098e-01
5.842560e-01
5.839092e-01
5.829306e-01
5.814949e-01
5.798488e-01
5.781199e-01
5.763125e-01
5.740967e-01
0.000000e+00
1.000000e+00
5.756701e-01
5.778335e-01
5.806122e-01
5.834198e-01
5.860828e-01
5.883218e-01
5.898317e-01
5.903687e-01
5.898384e-01
5.883377e-01
5.861453e-01
5.835768e-01
5.808209e-01
5.780312e-01
5.748971e-01
0.000000e+00
1.000000e+00
5.767068e-01
5.797889e-01
5.836993e-01
5.876467e-01
5.913912e-01
5.945400e-01
5.966649e-01
5.974239e-01
5.966855e-01
5.945893e-01
5.915172e-01
5.878648e-01
5.839229e-01
5.800122e-01
5.758369e-01
0.000000e+00
1.000000e+00
5.778526e-01
5.819575e-01
5.871248e-01
5.923368e-01
5.972814e-01
6.014402e-01
6.042487e-01
6.052556e-01
6.042881e-01
6.015318e-01
5.974734e-01
5.926119e-01
5.873635e-01
5.822089e-01
5.768733e-01
0.000000e+00
1.000000e+00
5.790677e-01
5.842602e-01
5.907664e-01
5.973226e-01
6.035427e-01
6.087756e-01
6.123119e-01
6.135839e-01
6.123751e-01
6.089199e-01
6.038036e-01
5.976603e-01
5.910190e-01
5.845390e-01
5.779658e-01
0.000000e+00
1.000000e+00
5.803118e-01
5.865892e-01
5.944579e-01
6.023764e-01
6.098892e-01
6.162112e-01
6.204869e-01
6.220309e-01
6.205830e-01
6.164223e-01
6.102180e-01
6.027854e-01
5.947281e-01
5.868973e-01
5.790985e-01
0.000000e+00
1.000000e+00
5.815268e-01
5.888132e-01
5.979972e-01
6.072219e-01
6.159744e-01
6.233422e-01
6.283303e-01
6.301413e-01
6.284727e-01
6.236329e-01
6.163630e-01
6.077070e-01
5.982917e-01
5.891634e-01
5.801734e-01
0.000000e+00
1.000000e+00
5.826393e-01
5.907903e-01
6.011661e-01
6.115602e-01
6.214235e-01
6.297308e-01
6.353630e-01
6.374219e-01
6.355613e-01
6.301037e-01
6.218639e-01
6.121043e-01
6.014875e-01
5.912155e-01
5.811065e-01
0.000000e+00
1.000000e+00
5.835741e-01
5.923870e-01
6.037539e-01
6.151038e-01
6.258772e-01
6.349572e-01
6.411229e-01
6.433910e-01
6.413720e-01
6.353997e-01
6.263717e-01
6.156631e-01
6.040886e-01
5.930827e-01
5.809179e-01
0.000000e+00
1.000000e+00
5.842616e-01
5.934946e-01
6.055848e-01
6.176137e-01
6.290361e-01
6.386695e-01
6.452183e-01
6.476362e-01
6.455000e-01
6.391606e-01
6.295901e-01
6.181461e-01
6.059350e-01
5.949047e-01
5.796486e-01
0.000000e+00
1.000000e+00
5.846407e-01
5.940474e-01
6.065406e-01
6.189296e-01
6.306979e-01
6.406257e-01
6.473762e-01
6.498704e-01
6.476713e-01
6.411463e-01
6.313098e-01
6.194735e-01
6.068605e-01
5.960270e-01
5.786602e-01
0.000000e+00
1.000000e+00
5.847036e-01
5.940208e-01
6.065777e-01
6.189883e-01
6.307768e-01
6.407201e-01
6.474796e-01
6.499747e-01
6.477732e-01
6.412510e-01
6.314090e-01
6.195101e-01
6.068125e-01
5.957699e-01
5.786396e-01
0.000000e+00
1.000000e+00
5.845293e-01
5.933678e-01
6.057096e-01
6.178097e-01
6.292993e-01
6.389871e-01
6.455695e-01
6.479986e-01
6.458600e-01
6.395094e-01
6.299125e-01
6.183091e-01
6.059572e-01
5.945857e-01
5.797143e-01
0.000000e+00
1.000000e+00
5.840849e-01
5.921889e-01
6.040251e-01
6.155065e-01
6.264044e-01
6.355908e-01
6.418300e-01
6.441332e-01
6.421102e-01
6.360907e-01
6.269864e-01
6.160125e-01
6.043389e-01
5.931056e-01
5.809586e-01
0.000000e+00
1.000000e+00
5.832865e-01
5.907210e-01
6.016537e-01
6.122533e-01
6.223139e-01
6.307942e-01
6.365516e-01
6.386768e-01
6.368199e-01
6.312676e-01
6.228644e-01
6.127697e-01
6.020223e-01
5.914525e-01
5.807264e-01
0.000000e+00
1.000000e+00
5.821464e-01
5.890431e-01
5.987440e-01
6.082584e-01
6.172919e-01
6.249068e-01
6.300764e-01
6.319805e-01
6.303197e-01
6.253392e-01
6.178033e-01
6.087717e-01
5.991620e-01
5.896363e-01
5.808850e-01
0.000000e+00
1.000000e+00
5.809446e-01
5.870574e-01
5.954479e-01
6.037384e-01
6.116110e-01
6.182471e-01
6.227529e-01
6.244074e-01
6.229574e-01
6.186186e-01
6.120628e-01
6.042205e-01
5.958714e-01
5.876550e-01
5.808806e-01
0.000000e+00
1.000000e+00
5.752027e-01
5.769503e-01
5.792236e-01
5.815183e-01
5.836946e-01
5.855240e-01
5.867573e-01
5.871952e-01
5.867602e-01
5.855308e-01
5.837320e-01
5.816401e-01
5.793935e-01
5.771163e-01
5.744765e-01
0.000000e+00
1.000000e+00
5.761206e-01
5.786627e-01
5.819238e-01
5.852157e-01
5.883380e-01
5.909632e-01
5.927340e-01
5.933652e-01
5.927466e-01
5.909926e-01
5.884221e-01
5.853880e-01
5.821154e-01
5.788505e-01
5.752907e-01
0.000000e+00
1.000000e+00
5.771664e-01
5.806336e-01
5.850376e-01
5.894791e-01
5.936923e-01
5.972357e-01
5.996278e-01
6.004839e-01
5.996564e-01
5.973008e-01
5.938348e-01
5.897146e-01
5.852505e-01
5.808508e-01
5.762384e-01
0.000000e+00
1.000000e+00
5.783190e-01
5.828181e-01
5.884893e-01
5.942050e-01
5.996275e-01
6.041888e-01
6.072706e-01
6.083774e-01
6.073194e-01
6.042988e-01
5.998347e-01
5.945057e-01
5.887275e-01
5.830684e-01
5.772857e-01
0.000000e+00
1.000000e+00
5.795429e-01
5.851310e-01
5.921492e-01
5.992159e-01
6.059204e-01
6.115615e-01
6.153754e-01
6.167497e-01
6.154510e-01
6.117310e-01
6.061973e-01
5.995872e-01
5.924126e-01
5.854125e-01
5.783941e-01
0.000000e+00
1.000000e+00
5.807915e-01
5.874583e-01
5.958407e-01
6.042698e-01
6.122670e-01
6.189978e-01
6.235522e-01
6.252003e-01
6.236668e-01
6.192464e-01
6.126137e-01
6.047135e-01
5.961426e-01
5.877711e-01
5.795249e-01
0.000000e+00
1.000000e+00
5.819974e-01
5.896610e-01
5.993492e-01
6.090729e-01
6.182993e-01
6.260673e-01
6.313297e-01
6.332462e-01
6.314991e-01
6.264105e-01
6.187131e-01
6.095738e-01
5.997144e-01
5.900091e-01
5.805577e-01
0.000000e+00
1.000000e+00
5.830840e-01
5.915902e-01
6.024429e-01
6.133087e-01
6.236203e-01
6.323070e-01
6.382009e-01
6.403632e-01
6.384308e-01
6.327414e-01
6.241080e-01
6.138142e-01
6.028949e-01
5.919886e-01
5.816094e-01
0.000000e+00
1.000000e+00
5.839668e-01
5.931089e-01
6.049015e-01
6.166760e-01
6.278532e-01
6.372758e-01
6.436788e-01
6.460414e-01
6.439558e-01
6.377733e-01
6.284133e-01
6.171717e-01
6.053763e-01
5.936714e-01
5.818819e-01
0.000000e+00
1.000000e+00
5.845623e-01
5.941114e-01
6.065444e-01
6.189291e-01
6.306900e-01
6.406107e-01
6.473581e-01
6.498533e-01
6.476567e-01
6.411338e-01
6.312920e-01
6.194527e-01
6.069813e-01
5.952504e-01
5.808279e-01
0.000000e+00
1.000000e+00
5.848547e-01
5.945272e-01
6.072589e-01
6.199123e-01
6.319318e-01
6.420727e-01
6.489717e-01
6.515214e-01
6.492690e-01
6.426032e-01
6.325766e-01
6.205116e-01
6.076490e-01
5.966093e-01
5.792342e-01
0.000000e+00
1.000000e+00
5.848705e-01
5.942871e-01
6.069966e-01
6.195620e-01
6.315000e-01
6.415716e-01
6.484215e-01
6.509518e-01
6.487165e-01
6.421061e-01
6.321804e-01
6.201782e-01
6.073039e-01
5.965585e-01
5.787192e-01
0.000000e+00
1.000000e+00
5.846037e-01
5.934291e-01
6.058035e-01
6.179365e-01
6.294606e-01
6.391797e-01
6.457865e-01
6.482295e-01
6.460860e-01
6.397112e-01
6.301153e-01
6.184896e-01
6.060798e-01
5.951261e-01
5.794559e-01
0.000000e+00
1.000000e+00
5.839664e-01
5.921208e-01
6.037879e-01
6.151760e-01
6.259896e-01
6.351059e-01
6.412994e-01
6.435905e-01
6.415909e-01
6.356214e-01
6.265890e-01
6.157005e-01
6.041129e-01
5.931764e-01
5.803288e-01
0.000000e+00
1.000000e+00
5.829516e-01
5.905175e-01
6.010945e-01
6.114790e-01
6.213389e-01
6.296506e-01
6.352934e-01
6.373770e-01
6.355624e-01
6.301237e-01
6.218860e-01
6.119889e-01
6.014604e-01
5.911886e-01
5.801648e-01
0.000000e+00
1.000000e+00
5.817277e-01
5.886055e-01
5.978837e-01
6.070740e-01
6.158001e-01
6.231551e-01
6.281470e-01
6.299834e-01
6.283796e-01
6.235716e-01
6.162900e-01
6.075640e-01
5.982993e-01
5.891251e-01
5.807064e-01
0.000000e+00
1.000000e+00
5.804758e-01
5.864044e-01
5.943215e-01
6.021923e-01
6.096652e-01
6.159622e-01
6.202359e-01
6.218024e-01
6.204225e-01
6.163089e-01
6.100853e-01
6.026440e-01
5.947340e-01
5.868880e-01
5.807070e-01
0.000000e+00
1.000000e+00
5.754376e-01
5.773900e-01
5.799175e-01
5.824683e-01
5.848875e-01
5.869212e-01
5.882925e-01
5.887801e-01
5.882984e-01
5.869356e-01
5.849378e-01
5.826042e-01
5.800858e-01
5.775476e-01
5.746815e-01
0.000000e+00
1.000000e+00
5.763507e-01
5.790866e-01
5.825929e-01
5.861319e-01
5.894886e-01
5.923109e-01
5.942151e-01
5.948946e-01
5.942314e-01
5.923484e-01
5.895782e-01
5.863084e-01
5.827855e-01
5.792697e-01
5.754931e-01
0.000000e+00
1.000000e+00
5.773873e-01
5.810414e-01
5.856815e-01
5.903607e-01
5.947995e-01
5.985327e-01
6.010535e-01
6.019567e-01
6.010864e-01
5.986054e-01
5.949427e-01
5.906017e-01
5.859021e-01
5.812572e-01
5.764408e-01
0.000000e+00
1.000000e+00
5.785308e-01
5.832096e-01
5.891072e-01
5.950511e-01
6.006900e-01
6.054338e-01
6.086394e-01
6.097916e-01
6.086928e-01
6.055524e-01
6.008979e-01
5.953575e-01
5.893586e-01
5.834591e-01
5.774764e-01
0.000000e+00
1.000000e+00
5.797448e-01
5.855028e-01
5.927356e-01
6.000187e-01
6.069288e-01
6.127432e-01
6.166751e-01
6.180930e-01
6.167563e-01
6.129264e-01
6.072114e-01
6.003866e-01
5.930256e-01
5.857833e-01
5.785773e-01
0.000000e+00
1.000000e+00
5.809778e-01
5.878028e-01
5.963828e-01
6.050122e-01
6.131996e-01
6.200910e-01
6.247549e-01
6.264444e-01
6.248774e-01
6.203625e-01
6.135657e-01
6.054227e-01
5.967320e-01
5.881134e-01
5.796912e-01
0.000000e+00
1.000000e+00
5.821563e-01
5.899661e-01
5.998254e-01
6.097253e-01
6.191189e-01
6.270284e-01
6.323878e-01
6.343417e-01
6.325663e-01
6.274036e-01
6.195793e-01
6.101419e-01
6.002643e-01
5.903147e-01
5.807298e-01
0.000000e+00
1.000000e+00
5.831990e-01
5.918395e-01
6.028220e-01
6.138285e-01
6.242738e-01
6.330735e-01
6.390449e-01
6.412375e-01
6.392823e-01
6.335400e-01
6.248282e-01
6.142319e-01
6.033494e-01
5.922351e-01
5.816975e-01
0.000000e+00
1.000000e+00
5.840156e-01
5.932832e-01
6.051449e-01
6.170105e-01
6.282741e-01
6.377694e-01
6.442220e-01
6.466031e-01
6.445005e-01
6.382835e-01
6.288766e-01
6.174682e-01
6.056892e-01
5.937513e-01
5.823828e-01
0.000000e+00
1.000000e+00
5.845584e-01
5.941841e-01
6.066127e-01
6.190224e-01
6.308060e-01
6.407452e-01
6.475061e-01
6.500070e-01
6.477984e-01
6.412612e-01
6.314134e-01
6.195950e-01
6.070685e-01
5.950062e-01
5.820784e-01
0.000000e+00
1.000000e+00
5.848012e-01
5.944507e-01
6.071076e-01
6.197015e-01
6.316654e-01
6.417618e-01
6.486345e-01
6.511794e-01
6.489299e-01
6.422732e-01
6.323159e-01
6.203601e-01
6.075161e-01
5.961295e-01
5.803924e-01
0.000000e+00
1.000000e+00
5.847573e-01
5.940523e-01
6.065998e-01
6.190118e-01
6.308056e-01
6.407588e-01
6.475324e-01
6.500439e-01
6.478385e-01
6.412752e-01
6.315011e-01
6.196842e-01
6.069591e-01
5.961290e-01
5.790927e-01
0.000000e+00
1.000000e+00
5.843428e-01
5.930777e-01
6.051493e-01
6.170306e-01
6.283184e-01
6.378404e-01
6.443160e-01
6.467173e-01
6.446217e-01
6.383647e-01
6.289793e-01
6.176173e-01
6.054458e-01
5.946269e-01
5.795337e-01
0.000000e+00
1.000000e+00
5.835396e-01
5.916645e-01
6.028781e-01
6.139186e-01
6.244047e-01
6.332459e-01
6.392525e-01
6.414758e-01
6.395415e-01
6.337543e-01
6.249896e-01
6.144423e-01
6.032005e-01
5.925817e-01
5.800265e-01
0.000000e+00
1.000000e+00
5.824307e-01
5.898968e-01
5.999426e-01
6.098932e-01
6.193415e-01
6.273051e-01
6.327097e-01
6.347020e-01
6.329638e-01
6.277552e-01
6.198594e-01
6.103780e-01
6.002922e-01
5.905229e-01
5.799350e-01
0.000000e+00
1.000000e+00
5.811749e-01
5.878033e-01
5.965164e-01
6.051978e-01
6.134395e-01
6.203837e-01
6.250936e-01
6.268205e-01
6.253003e-01
6.207660e-01
6.138898e-01
6.056488e-01
5.969070e-01
5.882465e-01
5.804064e-01
0.000000e+00
1.000000e+00
5.798954e-01
5.854633e-01
5.927761e-01
6.000749e-01
6.070035e-01
6.128390e-01
6.167955e-01
6.182408e-01
6.169518e-01
6.131457e-01
6.073792e-01
6.004846e-01
5.931589e-01
5.858329e-01
5.794736e-01
0.000000e+00
1.000000e+00
5.754378e-01
5.773932e-01
5.799206e-01
5.824725e-01
5.848928e-01
5.869272e-01
5.882990e-01
5.887866e-01
5.883045e-01
5.869412e-01
5.849366e-01
5.826008e-01
5.801004e-01
5.775363e-01
5.746695e-01
0.000000e+00
1.000000e+00
5.763237e-01
5.790376e-01
5.825124e-01
5.860217e-01
5.893501e-01
5.921485e-01
5.940365e-01
5.947099e-01
5.940519e-01
5.921843e-01
5.894323e-01
5.861893e-01
5.827195e-01
5.792099e-01
5.754631e-01
0.000000e+00
1.000000e+00
5.773306e-01
5.809383e-01
5.855140e-01
5.901312e-01
5.945113e-01
5.981950e-01
6.006822e-01
6.015731e-01
6.007140e-01
5.982652e-01
5.946483e-01
5.903598e-01
5.857506e-01
5.811416e-01
5.763816e-01
0.000000e+00
1.000000e+00
5.784440e-01
5.830519e-01
5.888519e-01
5.947014e-01
6.002510e-01
6.049195e-01
6.080739e-01
6.092075e-01
6.081255e-01
6.050348e-01
6.004587e-01
5.949879e-01
5.891233e-01
5.832865e-01
5.773936e-01
0.000000e+00
1.000000e+00
5.796250e-01
5.852900e-01
5.923904e-01
5.995462e-01
6.063355e-01
6.120482e-01
6.159110e-01
6.173036e-01
6.159886e-01
6.122280e-01
6.066325e-01
5.998739e-01
5.927043e-01
5.855537e-01
5.784642e-01
0.000000e+00
1.000000e+00
5.808205e-01
5.875331e-01
5.959432e-01
6.044105e-01
6.124444e-01
6.192062e-01
6.237820e-01
6.254384e-01
6.238968e-01
6.194726e-01
6.128386e-01
6.047693e-01
5.963124e-01
5.878236e-01
5.795475e-01
0.000000e+00
1.000000e+00
5.819547e-01
5.896359e-01
5.992826e-01
6.089827e-01
6.181871e-01
6.259366e-01
6.311862e-01
6.330974e-01
6.313507e-01
6.262999e-01
6.186762e-01
6.093714e-01
5.997150e-01
5.899522e-01
5.805676e-01
0.000000e+00
1.000000e+00
5.829419e-01
5.914433e-01
6.021626e-01
6.129269e-01
6.231423e-01
6.317471e-01
6.375838e-01
6.397218e-01
6.377996e-01
6.321898e-01
6.237071e-01
6.133647e-01
6.026633e-01
5.917819e-01
5.814550e-01
0.000000e+00
1.000000e+00
5.837203e-01
5.928096e-01
6.043522e-01
6.159260e-01
6.269119e-01
6.361708e-01
6.424599e-01
6.447767e-01
6.427138e-01
6.366499e-01
6.275028e-01
6.164361e-01
6.049058e-01
5.931590e-01
5.821916e-01
0.000000e+00
1.000000e+00
5.842113e-01
5.936172e-01
6.056698e-01
6.177273e-01
6.291748e-01
6.388293e-01
6.453973e-01
6.478295e-01
6.456777e-01
6.393088e-01
6.297744e-01
6.183491e-01
6.061643e-01
5.939369e-01
5.822258e-01
0.000000e+00
1.000000e+00
5.844238e-01
5.937738e-01
6.059976e-01
6.181756e-01
6.297415e-01
6.395010e-01
6.461454e-01
6.486149e-01
6.464498e-01
6.399774e-01
6.303854e-01
6.188879e-01
6.064313e-01
5.945752e-01
5.806917e-01
0.000000e+00
1.000000e+00
5.842798e-01
5.932917e-01
6.053186e-01
6.172488e-01
6.285819e-01
6.381451e-01
6.446544e-01
6.470748e-01
6.449657e-01
6.386346e-01
6.292518e-01
6.179284e-01
6.056702e-01
5.945200e-01
5.796981e-01
0.000000e+00
1.000000e+00
5.837536e-01
5.922469e-01
6.036995e-01
6.150348e-01
6.258018e-01
6.348834e-01
6.410587e-01
6.433498e-01
6.413566e-01
6.353858e-01
6.264244e-01
6.156131e-01
6.040048e-01
5.932723e-01
5.802118e-01
0.000000e+00
1.000000e+00
5.828771e-01
5.907416e-01
6.012701e-01
6.117083e-01
6.216203e-01
6.299757e-01
6.356493e-01
6.377452e-01
6.359173e-01
6.304487e-01
6.221606e-01
6.122056e-01
6.015832e-01
5.914971e-01
5.799995e-01
0.000000e+00
1.000000e+00
5.817447e-01
5.888593e-01
5.981975e-01
6.074992e-01
6.163299e-01
6.237700e-01
6.288150e-01
6.306670e-01
6.290365e-01
6.241745e-01
6.167991e-01
6.079398e-01
5.985271e-01
5.894125e-01
5.796395e-01
0.000000e+00
1.000000e+00
5.804886e-01
5.866692e-01
5.946647e-01
6.026610e-01
6.102509e-01
6.166432e-01
6.209745e-01
6.225548e-01
6.211428e-01
6.169739e-01
6.106487e-01
6.030596e-01
5.950269e-01
5.870623e-01
5.796695e-01
0.000000e+00
1.000000e+00
5.792067e-01
5.842698e-01
5.908528e-01
5.974414e-01
6.036949e-01
6.089597e-01
6.125251e-01
6.138217e-01
6.126446e-01
6.092129e-01
6.040184e-01
5.977982e-01
5.911978e-01
5.845921e-01
5.782024e-01
0.000000e+00
1.000000e+00
5.751824e-01
5.769205e-01
5.791716e-01
5.814469e-01
5.836047e-01
5.854186e-01
5.866412e-01
5.870749e-01
5.866429e-01
5.854232e-01
5.836238e-01
5.815467e-01
5.793689e-01
5.770546e-01
5.745081e-01
0.000000e+00
1.000000e+00
5.760199e-01
5.784724e-01
5.816159e-01
5.847940e-01
5.878084e-01
5.903426e-01
5.920518e-01
5.926602e-01
5.920618e-01
5.903667e-01
5.878698e-01
5.849528e-01
5.818379e-01
5.786306e-01
5.751995e-01
0.000000e+00
1.000000e+00
5.769760e-01
5.802767e-01
5.844636e-01
5.886932e-01
5.927054e-01
5.960794e-01
5.983567e-01
5.991710e-01
5.983818e-01
5.961362e-01
5.928294e-01
5.889199e-01
5.847168e-01
5.804637e-01
5.760669e-01
0.000000e+00
1.000000e+00
5.780373e-01
5.822944e-01
5.876477e-01
5.930528e-01
5.981807e-01
6.024940e-01
6.054074e-01
6.064532e-01
6.054511e-01
6.025924e-01
5.983846e-01
5.933322e-01
5.879348e-01
5.825123e-01
5.770284e-01
0.000000e+00
1.000000e+00
5.791628e-01
5.844392e-01
5.910350e-01
5.976906e-01
6.040054e-01
6.093184e-01
6.129097e-01
6.142029e-01
6.129756e-01
6.094728e-01
6.043050e-01
5.980045e-01
5.913582e-01
5.846836e-01
5.780498e-01
0.000000e+00
1.000000e+00
5.803017e-01
5.865934e-01
5.944420e-01
6.023555e-01
6.098642e-01
6.161833e-01
6.204577e-01
6.220023e-01
6.205531e-01
6.164082e-01
6.102530e-01
6.027201e-01
5.947957e-01
5.868610e-01
5.790845e-01
0.000000e+00
1.000000e+00
5.813795e-01
5.886133e-01
5.976427e-01
6.067383e-01
6.153693e-01
6.226350e-01
6.275542e-01
6.293396e-01
6.276876e-01
6.229360e-01
6.158288e-01
6.071831e-01
5.980253e-01
5.888967e-01
5.800557e-01
0.000000e+00
1.000000e+00
5.823242e-01
5.903431e-01
6.003918e-01
6.105032e-01
6.200990e-01
6.281802e-01
6.336580e-01
6.356575e-01
6.338346e-01
6.285485e-01
6.206167e-01
6.110220e-01
6.008269e-01
5.906300e-01
5.808931e-01
0.000000e+00
1.000000e+00
5.830434e-01
5.916453e-01
6.024655e-01
6.133397e-01
6.236594e-01
6.323532e-01
6.382541e-01
6.404235e-01
6.384751e-01
6.327616e-01
6.242153e-01
6.138979e-01
6.029613e-01
5.919314e-01
5.815135e-01
0.000000e+00
1.000000e+00
5.835168e-01
5.923792e-01
6.036697e-01
6.149855e-01
6.257256e-01
6.347778e-01
6.409302e-01
6.432076e-01
6.411972e-01
6.352029e-01
6.263046e-01
6.156191e-01
6.041393e-01
5.926396e-01
5.818363e-01
0.000000e+00
1.000000e+00
5.836729e-01
5.924877e-01
6.039008e-01
6.153010e-01
6.261232e-01
6.352484e-01
6.414548e-01
6.437601e-01
6.417476e-01
6.356831e-01
6.267285e-01
6.159944e-01
6.042895e-01
5.929227e-01
5.814917e-01
0.000000e+00
1.000000e+00
5.834650e-01
5.919758e-01
6.031420e-01
6.142635e-01
6.248230e-01
6.337271e-01
6.397816e-01
6.420293e-01
6.400711e-01
6.341805e-01
6.254263e-01
6.148928e-01
6.034644e-01
5.925769e-01
5.808627e-01
0.000000e+00
1.000000e+00
5.828962e-01
5.909046e-01
6.014619e-01
6.119657e-01
6.219383e-01
6.303449e-01
6.360548e-01
6.381663e-01
6.363211e-01
6.308015e-01
6.224856e-01
6.124963e-01
6.017637e-01
5.914960e-01
5.806046e-01
0.000000e+00
1.000000e+00
5.820164e-01
5.893647e-01
5.989935e-01
6.085874e-01
6.176950e-01
6.253681e-01
6.305725e-01
6.324853e-01
6.307991e-01
6.257795e-01
6.181676e-01
6.090370e-01
5.992917e-01
5.899069e-01
5.798291e-01
0.000000e+00
1.000000e+00
5.809112e-01
5.874507e-01
5.959084e-01
6.043638e-01
6.123891e-01
6.191476e-01
6.237260e-01
6.253965e-01
6.239014e-01
6.194899e-01
6.127989e-01
6.047506e-01
5.962151e-01
5.879124e-01
5.790954e-01
0.000000e+00
1.000000e+00
5.796882e-01
5.852535e-01
5.923926e-01
5.995499e-01
6.063426e-01
6.120610e-01
6.159321e-01
6.173372e-01
6.160577e-01
6.123300e-01
6.066803e-01
5.998927e-01
5.927160e-01
5.856181e-01
5.786280e-01
0.000000e+00
1.000000e+00
5.784347e-01
5.828749e-01
5.886254e-01
5.943919e-01
5.998645e-01
6.044703e-01
6.075864e-01
6.087144e-01
6.076710e-01
6.046649e-01
6.001335e-01
5.946967e-01
5.889249e-01
5.831747e-01
5.773381e-01
0.000000e+00
1.000000e+00
5.746696e-01
5.759622e-01
5.776575e-01
5.793738e-01
5.810018e-01
5.823702e-01
5.832921e-01
5.836179e-01
5.832892e-01
5.823638e-01
5.809913e-01
5.794238e-01
5.778573e-01
5.761086e-01
5.741493e-01
0.000000e+00
1.000000e+00
5.754392e-01
5.773821e-01
5.798927e-01
5.824347e-01
5.848459e-01
5.868732e-01
5.882402e-01
5.887257e-01
5.882435e-01
5.868796e-01
5.848658e-01
5.825707e-01
5.801355e-01
5.775530e-01
5.746158e-01
0.000000e+00
1.000000e+00
5.763215e-01
5.790506e-01
5.825228e-01
5.860360e-01
5.893687e-01
5.921712e-01
5.940620e-01
5.947365e-01
5.940769e-01
5.922044e-01
5.894523e-01
5.862684e-01
5.827989e-01
5.792441e-01
5.754148e-01
0.000000e+00
1.000000e+00
5.773133e-01
5.809313e-01
5.854904e-01
5.900993e-01
5.944719e-01
5.981495e-01
6.006324e-01
6.015215e-01
6.006631e-01
5.982179e-01
5.946389e-01
5.903919e-01
5.857959e-01
5.811570e-01
5.763256e-01
0.000000e+00
1.000000e+00
5.783687e-01
5.829462e-01
5.886695e-01
5.944522e-01
5.999388e-01
6.045545e-01
6.076729e-01
6.087932e-01
6.077225e-01
6.046660e-01
6.002011e-01
5.947824e-01
5.890005e-01
5.831975e-01
5.772995e-01
0.000000e+00
1.000000e+00
5.794376e-01
5.849815e-01
5.918847e-01
5.988546e-01
6.054683e-01
6.110335e-01
6.147960e-01
6.161521e-01
6.148680e-01
6.111952e-01
6.058100e-01
5.992421e-01
5.922308e-01
5.852512e-01
5.782830e-01
0.000000e+00
1.000000e+00
5.804530e-01
5.868992e-01
5.949185e-01
6.030091e-01
6.106866e-01
6.171487e-01
6.215208e-01
6.231026e-01
6.216204e-01
6.173651e-01
6.110924e-01
6.034756e-01
5.952789e-01
5.871817e-01
5.792050e-01
0.000000e+00
1.000000e+00
5.813368e-01
5.885569e-01
5.975383e-01
6.065950e-01
6.151886e-01
6.224221e-01
6.273193e-01
6.290993e-01
6.274533e-01
6.226920e-01
6.156452e-01
6.071194e-01
5.979195e-01
5.888405e-01
5.799916e-01
0.000000e+00
1.000000e+00
5.820225e-01
5.897966e-01
5.995108e-01
6.092928e-01
6.185740e-01
6.263882e-01
6.316837e-01
6.336205e-01
6.318644e-01
6.267109e-01
6.190804e-01
6.098443e-01
5.999259e-01
5.900955e-01
5.805814e-01
0.000000e+00
1.000000e+00
5.824627e-01
5.905027e-01
6.006579e-01
6.108611e-01
6.205421e-01
6.286949e-01
6.342250e-01
6.362584e-01
6.344470e-01
6.290509e-01
6.210657e-01
6.114423e-01
6.010596e-01
5.907822e-01
5.809719e-01
0.000000e+00
1.000000e+00
5.825873e-01
5.906139e-01
6.008730e-01
6.111547e-01
6.209112e-01
6.291299e-01
6.347078e-01
6.367652e-01
6.349490e-01
6.295089e-01
6.214403e-01
6.117636e-01
6.012121e-01
5.909429e-01
5.810350e-01
0.000000e+00
1.000000e+00
5.823704e-01
5.901272e-01
6.001378e-01
6.101491e-01
6.196502e-01
6.276545e-01
6.330865e-01
6.350883e-01
6.333225e-01
6.280490e-01
6.201589e-01
6.106961e-01
6.004359e-01
5.905181e-01
5.806291e-01
0.000000e+00
1.000000e+00
5.818221e-01
5.890937e-01
5.985171e-01
6.079323e-01
6.168682e-01
6.243951e-01
6.294991e-01
6.313725e-01
6.297109e-01
6.247803e-01
6.173238e-01
6.083939e-01
5.988027e-01
5.895039e-01
5.800727e-01
0.000000e+00
1.000000e+00
5.809927e-01
5.875994e-01
5.961402e-01
6.046799e-01
6.127845e-01
6.196092e-01
6.242322e-01
6.259191e-01
6.244039e-01
6.199431e-01
6.131820e-01
6.050692e-01
5.964180e-01
5.880081e-01
5.792959e-01
0.000000e+00
1.000000e+00
5.799561e-01
5.857446e-01
5.931752e-01
6.006213e-01
6.076877e-01
6.136362e-01
6.176619e-01
6.191221e-01
6.177885e-01
6.139070e-01
6.080342e-01
6.009501e-01
5.934561e-01
5.861187e-01
5.784903e-01
0.000000e+00
1.000000e+00
5.788007e-01
5.836275e-01
5.898032e-01
5.960048e-01
6.018896e-01
6.068422e-01
6.101918e-01