<?xml version="1.0"?>
<VTKFile type="StructuredGrid" version="0.1">
  <StructuredGrid WholeExtent="0 16 0 16 0 16">
    <Piece Extent="0 16 0 16 0 16">
      <PointData Scalars="temperature" Vectors="velocity">
        <DataArray type="Float32" Name="temperature" format="ascii">
1.000000e+00
5.732154e-01
5.730221e-01
5.730485e-01
5.730629e-01
5.730765e-01
5.730878e-01
5.730954e-01
5.730980e-01
5.730953e-01
5.730878e-01
5.730769e-01
5.730634e-01
5.730490e-01
5.730676e-01
5.724309e-01
0.000000e+00
1.000000e+00
5.731765e-01
5.730147e-01
5.730362e-01
5.730454e-01
5.730541e-01
5.730613e-01
5.730660e-01
5.730673e-01
5.730651e-01
5.730597e-01
5.730527e-01
5.730491e-01
5.730449e-01
5.730738e-01
5.723718e-01
0.000000e+00
1.000000e+00
5.730226e-01
5.727746e-01
5.726470e-01
5.725132e-01
5.723863e-01
5.722794e-01
5.722072e-01
5.721810e-01
5.722054e-01
5.722763e-01
5.723834e-01
5.725258e-01
5.726696e-01
5.728561e-01
5.725238e-01
0.000000e+00
1.000000e+00
5.727301e-01
5.722677e-01
5.718464e-01
5.714167e-01
5.710090e-01
5.706663e-01
5.704352e-01
5.703526e-01
5.704329e-01
5.706634e-01
5.710094e-01
5.714571e-01
5.718946e-01
5.723305e-01
5.724045e-01
0.000000e+00
1.000000e+00
5.723373e-01
5.714875e-01
5.706172e-01
5.697332e-01
5.688950e-01
5.681908e-01
5.677164e-01
5.675480e-01
5.677157e-01
5.681932e-01
5.689073e-01
5.698202e-01
5.707116e-01
5.715822e-01
5.718925e-01
0.000000e+00
1.000000e+00
5.717892e-01
5.704450e-01
5.689733e-01
5.674823e-01
5.660688e-01
5.648819e-01
5.640831e-01
5.638015e-01
5.640884e-01
5.648977e-01
5.661026e-01
5.676231e-01
5.691202e-01
5.705830e-01
5.713026e-01
0.000000e+00
1.000000e+00
5.711059e-01
5.691668e-01
5.669608e-01
5.647270e-01
5.626101e-01
5.608336e-01
5.596402e-01
5.592231e-01
5.596586e-01
5.608742e-01
5.626759e-01
5.649244e-01
5.671550e-01
5.693335e-01
5.706903e-01
0.000000e+00
1.000000e+00
5.703353e-01
5.677020e-01
5.646594e-01
5.615767e-01
5.586559e-01
5.562061e-01
5.545629e-01
5.539926e-01
5.545997e-01
5.562790e-01
5.587594e-01
5.618293e-01
5.648988e-01
5.678933e-01
5.700058e-01
0.000000e+00
1.000000e+00
5.695135e-01
5.661211e-01
5.621782e-01
5.581809e-01
5.543942e-01
5.512193e-01
5.490918e-01
5.483574e-01
5.491492e-01
5.513256e-01
5.545357e-01
5.584849e-01
5.624558e-01
5.663322e-01
5.692677e-01
0.000000e+00
1.000000e+00
5.686768e-01
5.645059e-01
5.596448e-01
5.547138e-01
5.500437e-01
5.461294e-01
5.435078e-01
5.426062e-01
5.435853e-01
5.462673e-01
5.502213e-01
5.550626e-01
5.599529e-01
5.647357e-01
5.685099e-01
0.000000e+00
1.000000e+00
5.678798e-01
5.629416e-01
5.571925e-01
5.513580e-01
5.458332e-01
5.412034e-01
5.381042e-01
5.370401e-01
5.381992e-01
5.413698e-01
5.460430e-01
5.517491e-01
5.575211e-01
5.631821e-01
5.677782e-01
0.000000e+00
1.000000e+00
5.671644e-01
5.615081e-01
5.549457e-01
5.482834e-01
5.419757e-01
5.366908e-01
5.331538e-01
5.319400e-01
5.332630e-01
5.368819e-01
5.422135e-01
5.487089e-01
5.552892e-01
5.617583e-01
5.671067e-01
0.000000e+00
1.000000e+00
5.665427e-01
5.602710e-01
5.530071e-01
5.456310e-01
5.386481e-01
5.327979e-01
5.288831e-01
5.275392e-01
5.290032e-01
5.330097e-01
5.389079e-01
5.460854e-01
5.533572e-01
5.605253e-01
5.665270e-01
0.000000e+00
1.000000e+00
5.660549e-01
5.592770e-01
5.514504e-01
5.435011e-01
5.359759e-01
5.296720e-01
5.254529e-01
5.240044e-01
5.255814e-01
5.298986e-01
5.362524e-01
5.439721e-01
5.518053e-01
5.595428e-01
5.660689e-01
0.000000e+00
1.000000e+00
5.657115e-01
5.585510e-01
5.503159e-01
5.419488e-01
5.340288e-01
5.273948e-01
5.229542e-01
5.214275e-01
5.230853e-01
5.276295e-01
5.343187e-01
5.424265e-01
5.506700e-01
5.588225e-01
5.657097e-01
0.000000e+00
1.000000e+00
5.654885e-01
5.580963e-01
5.496116e-01
5.409857e-01
5.328202e-01
5.259797e-01
5.214010e-01
5.198268e-01
5.215355e-01
5.262212e-01
5.331239e-01
5.414557e-01
5.499740e-01
5.583937e-01
5.655653e-01
0.000000e+00
1.000000e+00
5.653215e-01
5.578866e-01
5.493099e-01
5.405767e-01
5.323122e-01
5.253912e-01
5.207613e-01
5.191731e-01
5.209073e-01
5.256542e-01
5.326477e-01
5.410599e-01
5.497148e-01
5.583377e-01
5.649153e-01
0.000000e+00
1.000000e+00
5.731362e-01
5.730226e-01
5.730648e-01
5.730841e-01
5.731022e-01
5.731173e-01
5.731274e-01
5.731310e-01
5.731272e-01
5.731164e-01
5.731004e-01
5.730812e-01
5.730589e-01
5.730211e-01
5.729614e-01
0.000000e+00
1.000000e+00
5.730088e-01
5.727939e-01
5.726929e-01
5.725745e-01
5.724621e-01
5.723675e-01
5.723035e-01
5.722805e-01
5.723021e-01
5.723640e-01
5.724589e-01
5.725768e-01
5.726913e-01
5.728231e-01
5.723217e-01
0.000000e+00
1.000000e+00
5.726976e-01
5.723008e-01
5.719044e-01
5.714945e-01
5.711056e-01
5.707783e-01
5.705573e-01
5.704780e-01
5.705537e-01
5.707715e-01
5.711023e-01
5.715142e-01
5.719203e-01
5.723685e-01
5.724457e-01
0.000000e+00
1.000000e+00
5.722868e-01
5.715190e-01
5.706664e-01
5.697995e-01
5.689770e-01
5.682854e-01
5.678188e-01
5.676524e-01
5.678152e-01
5.682816e-01
5.689853e-01
5.698502e-01
5.707139e-01
5.715851e-01
5.720372e-01
0.000000e+00
1.000000e+00
5.717409e-01
5.704478e-01
5.689758e-01
5.674844e-01
5.660699e-01
5.648811e-01
5.640803e-01
5.637968e-01
5.640817e-01
5.648904e-01
5.661024e-01
5.675767e-01
5.690633e-01
5.705341e-01
5.714391e-01
0.000000e+00
1.000000e+00
5.710326e-01
5.691059e-01
5.668615e-01
5.645893e-01
5.624348e-01
5.606254e-01
5.594084e-01
5.589814e-01
5.594223e-01
5.606592e-01
5.625019e-01
5.647322e-01
5.669962e-01
5.692231e-01
5.707479e-01
0.000000e+00
1.000000e+00
5.702034e-01
5.675342e-01
5.643908e-01
5.612067e-01
5.581884e-01
5.556552e-01
5.539543e-01
5.533623e-01
5.539872e-01
5.557220e-01
5.582951e-01
5.614049e-01
5.645726e-01
5.676791e-01
5.699691e-01
0.000000e+00
1.000000e+00
5.693101e-01
5.657999e-01
5.616689e-01
5.574805e-01
5.535114e-01
5.501822e-01
5.479500e-01
5.471780e-01
5.480056e-01
5.502851e-01
5.536583e-01
5.577328e-01
5.618941e-01
5.659713e-01
5.691476e-01
0.000000e+00
1.000000e+00
5.683880e-01
5.639900e-01
5.588309e-01
5.535959e-01
5.486365e-01
5.444787e-01
5.416934e-01
5.407342e-01
5.417718e-01
5.446176e-01
5.488222e-01
5.539036e-01
5.590937e-01
5.641797e-01
5.682883e-01
0.000000e+00
1.000000e+00
5.674716e-01
5.622013e-01
5.560284e-01
5.497607e-01
5.438244e-01
5.388494e-01
5.355188e-01
5.343746e-01
5.356183e-01
5.390227e-01
5.440467e-01
5.501213e-01
5.563240e-01
5.624099e-01
5.674466e-01
0.000000e+00
1.000000e+00
5.666266e-01
5.605317e-01
5.534134e-01
5.461825e-01
5.393355e-01
5.335985e-01
5.297595e-01
5.284417e-01
5.298772e-01
5.338023e-01
5.395890e-01
5.465946e-01
5.537340e-01
5.607476e-01
5.666593e-01
0.000000e+00
1.000000e+00
5.658952e-01
5.590678e-01
5.511199e-01
5.430448e-01
5.353994e-01
5.289947e-01
5.247093e-01
5.232388e-01
5.248414e-01
5.292230e-01
5.356782e-01
5.435007e-01
5.514626e-01
5.592921e-01
5.659664e-01
0.000000e+00
1.000000e+00
5.652911e-01
5.578746e-01
5.492507e-01
5.404881e-01
5.321925e-01
5.252435e-01
5.205940e-01
5.189982e-01
5.207354e-01
5.254906e-01
5.324900e-01
5.409793e-01
5.496071e-01
5.580979e-01
5.654002e-01
0.000000e+00
1.000000e+00
5.648619e-01
5.569943e-01
5.478700e-01
5.385993e-01
5.298237e-01
5.224727e-01
5.175534e-01
5.158648e-01
5.177016e-01
5.227334e-01
5.301364e-01
5.391091e-01
5.482361e-01
5.572205e-01
5.649895e-01
0.000000e+00
1.000000e+00
5.646045e-01
5.564387e-01
5.470016e-01
5.374117e-01
5.283347e-01
5.207316e-01
5.156423e-01
5.138931e-01
5.157919e-01
5.209985e-01
5.286619e-01
5.379251e-01
5.473628e-01
5.566656e-01
5.647274e-01
0.000000e+00
1.000000e+00
5.644919e-01
5.561992e-01
5.466327e-01
5.369077e-01
5.277024e-01
5.199917e-01
5.148309e-01
5.130574e-01
5.149833e-01
5.202654e-01
5.280496e-01
5.373936e-01
5.469899e-01
5.564748e-01
5.646352e-01
0.000000e+00
1.000000e+00
5.647290e-01
5.562276e-01
5.467323e-01
5.370469e-01
5.278804e-01
5.202025e-01
5.150633e-01
5.132963e-01
5.152132e-01
5.204740e-01
5.282347e-01
5.375100e-01
5.471598e-01
5.568977e-01
5.636436e-01
0.000000e+00
1.000000e+00
5.733221e-01
5.732705e-01
5.734519e-01
5.736128e-01
5.737654e-01
5.738938e-01
5.739803e-01
5.740107e-01
5.739790e-01
5.738906e-01
5.737600e-01
5.736062e-01
5.734543e-01
5.732892e-01
5.734720e-01
0.000000e+00
1.000000e+00
5.730542e-01
5.728073e-01
5.727056e-01
5.725915e-01
5.724833e-01
5.723924e-01
5.723310e-01
5.723088e-01
5.723289e-01
5.723876e-01
5.724807e-01
5.725951e-01
5.727113e-01
5.728164e-01
5.731364e-01
0.000000e+00
1.000000e+00
5.726213e-01
5.720428e-01
5.714984e-01
5.709384e-01
5.704075e-01
5.699612e-01
5.696603e-01
5.695531e-01
5.696577e-01
5.699573e-01
5.704164e-01
5.709700e-01
5.715223e-01
5.720697e-01
5.726366e-01
0.000000e+00
1.000000e+00
5.720430e-01
5.709652e-01
5.698027e-01
5.686164e-01
5.674915e-01
5.665463e-01
5.659096e-01
5.656844e-01
5.659105e-01
5.665537e-01
5.675225e-01
5.686887e-01
5.698658e-01
5.710167e-01
5.719259e-01
0.000000e+00
1.000000e+00
5.713040e-01
5.695822e-01
5.676259e-01
5.656357e-01
5.637487e-01
5.621639e-01
5.610979e-01
5.607237e-01
5.611094e-01
5.621957e-01
5.638134e-01
5.657506e-01
5.677239e-01
5.696663e-01
5.711676e-01
0.000000e+00
1.000000e+00
5.704224e-01
5.679209e-01
5.650159e-01
5.620619e-01
5.592616e-01
5.569113e-01
5.553332e-01
5.547837e-01
5.553636e-01
5.569786e-01
5.593701e-01
5.622271e-01
5.651576e-01
5.680412e-01
5.703074e-01
0.000000e+00
1.000000e+00
5.694445e-01
5.660390e-01
5.620644e-01
5.580209e-01
5.541890e-01
5.509749e-01
5.488201e-01
5.480751e-01
5.488750e-01
5.510812e-01
5.543431e-01
5.582392e-01
5.622489e-01
5.661923e-01
5.693722e-01
0.000000e+00
1.000000e+00
5.684212e-01
5.640237e-01
5.589058e-01
5.536965e-01
5.487615e-01
5.446248e-01
5.418545e-01
5.409012e-01
5.419348e-01
5.447703e-01
5.489613e-01
5.539713e-01
5.591285e-01
5.642030e-01
5.683900e-01
0.000000e+00
1.000000e+00
5.673895e-01
5.619804e-01
5.557046e-01
5.493145e-01
5.432628e-01
5.381925e-01
5.347995e-01
5.336349e-01
5.349039e-01
5.383767e-01
5.435064e-01
5.496499e-01
5.559672e-01
5.621790e-01
5.674094e-01
0.000000e+00
1.000000e+00
5.664077e-01
5.600223e-01
5.526387e-01
5.451187e-01
5.379990e-01
5.320355e-01
5.280467e-01
5.266789e-01
5.281726e-01
5.322554e-01
5.382813e-01
5.455139e-01
5.529367e-01
5.602368e-01
5.664749e-01
0.000000e+00
1.000000e+00
5.655344e-01
5.582599e-01
5.498789e-01
5.413426e-01
5.332620e-01
5.264950e-01
5.219695e-01
5.204181e-01
5.221131e-01
5.267446e-01
5.335744e-01
5.417947e-01
5.502113e-01
5.584803e-01
5.656357e-01
0.000000e+00
1.000000e+00
5.648028e-01
5.567846e-01
5.475672e-01
5.381801e-01
5.292954e-01
5.218556e-01
5.168798e-01
5.151738e-01
5.170361e-01
5.221275e-01
5.296295e-01
5.386755e-01
5.479342e-01
5.570091e-01
5.649280e-01
0.000000e+00
1.000000e+00
5.642359e-01
5.556597e-01
5.458029e-01
5.357677e-01
5.262696e-01
5.183160e-01
5.129959e-01
5.111708e-01
5.131591e-01
5.186038e-01
5.266193e-01
5.362900e-01
5.461989e-01
5.558777e-01
5.643901e-01
0.000000e+00
1.000000e+00
5.638598e-01
5.549188e-01
5.446370e-01
5.341739e-01
5.242706e-01
5.159767e-01
5.104276e-01
5.085236e-01
5.105956e-01
5.162757e-01
5.246347e-01
5.347018e-01
5.450506e-01
5.551334e-01
5.640260e-01
0.000000e+00
1.000000e+00
5.636970e-01
5.545567e-01
5.440722e-01
5.334025e-01
5.233042e-01
5.148462e-01
5.091857e-01
5.072412e-01
5.093536e-01
5.151487e-01
5.236852e-01
5.339181e-01
5.444748e-01
5.547734e-01
5.638680e-01
0.000000e+00
1.000000e+00
5.637025e-01
5.545583e-01
5.440733e-01
5.334040e-01
5.233058e-01
5.148482e-01
5.091885e-01
5.072442e-01
5.093568e-01
5.151538e-01
5.237061e-01
5.338771e-01
5.444685e-01
5.548504e-01
5.638430e-01
0.000000e+00
1.000000e+00
5.640856e-01
5.548543e-01
5.445824e-01
5.341039e-01
5.241872e-01
5.158813e-01
5.103222e-01
5.084113e-01
5.104852e-01
5.161798e-01
5.245899e-01
5.345405e-01
5.450327e-01
5.555977e-01
5.629334e-01
0.000000e+00
1.000000e+00
5.736044e-01
5.737789e-01
5.742379e-01
5.746906e-01
5.751200e-01
5.754810e-01
5.757241e-01
5.758096e-01
5.757226e-01
5.754796e-01
5.751218e-01
5.746967e-01
5.742699e-01
5.738269e-01
5.732371e-01
0.000000e+00
1.000000e+00
5.731677e-01
5.730781e-01
5.731243e-01
5.731653e-01
5.732043e-01
5.732369e-01
5.732585e-01
5.732648e-01
5.732538e-01
5.732283e-01
5.732011e-01
5.731759e-01
5.731601e-01
5.731084e-01
5.730920e-01
0.000000e+00
1.000000e+00
5.726275e-01
5.720435e-01
5.714964e-01
5.709362e-01
5.704050e-01
5.699587e-01
5.696578e-01
5.695503e-01
5.696544e-01
5.699542e-01
5.704235e-01
5.709759e-01
5.715373e-01
5.720658e-01
5.725634e-01
0.000000e+00
1.000000e+00
5.719286e-01
5.706684e-01
5.693375e-01
5.679805e-01
5.666939e-01
5.656133e-01
5.648861e-01
5.646301e-01
5.648907e-01
5.656293e-01
5.667476e-01
5.680694e-01
5.694192e-01
5.707383e-01
5.716339e-01
0.000000e+00
1.000000e+00
5.710222e-01
5.689667e-01
5.666681e-01
5.643251e-01
5.621044e-01
5.602405e-01
5.589886e-01
5.585519e-01
5.590101e-01
5.602938e-01
5.621987e-01
5.644684e-01
5.667921e-01
5.690787e-01
5.707425e-01
0.000000e+00
1.000000e+00
5.699812e-01
5.669796e-01
5.635556e-01
5.600632e-01
5.567538e-01
5.539782e-01
5.521170e-01
5.514731e-01
5.521637e-01
5.540778e-01
5.568934e-01
5.602567e-01
5.637172e-01
5.671211e-01
5.697600e-01
0.000000e+00
1.000000e+00
5.688543e-01
5.647835e-01
5.601190e-01
5.553578e-01
5.508476e-01
5.470674e-01
5.445362e-01
5.436655e-01
5.446112e-01
5.472129e-01
5.510378e-01
5.556052e-01
5.603146e-01
5.649558e-01
5.686988e-01
0.000000e+00
1.000000e+00
5.676951e-01
5.624860e-01
5.565239e-01
5.504356e-01
5.446706e-01
5.398417e-01
5.366112e-01
5.355035e-01
5.367139e-01
5.400312e-01
5.449142e-01
5.507458e-01
5.567526e-01
5.626872e-01
5.676091e-01
0.000000e+00
1.000000e+00
5.665509e-01
5.602121e-01
5.529664e-01
5.455661e-01
5.385614e-01
5.326963e-01
5.287750e-01
5.274317e-01
5.289028e-01
5.329272e-01
5.388540e-01
5.459454e-01
5.532321e-01
5.604349e-01
5.665301e-01
0.000000e+00
1.000000e+00
5.655004e-01
5.580947e-01
5.496527e-01
5.410313e-01
5.328727e-01
5.260432e-01
5.214778e-01
5.199144e-01
5.216271e-01
5.263097e-01
5.332057e-01
5.414798e-01
5.499551e-01
5.583384e-01
5.655248e-01
0.000000e+00
1.000000e+00
5.645968e-01
5.562564e-01
5.467718e-01
5.370890e-01
5.279275e-01
5.202594e-01
5.151329e-01
5.133769e-01
5.152986e-01
5.205534e-01
5.282891e-01
5.375981e-01
5.471123e-01
5.565028e-01
5.646410e-01
0.000000e+00
1.000000e+00
5.638728e-01
5.547905e-01
5.444710e-01
5.339416e-01
5.239796e-01
5.156409e-01
5.100654e-01
5.081543e-01
5.102418e-01
5.159536e-01
5.243596e-01
5.344872e-01
5.448611e-01
5.550318e-01
5.639308e-01
0.000000e+00
1.000000e+00
5.633488e-01
5.537553e-01
5.428430e-01
5.317158e-01
5.211875e-01
5.123738e-01
5.064794e-01
5.044571e-01
5.066603e-01
5.126987e-01
5.215801e-01
5.322684e-01
5.432802e-01
5.539821e-01
5.634322e-01
0.000000e+00
1.000000e+00
5.630311e-01
5.531729e-01
5.419212e-01
5.304558e-01
5.196065e-01
5.105229e-01
5.044473e-01
5.023625e-01
5.046318e-01
5.108581e-01
5.200148e-01
5.309898e-01
5.423848e-01
5.533907e-01
5.631450e-01
0.000000e+00
1.000000e+00
5.629884e-01
5.530197e-01
5.416860e-01
5.301356e-01
5.192049e-01
5.100515e-01
5.039277e-01
5.018249e-01
5.041120e-01
5.103881e-01
5.196305e-01
5.306383e-01
5.421204e-01
5.532410e-01
5.631028e-01
0.000000e+00
1.000000e+00
5.630968e-01
5.532688e-01
5.420718e-01
5.306647e-01
5.198697e-01
5.108297e-01
5.047815e-01
5.027048e-01
5.049644e-01
5.111652e-01
5.203075e-01
5.311316e-01
5.424982e-01
5.535812e-01
5.631809e-01
0.000000e+00
1.000000e+00
5.636030e-01
5.538358e-01
5.429967e-01
5.319341e-01
5.214654e-01
5.126985e-01
5.068321e-01
5.048171e-01
5.070085e-01
5.130244e-01
5.218989e-01
5.323759e-01
5.434688e-01
5.545702e-01
5.624883e-01
0.000000e+00
1.000000e+00
5.739811e-01
5.745540e-01
5.754569e-01
5.763594e-01
5.772152e-01
5.779343e-01
5.784185e-01
5.785892e-01
5.784166e-01
5.779340e-01
5.772276e-01
5.763843e-01
5.755266e-01
5.746481e-01
5.733324e-01
0.000000e+00
1.000000e+00
5.734548e-01
5.736271e-01
5.739845e-01
5.743432e-01
5.746833e-01
5.749689e-01
5.751607e-01
5.752268e-01
5.751547e-01
5.749580e-01
5.746819e-01
5.743655e-01
5.740588e-01
5.737100e-01
5.731503e-01
0.000000e+00
1.000000e+00
5.727802e-01
5.723360e-01
5.719496e-01
5.715571e-01
5.711849e-01
5.708719e-01
5.706605e-01
5.705842e-01
5.706560e-01
5.708662e-01
5.712088e-01
5.716072e-01
5.720335e-01
5.723928e-01
5.725303e-01
0.000000e+00
1.000000e+00
5.719080e-01
5.706734e-01
5.693416e-01
5.679860e-01
5.667011e-01
5.656225e-01
5.648977e-01
5.646428e-01
5.649037e-01
5.656424e-01
5.667752e-01
5.680839e-01
5.694438e-01
5.707714e-01
5.715234e-01
0.000000e+00
1.000000e+00
5.708871e-01
5.686628e-01
5.661935e-01
5.636756e-01
5.612894e-01
5.592877e-01
5.579451e-01
5.574788e-01
5.579736e-01
5.593556e-01
5.614145e-01
5.638389e-01
5.663456e-01
5.688117e-01
5.705764e-01
0.000000e+00
1.000000e+00
5.697151e-01
5.663614e-01
5.625935e-01
5.587463e-01
5.551019e-01
5.520472e-01
5.500015e-01
5.492970e-01
5.500610e-01
5.521723e-01
5.552727e-01
5.589668e-01
5.627840e-01
5.665389e-01
5.694723e-01
0.000000e+00
1.000000e+00
5.684627e-01
5.638616e-01
5.586886e-01
5.534003e-01
5.483933e-01
5.441991e-01
5.413935e-01
5.404318e-01
5.414848e-01
5.443786e-01
5.486138e-01
5.536765e-01
5.589111e-01
5.640674e-01
5.682527e-01
0.000000e+00
1.000000e+00
5.671853e-01
5.612928e-01
5.546768e-01
5.479086e-01
5.415034e-01
5.361412e-01
5.325569e-01
5.313303e-01
5.326774e-01
5.363711e-01
5.417808e-01
5.482513e-01
5.549297e-01
5.615242e-01
5.670137e-01
0.000000e+00
1.000000e+00
5.659515e-01
5.588013e-01
5.507868e-01
5.425849e-01
5.348261e-01
5.283333e-01
5.239941e-01
5.225094e-01
5.241403e-01
5.286072e-01
5.351578e-01
5.430073e-01
5.510730e-01
5.590525e-01
5.658333e-01
0.000000e+00
1.000000e+00
5.648401e-01
5.565404e-01
5.472524e-01
5.377484e-01
5.287604e-01
5.212400e-01
5.162136e-01
5.144933e-01
5.163806e-01
5.215489e-01
5.291357e-01
5.382492e-01
5.475736e-01
5.568107e-01
5.647729e-01
0.000000e+00
1.000000e+00
5.639019e-01
5.546429e-01
5.442788e-01
5.336797e-01
5.236570e-01
5.152705e-01
5.096643e-01
5.077440e-01
5.098463e-01
5.156040e-01
5.240617e-01
5.342439e-01
5.446427e-01
5.549080e-01
5.638777e-01
0.000000e+00
1.000000e+00
5.631715e-01
5.532029e-01
5.420171e-01
5.305856e-01
5.197752e-01
5.107284e-01
5.046793e-01
5.026052e-01
5.048701e-01
5.110755e-01
5.201983e-01
5.311768e-01
5.424444e-01
5.534716e-01
5.631915e-01
0.000000e+00
1.000000e+00
5.626768e-01
5.522733e-01
5.405497e-01
5.285793e-01
5.172570e-01
5.077801e-01
5.014419e-01
4.992663e-01
5.016363e-01
5.081364e-01
5.176923e-01
5.291543e-01
5.410357e-01
5.525479e-01
5.627431e-01
0.000000e+00
1.000000e+00
5.624350e-01
5.518583e-01
5.398883e-01
5.276756e-01
5.161229e-01
5.064524e-01
4.999843e-01
4.977633e-01
5.001803e-01
5.068168e-01
5.165736e-01
5.282075e-01
5.404014e-01
5.521562e-01
5.625182e-01
0.000000e+00
1.000000e+00
5.625004e-01
5.519229e-01
5.399904e-01
5.278150e-01
5.162961e-01
5.066528e-01
5.002026e-01
4.979888e-01
5.004001e-01
5.070191e-01
5.167601e-01
5.283052e-01
5.404711e-01
5.522088e-01
5.625707e-01
0.000000e+00
1.000000e+00
5.627483e-01
5.524199e-01
5.407629e-01
5.288724e-01
5.176220e-01
5.082028e-01
5.019024e-01
4.997406e-01
5.020971e-01
5.085638e-01
5.180808e-01
5.293443e-01
5.412413e-01
5.527677e-01
5.627721e-01
0.000000e+00
1.000000e+00
5.633440e-01
5.532515e-01
5.420916e-01
5.306952e-01
5.199122e-01
5.108836e-01
5.048438e-01
5.027711e-01
5.050309e-01
5.112322e-01
5.203531e-01
5.311821e-01
5.425961e-01
5.539384e-01
5.622168e-01
0.000000e+00
1.000000e+00
5.745345e-01
5.755909e-01
5.770899e-01
5.785961e-01
5.800243e-01
5.812243e-01
5.820322e-01
5.823163e-01
5.820297e-01
5.812318e-01
5.800664e-01
5.786631e-01
5.772161e-01
5.757303e-01
5.737024e-01
0.000000e+00
1.000000e+00
5.738961e-01
5.744562e-01
5.752917e-01
5.761330e-01
5.769307e-01
5.776008e-01
5.780514e-01
5.782084e-01
5.780433e-01
5.775876e-01
5.769381e-01
5.761776e-01
5.754193e-01
5.745934e-01
5.733830e-01
0.000000e+00
1.000000e+00
5.730606e-01
5.729330e-01
5.728818e-01
5.728328e-01
5.727861e-01
5.727465e-01
5.727191e-01
5.727072e-01
5.727126e-01
5.727380e-01
5.728082e-01
5.728956e-01
5.730204e-01
5.730375e-01
5.726785e-01
0.000000e+00
1.000000e+00
5.720574e-01
5.710047e-01
5.698566e-01
5.686908e-01
5.675858e-01
5.666587e-01
5.660369e-01
5.658194e-01
5.660458e-01
5.666811e-01
5.676749e-01
5.688025e-01
5.700055e-01
5.711276e-01
5.715678e-01
0.000000e+00
1.000000e+00
5.708934e-01
5.687104e-01
5.662664e-01
5.637746e-01
5.614142e-01
5.594362e-01
5.581121e-01
5.576532e-01
5.581449e-01
5.595130e-01
5.615719e-01
5.639442e-01
5.664480e-01
5.688868e-01
5.704604e-01
0.000000e+00
1.000000e+00
5.695950e-01
5.661223e-01
5.622197e-01
5.582347e-01
5.544614e-01
5.513002e-01
5.491858e-01
5.484598e-01
5.492535e-01
5.514419e-01
5.546684e-01
5.584734e-01
5.624432e-01
5.663277e-01
5.692598e-01
0.000000e+00
1.000000e+00
5.682586e-01
5.633498e-01
5.578907e-01
5.523085e-01
5.470252e-01
5.426017e-01
5.396452e-01
5.386347e-01
5.397480e-01
5.428051e-01
5.472803e-01
5.526080e-01
5.581432e-01
5.635831e-01
5.679697e-01
0.000000e+00
1.000000e+00
5.668935e-01
5.605398e-01
5.535061e-01
5.463082e-01
5.394997e-01
5.338023e-01
5.299954e-01
5.286942e-01
5.301277e-01
5.340606e-01
5.398089e-01
5.466758e-01
5.537843e-01
5.607991e-01
5.666697e-01
0.000000e+00
1.000000e+00
5.656319e-01
5.578612e-01
5.493264e-01
5.405906e-01
5.323310e-01
5.254207e-01
5.208028e-01
5.192232e-01
5.209601e-01
5.257250e-01
5.326933e-01
5.410391e-01
5.496389e-01
5.581417e-01
5.654274e-01
0.000000e+00
1.000000e+00
5.644812e-01
5.554806e-01
5.456096e-01
5.355076e-01
5.259584e-01
5.179688e-01
5.126280e-01
5.107994e-01
5.128048e-01
5.183078e-01
5.263662e-01
5.360334e-01
5.459640e-01
5.557734e-01
5.642975e-01
0.000000e+00
1.000000e+00
5.634998e-01
5.535390e-01
5.425763e-01
5.313589e-01
5.207554e-01
5.118822e-01
5.059491e-01
5.039155e-01
5.061397e-01
5.122431e-01
5.211975e-01
5.319420e-01
5.429817e-01
5.538333e-01
5.633461e-01
0.000000e+00
1.000000e+00
5.627600e-01
5.521371e-01
5.403794e-01
5.283527e-01
5.169820e-01
5.074655e-01
5.011008e-01
4.989173e-01
5.012996e-01
5.078372e-01
5.174482e-01
5.289537e-01
5.408432e-01
5.524468e-01
5.626438e-01
0.000000e+00
1.000000e+00
5.622814e-01
5.513244e-01
5.390887e-01
5.265845e-01
5.147594e-01
5.048614e-01
4.982408e-01
4.959685e-01
4.984454e-01
5.052421e-01
5.152424e-01
5.271602e-01
5.395961e-01
5.516578e-01
5.622215e-01
0.000000e+00
1.000000e+00
5.621858e-01
5.510767e-01
5.386932e-01
5.260427e-01
5.140774e-01
5.040611e-01
4.973609e-01
4.950602e-01
4.975656e-01
5.044465e-01
5.145691e-01
5.265646e-01
5.391886e-01
5.514685e-01
5.620464e-01
0.000000e+00
1.000000e+00
5.622983e-01
5.513486e-01
5.391153e-01
5.266196e-01
5.148013e-01
5.049091e-01
4.982933e-01
4.960236e-01
4.984993e-01
5.052975e-01
5.152977e-01
5.271114e-01
5.395941e-01
5.517456e-01
5.622118e-01
0.000000e+00
1.000000e+00
5.626739e-01
5.520844e-01
5.402524e-01
5.281726e-01
5.167463e-01
5.071822e-01
5.007862e-01
4.985933e-01
5.009887e-01
5.075619e-01
5.172185e-01
5.286713e-01
5.407506e-01
5.525159e-01
5.625465e-01
0.000000e+00
1.000000e+00
5.633266e-01
5.531605e-01
5.419528e-01
5.305037e-01
5.196729e-01
5.106065e-01
5.045433e-01
5.024651e-01
5.047378e-01
5.109712e-01
5.201156e-01
5.310446e-01
5.424360e-01
5.537472e-01
5.624220e-01
0.000000e+00
1.000000e+00
5.752259e-01
5.768596e-01
5.790938e-01
5.813400e-01
5.834702e-01
5.852608e-01
5.864670e-01
5.868930e-01
5.864704e-01
5.852917e-01
5.835610e-01
5.814644e-01
5.792701e-01
5.770429e-01
5.743653e-01
0.000000e+00
1.000000e+00
5.744883e-01
5.755477e-01
5.770095e-01
5.784859e-01
5.798861e-01
5.810625e-01
5.818541e-01
5.821321e-01
5.818470e-01
5.810559e-01
5.799245e-01
5.785815e-01
5.772068e-01
5.757326e-01
5.739499e-01
0.000000e+00
1.000000e+00
5.735161e-01
5.738194e-01
5.742734e-01
5.747383e-01
5.751789e-01
5.755484e-01
5.757959e-01
5.758803e-01
5.757858e-01
5.755337e-01
5.751992e-01
5.748219e-01
5.744738e-01
5.739850e-01
5.732039e-01
0.000000e+00
1.000000e+00
5.723610e-01
5.716672e-01
5.708878e-01
5.701015e-01
5.693560e-01
5.687311e-01
5.683133e-01
5.681688e-01
5.683239e-01
5.687540e-01
5.694512e-01
5.702374e-01
5.710986e-01
5.718305e-01
5.720212e-01
0.000000e+00
1.000000e+00
5.710832e-01
5.691265e-01
5.669153e-01
5.646619e-01
5.625281e-01
5.607421e-01
5.595496e-01
5.591400e-01
5.595876e-01
5.608225e-01
5.627090e-01
5.648435e-01
5.671480e-01
5.693439e-01
5.708201e-01
0.000000e+00
1.000000e+00
5.696888e-01
5.662916e-01
5.624867e-01
5.585992e-01
5.549199e-01
5.518416e-01
5.497857e-01
5.490806e-01
5.498566e-01
5.519909e-01
5.551649e-01
5.588389e-01
5.627458e-01
5.665494e-01
5.694902e-01
0.000000e+00
1.000000e+00
5.682225e-01
5.632904e-01
5.578003e-01
5.521856e-01
5.468753e-01
5.424300e-01
5.394615e-01
5.384481e-01
5.395700e-01
5.426469e-01
5.471693e-01
5.524926e-01
5.580885e-01
5.635676e-01
5.680082e-01
0.000000e+00
1.000000e+00
5.668347e-01
5.602886e-01
5.531126e-01
5.457718e-01
5.388320e-01
5.330240e-01
5.291448e-01
5.278207e-01
5.292841e-01
5.332979e-01
5.391773e-01
5.461458e-01
5.534171e-01
5.605756e-01
5.665118e-01
0.000000e+00
1.000000e+00
5.655359e-01
5.574677e-01
5.487059e-01
5.397477e-01
5.312800e-01
5.241951e-01
5.194595e-01
5.178399e-01
5.196216e-01
5.245130e-01
5.316753e-01
5.401991e-01
5.490365e-01
5.577676e-01
5.651558e-01
0.000000e+00
1.000000e+00
5.644340e-01
5.550056e-01
5.448588e-01
5.344926e-01
5.246926e-01
5.164903e-01
5.110054e-01
5.091266e-01
5.111854e-01
5.168412e-01
5.251298e-01
5.350147e-01
5.452230e-01
5.553126e-01
5.640093e-01
0.000000e+00
1.000000e+00
5.634627e-01
5.530439e-01
5.418039e-01
5.303172e-01
5.194557e-01
5.103629e-01
5.042808e-01
5.021949e-01
5.044737e-01
5.107351e-01
5.199276e-01
5.308890e-01
5.422060e-01
5.533621e-01
5.631376e-01
0.000000e+00
1.000000e+00
5.626835e-01
5.516869e-01
5.396931e-01
5.274256e-01
5.158248e-01
5.061125e-01
4.996153e-01
4.973855e-01
4.998169e-01
5.064973e-01
5.163267e-01
5.280128e-01
5.401291e-01
5.520289e-01
5.625646e-01
0.000000e+00
1.000000e+00
5.621933e-01
5.509820e-01
5.385776e-01
5.258934e-01
5.138987e-01
5.038579e-01
4.971416e-01
4.948370e-01
4.973503e-01
5.042538e-01
5.144210e-01
5.264626e-01
5.390284e-01
5.513682e-01
5.622566e-01
0.000000e+00
1.000000e+00
5.621743e-01
5.508938e-01
5.384304e-01
5.256883e-01
5.136382e-01
5.035513e-01
4.968043e-01
4.944892e-01
4.970147e-01
5.039522e-01
5.141609e-01
5.262257e-01
5.388709e-01
5.513600e-01
5.622118e-01
0.000000e+00
1.000000e+00
5.623760e-01
5.513561e-01
5.391472e-01
5.266666e-01
5.148653e-01
5.049884e-01
4.983834e-01
4.961186e-01
4.985933e-01
5.053893e-01
5.153774e-01
5.271998e-01
5.395957e-01
5.518465e-01
5.624454e-01
0.000000e+00
1.000000e+00
5.628325e-01
5.523017e-01
5.406025e-01
5.286522e-01
5.173514e-01
5.078941e-01
5.015713e-01
4.994054e-01
5.017773e-01
5.082845e-01
5.178307e-01
5.291932e-01
5.410609e-01
5.527970e-01
5.628028e-01
0.000000e+00
1.000000e+00
5.635306e-01
5.535897e-01
5.426229e-01
5.314186e-01
5.208217e-01
5.119532e-01
5.060248e-01
5.039957e-01
5.062229e-01
5.123269e-01
5.212695e-01
5.319938e-01
5.430516e-01
5.540489e-01
5.631465e-01
0.000000e+00
1.000000e+00
5.759878e-01
5.783168e-01
5.813921e-01
5.844862e-01
5.874211e-01
5.898891e-01
5.915536e-01
5.921450e-01
5.915706e-01
5.899567e-01
5.875658e-01
5.846642e-01
5.816116e-01
5.785608e-01
5.750442e-01
0.000000e+00
1.000000e+00
5.751736e-01
5.768594e-01
5.790724e-01
5.813112e-01
5.834348e-01
5.852197e-01
5.864217e-01
5.868456e-01
5.864184e-01
5.852315e-01
5.835226e-01
5.814689e-01
5.793252e-01
5.771026e-01
5.744774e-01
0.000000e+00
1.000000e+00
5.741222e-01
5.749583e-01
5.760664e-01
5.771940e-01
5.782634e-01
5.791613e-01
5.797643e-01
5.799739e-01
5.797528e-01
5.791450e-01
5.782965e-01
5.773199e-01
5.763391e-01
5.752404e-01
5.735219e-01
0.000000e+00
1.000000e+00
5.728446e-01
5.726310e-01
5.723917e-01
5.721602e-01
5.719402e-01
5.717560e-01
5.716340e-01
5.715934e-01
5.716417e-01
5.717731e-01
5.720280e-01
5.723167e-01
5.726552e-01
5.729526e-01
5.720541e-01
0.000000e+00
1.000000e+00
5.714297e-01
5.699014e-01
5.681185e-01
5.663076e-01
5.645924e-01
5.631586e-01
5.622053e-01
5.618838e-01
5.622487e-01
5.632385e-01
5.647811e-01
5.665167e-01
5.684203e-01
5.703299e-01
5.704911e-01
0.000000e+00
1.000000e+00
5.699278e-01
5.668727e-01
5.633939e-01
5.598390e-01
5.564767e-01
5.536688e-01
5.517988e-01
5.511617e-01
5.518702e-01
5.538173e-01
5.567501e-01
5.600894e-01
5.637151e-01
5.674133e-01
5.691381e-01
0.000000e+00
1.000000e+00
5.684257e-01
5.636951e-01
5.584392e-01
5.530605e-01
5.479778e-01
5.437281e-01
5.408902e-01
5.399210e-01
5.409955e-01
5.439441e-01
5.483050e-01
5.533607e-01
5.587758e-01
5.642678e-01
5.680065e-01
0.000000e+00
1.000000e+00
5.669813e-01
5.605553e-01
5.535337e-01
5.463536e-01
5.395683e-01
5.338877e-01
5.300940e-01
5.287998e-01
5.302336e-01
5.341635e-01
5.399444e-01
5.467142e-01
5.538827e-01
5.610875e-01
5.667373e-01
0.000000e+00
1.000000e+00
5.656941e-01
5.576484e-01
5.489806e-01
5.401317e-01
5.317671e-01
5.247636e-01
5.200836e-01
5.184839e-01
5.202460e-01
5.250827e-01
5.321910e-01
5.405574e-01
5.493404e-01
5.581182e-01
5.654658e-01
0.000000e+00
1.000000e+00
5.646758e-01
5.551677e-01
5.450715e-01
5.347932e-01
5.250708e-01
5.169302e-01
5.114856e-01
5.096209e-01
5.116641e-01
5.172783e-01
5.255330e-01
5.352782e-01
5.454447e-01
5.555643e-01
5.643189e-01
0.000000e+00
1.000000e+00
5.639318e-01
5.532435e-01
5.420407e-01
5.306495e-01
5.198703e-01
5.108432e-01
5.048047e-01
5.027338e-01
5.049958e-01
5.112126e-01
5.203626e-01
5.311780e-01
5.424311e-01
5.536284e-01
5.633223e-01
0.000000e+00
1.000000e+00
5.629532e-01
5.519174e-01
5.400282e-01
5.278910e-01
5.164077e-01
5.067920e-01
5.003593e-01
4.981525e-01
5.005611e-01
5.071789e-01
5.169273e-01
5.284416e-01
5.404363e-01
5.524324e-01
5.625664e-01
0.000000e+00
1.000000e+00
5.626111e-01
5.513002e-01
5.390814e-01
5.265892e-01
5.147730e-01
5.048794e-01
4.982607e-01
4.959894e-01
4.984668e-01
5.052747e-01
5.152992e-01
5.271414e-01
5.395108e-01
5.519792e-01
5.621383e-01
0.000000e+00
1.000000e+00
5.625207e-01
5.513370e-01
5.391424e-01
5.266706e-01
5.148771e-01
5.050046e-01
4.984011e-01
4.961363e-01
4.986107e-01
5.054087e-01
5.154002e-01
5.272293e-01
5.395950e-01
5.521712e-01
5.621053e-01
0.000000e+00
1.000000e+00
5.627351e-01
5.519604e-01
5.401080e-01
5.279852e-01
5.165244e-01
5.069333e-01
5.005203e-01
4.983231e-01
5.007296e-01
5.073370e-01
5.170326e-01
5.285507e-01
5.405641e-01
5.528417e-01
5.624842e-01
0.000000e+00
1.000000e+00
5.632080e-01
5.530718e-01
5.418200e-01
5.303199e-01
5.194469e-01
5.103495e-01
5.042689e-01