<?xml version="1.0"?>
<VTKFile type="StructuredGrid" version="0.1">
  <StructuredGrid WholeExtent="0 16 0 16 0 16">
    <Piece Extent="0 16 0 16 0 16">
      <PointData Scalars="temperature" Vectors="velocity">
        <DataArray type="Float32" Name="temperature" format="ascii">
1.000000e+00
5.726947e-01
5.722956e-01
5.718940e-01
5.714842e-01
5.710961e-01
5.707706e-01
5.705520e-01
5.704750e-01
5.705531e-01
5.707761e-01
5.711183e-01
5.715246e-01
5.719493e-01
5.723571e-01
5.725000e-01
0.000000e+00
1.000000e+00
5.718735e-01
5.706274e-01
5.692773e-01
5.679012e-01
5.665968e-01
5.655019e-01
5.647662e-01
5.645079e-01
5.647733e-01
5.655188e-01
5.666383e-01
5.679552e-01
5.693454e-01
5.706955e-01
5.716963e-01
0.000000e+00
1.000000e+00
5.709201e-01
5.686977e-01
5.662544e-01
5.637617e-01
5.613990e-01
5.594159e-01
5.580839e-01
5.576176e-01
5.581002e-01
5.594462e-01
5.614600e-01
5.638265e-01
5.663280e-01
5.687659e-01
5.707839e-01
0.000000e+00
1.000000e+00
5.698739e-01
5.665477e-01
5.628916e-01
5.591570e-01
5.556176e-01
5.526476e-01
5.506533e-01
5.499563e-01
5.506793e-01
5.526904e-01
5.556971e-01
5.592335e-01
5.629682e-01
5.666173e-01
5.697661e-01
0.000000e+00
1.000000e+00
5.687699e-01
5.642470e-01
5.592945e-01
5.542319e-01
5.494349e-01
5.454105e-01
5.427082e-01
5.417640e-01
5.427418e-01
5.454643e-01
5.495328e-01
5.543222e-01
5.593748e-01
5.643220e-01
5.686782e-01
0.000000e+00
1.000000e+00
5.676445e-01
5.618878e-01
5.556063e-01
5.491828e-01
5.430978e-01
5.379932e-01
5.345649e-01
5.333657e-01
5.346033e-01
5.380577e-01
5.432137e-01
5.492898e-01
5.556888e-01
5.619675e-01
5.675673e-01
0.000000e+00
1.000000e+00
5.665561e-01
5.595806e-01
5.520002e-01
5.442474e-01
5.369043e-01
5.307438e-01
5.266047e-01
5.251550e-01
5.266465e-01
5.308186e-01
5.370366e-01
5.443745e-01
5.520849e-01
5.596656e-01
5.664852e-01
0.000000e+00
1.000000e+00
5.655661e-01
5.574475e-01
5.486660e-01
5.396854e-01
5.311792e-01
5.240414e-01
5.192440e-01
5.175618e-01
5.192891e-01
5.241261e-01
5.313240e-01
5.398340e-01
5.487529e-01
5.575382e-01
5.654774e-01
0.000000e+00
1.000000e+00
5.647319e-01
5.556099e-01
5.457908e-01
5.357512e-01
5.262407e-01
5.182588e-01
5.128927e-01
5.110095e-01
5.129421e-01
5.183532e-01
5.263940e-01
5.359198e-01
5.458806e-01
5.557056e-01
5.646027e-01
0.000000e+00
1.000000e+00
5.640688e-01
5.541705e-01
5.435371e-01
5.326660e-01
5.223667e-01
5.137217e-01
5.079088e-01
5.058689e-01
5.079634e-01
5.138248e-01
5.225242e-01
5.328480e-01
5.436334e-01
5.542721e-01
5.639183e-01
0.000000e+00
1.000000e+00
5.635897e-01
5.532036e-01
5.420243e-01
5.305938e-01
5.197639e-01
5.106730e-01
5.045600e-01
5.024159e-01
5.046194e-01
5.107833e-01
5.199240e-01
5.307790e-01
5.421338e-01
5.533074e-01
5.634558e-01
0.000000e+00
1.000000e+00
5.633528e-01
5.527520e-01
5.413183e-01
5.296261e-01
5.185474e-01
5.092482e-01
5.029958e-01
5.008032e-01
5.030572e-01
5.093623e-01
5.187086e-01
5.298034e-01
5.414458e-01
5.528479e-01
5.632430e-01
0.000000e+00
1.000000e+00
5.633421e-01
5.528234e-01
5.414280e-01
5.297760e-01
5.187351e-01
5.094675e-01
5.032366e-01
5.010513e-01
5.032975e-01
5.095810e-01
5.188942e-01
5.299455e-01
5.415644e-01
5.529168e-01
5.632863e-01
0.000000e+00
1.000000e+00
5.635934e-01
5.533918e-01
5.423121e-01
5.309853e-01
5.202522e-01
5.112428e-01
5.051853e-01
5.030607e-01
5.052439e-01
5.113510e-01
5.204005e-01
5.311576e-01
5.424419e-01
5.534813e-01
5.635576e-01
0.000000e+00
1.000000e+00
5.640622e-01
5.543988e-01
5.438833e-01
5.331358e-01
5.229511e-01
5.144016e-01
5.086531e-01
5.066365e-01
5.087075e-01
5.145013e-01
5.230825e-01
5.333120e-01
5.440021e-01
5.544896e-01
5.640403e-01
0.000000e+00
1.000000e+00
5.646997e-01
5.557680e-01
5.460258e-01
5.360695e-01
5.266342e-01
5.187137e-01
5.133880e-01
5.115195e-01
5.134379e-01
5.188042e-01
5.267508e-01
5.362375e-01
5.461447e-01
5.558699e-01
5.646950e-01
0.000000e+00
1.000000e+00
5.654119e-01
5.574294e-01
5.486140e-01
5.396133e-01
5.310835e-01
5.239231e-01
5.191086e-01
5.174199e-01
5.191548e-01
5.240061e-01
5.311927e-01
5.397687e-01
5.487256e-01
5.575181e-01
5.654013e-01
0.000000e+00
1.000000e+00
5.720605e-01
5.710043e-01
5.698709e-01
5.687141e-01
5.676177e-01
5.666974e-01
5.660788e-01
5.658615e-01
5.660846e-01
5.667109e-01
5.676485e-01
5.687532e-01
5.699213e-01
5.710600e-01
5.719062e-01
0.000000e+00
1.000000e+00
5.712190e-01
5.692949e-01
5.671917e-01
5.650453e-01
5.630109e-01
5.613033e-01
5.601560e-01
5.597540e-01
5.601689e-01
5.613274e-01
5.630588e-01
5.650957e-01
5.672551e-01
5.693556e-01
5.710700e-01
0.000000e+00
1.000000e+00
5.702471e-01
5.673183e-01
5.640988e-01
5.608100e-01
5.576932e-01
5.550779e-01
5.533211e-01
5.527063e-01
5.533411e-01
5.551127e-01
5.577591e-01
5.608731e-01
5.641704e-01
5.673835e-01
5.701379e-01
0.000000e+00
1.000000e+00
5.691904e-01
5.651206e-01
5.606631e-01
5.561060e-01
5.517883e-01
5.481658e-01
5.457326e-01
5.448810e-01
5.457583e-01
5.482114e-01
5.518714e-01
5.561832e-01
5.607425e-01
5.651929e-01
5.690934e-01
0.000000e+00
1.000000e+00
5.680757e-01
5.627761e-01
5.569991e-01
5.510903e-01
5.454934e-01
5.407977e-01
5.376430e-01
5.365377e-01
5.376730e-01
5.408539e-01
5.455942e-01
5.511833e-01
5.570857e-01
5.628577e-01
5.679863e-01
0.000000e+00
1.000000e+00
5.669403e-01
5.603844e-01
5.532623e-01
5.459770e-01
5.390765e-01
5.332865e-01
5.293951e-01
5.280299e-01
5.294293e-01
5.333531e-01
5.391943e-01
5.460888e-01
5.533551e-01
5.604751e-01
5.668595e-01
0.000000e+00
1.000000e+00
5.658564e-01
5.580685e-01
5.496424e-01
5.410245e-01
5.328610e-01
5.260097e-01
5.214035e-01
5.197861e-01
5.214426e-01
5.260865e-01
5.329930e-01
5.411573e-01
5.497411e-01
5.581680e-01
5.657757e-01
0.000000e+00
1.000000e+00
5.648991e-01
5.559627e-01
5.463456e-01
5.365130e-01
5.271971e-01
5.193775e-01
5.141189e-01
5.122726e-01
5.141648e-01
5.194651e-01
5.273393e-01
5.366671e-01
5.464491e-01
5.560664e-01
5.647849e-01
0.000000e+00
1.000000e+00
5.640760e-01
5.541904e-01
5.435703e-01
5.327134e-01
5.224257e-01
5.137896e-01
5.079824e-01
5.059441e-01
5.080358e-01
5.138889e-01
5.225749e-01
5.328863e-01
5.436798e-01
5.543031e-01
5.639462e-01
0.000000e+00
1.000000e+00
5.634166e-01
5.528585e-01
5.414855e-01
5.298575e-01
5.188396e-01
5.095901e-01
5.033716e-01
5.011904e-01
5.034314e-01
5.097001e-01
5.189929e-01
5.300446e-01
5.416031e-01
5.529823e-01
5.633212e-01
0.000000e+00
1.000000e+00
5.629807e-01
5.520451e-01
5.402117e-01
5.281120e-01
5.166483e-01
5.070260e-01
5.005564e-01
4.982877e-01
5.006194e-01
5.071420e-01
5.168037e-01
5.283018e-01
5.403443e-01
5.521731e-01
5.629106e-01
0.000000e+00
1.000000e+00
5.628225e-01
5.517900e-01
5.398111e-01
5.275624e-01
5.159569e-01
5.062161e-01
4.996674e-01
4.973709e-01
4.997314e-01
5.063343e-01
5.161113e-01
5.277415e-01
5.399618e-01
5.518942e-01
5.627993e-01
0.000000e+00
1.000000e+00
5.629437e-01
5.520911e-01
5.402771e-01
5.281993e-01
5.167554e-01
5.071501e-01
5.006927e-01
4.984284e-01
5.007559e-01
5.072665e-01
5.169085e-01
5.283682e-01
5.404224e-01
5.521746e-01
5.629464e-01
0.000000e+00
1.000000e+00
5.633178e-01
5.529076e-01
5.415478e-01
5.299376e-01
5.189362e-01
5.097020e-01
5.034942e-01
5.013172e-01
5.035545e-01
5.098124e-01
5.190831e-01
5.301047e-01
5.416736e-01
5.529876e-01
5.633372e-01
0.000000e+00
1.000000e+00
5.639096e-01
5.541683e-01
5.435149e-01
5.326303e-01
5.223157e-01
5.136575e-01
5.078364e-01
5.057949e-01
5.078923e-01
5.137584e-01
5.224488e-01
5.327982e-01
5.436248e-01
5.542403e-01
5.639407e-01
0.000000e+00
1.000000e+00
5.646752e-01
5.557878e-01
5.460449e-01
5.360946e-01
5.266646e-01
5.187485e-01
5.134259e-01
5.115589e-01
5.134762e-01
5.188384e-01
5.267823e-01
5.362482e-01
5.461501e-01
5.558634e-01
5.646992e-01
0.000000e+00
1.000000e+00
5.655915e-01
5.576765e-01
5.489980e-01
5.401378e-01
5.317408e-01
5.246911e-01
5.199504e-01
5.182866e-01
5.199932e-01
5.247678e-01
5.318450e-01
5.402776e-01
5.491072e-01
5.577477e-01
5.655621e-01
0.000000e+00
1.000000e+00
5.715349e-01
5.699364e-01
5.681999e-01
5.664263e-01
5.647453e-01
5.633343e-01
5.623857e-01
5.620524e-01
5.623934e-01
5.633502e-01
5.647792e-01
5.664621e-01
5.682479e-01
5.699852e-01
5.713952e-01
0.000000e+00
1.000000e+00
5.706857e-01
5.682036e-01
5.654869e-01
5.627110e-01
5.600805e-01
5.578729e-01
5.563893e-01
5.558686e-01
5.564019e-01
5.578986e-01
5.601302e-01
5.627572e-01
5.655461e-01
5.682593e-01
5.705575e-01
0.000000e+00
1.000000e+00
5.697121e-01
5.661991e-01
5.623541e-01
5.584219e-01
5.546963e-01
5.515701e-01
5.494692e-01
5.487318e-01
5.494868e-01
5.516070e-01
5.547633e-01
5.584803e-01
5.624204e-01
5.662605e-01
5.696104e-01
0.000000e+00
1.000000e+00
5.686502e-01
5.639735e-01
5.588772e-01
5.536628e-01
5.487232e-01
5.445783e-01
5.417922e-01
5.408135e-01
5.418144e-01
5.446267e-01
5.488075e-01
5.537360e-01
5.589538e-01
5.640488e-01
5.685509e-01
0.000000e+00
1.000000e+00
5.675269e-01
5.616064e-01
5.551785e-01
5.486018e-01
5.423716e-01
5.371427e-01
5.336269e-01
5.323911e-01
5.336540e-01
5.372018e-01
5.424738e-01
5.486903e-01
5.552621e-01
5.616943e-01
5.674310e-01
0.000000e+00
1.000000e+00
5.663974e-01
5.592081e-01
5.514261e-01
5.434678e-01
5.359274e-01
5.295976e-01
5.253405e-01
5.238440e-01
5.253741e-01
5.296675e-01
5.360466e-01
5.435746e-01
5.515150e-01
5.593034e-01
5.662942e-01
0.000000e+00
1.000000e+00
5.653727e-01
5.569149e-01
5.478234e-01
5.385368e-01
5.297363e-01
5.223478e-01
5.173783e-01
5.156326e-01
5.174201e-01
5.224294e-01
5.298705e-01
5.386639e-01
5.479161e-01
5.570084e-01
5.652101e-01
0.000000e+00
1.000000e+00
5.644571e-01
5.548530e-01
5.445877e-01
5.341059e-01
5.241724e-01
5.158332e-01
5.102246e-01
5.082562e-01
5.102751e-01
5.159276e-01
5.243191e-01
5.342558e-01
5.446843e-01
5.549447e-01
5.642386e-01
0.000000e+00
1.000000e+00
5.636508e-01
5.531486e-01
5.419279e-01
5.304639e-01
5.195996e-01
5.104799e-01
5.043481e-01
5.021967e-01
5.044050e-01
5.105864e-01
5.197550e-01
5.306344e-01
5.420348e-01
5.532625e-01
5.634377e-01
0.000000e+00
1.000000e+00
5.629834e-01
5.519220e-01
5.400212e-01
5.278545e-01
5.163256e-01
5.066474e-01
5.001404e-01
4.978576e-01
5.002012e-01
5.067617e-01
5.164835e-01
5.280383e-01
5.401439e-01
5.520737e-01
5.628712e-01
0.000000e+00
1.000000e+00
5.626441e-01
5.512627e-01
5.389929e-01
5.264449e-01
5.145561e-01
5.045769e-01
4.978673e-01
4.955135e-01
4.979303e-01
5.046956e-01
5.147141e-01
5.266257e-01
5.391341e-01
5.514204e-01
5.625334e-01
0.000000e+00
1.000000e+00
5.625725e-01
5.511989e-01
5.388923e-01
5.263051e-01
5.143796e-01
5.043702e-01
4.976408e-01
4.952803e-01
4.977047e-01
5.044904e-01
5.145368e-01
5.264733e-01
5.390448e-01
5.513267e-01
5.625032e-01
0.000000e+00
1.000000e+00
5.627815e-01
5.517191e-01
5.396992e-01
5.274075e-01
5.157617e-01
5.059873e-01
4.994164e-01
4.971117e-01
4.994794e-01
5.061048e-01
5.159189e-01
5.275653e-01
5.398446e-01
5.518160e-01
5.627583e-01
0.000000e+00
1.000000e+00
5.632629e-01
5.527675e-01
5.413305e-01
5.296392e-01
5.185613e-01
5.092634e-01
5.030128e-01
5.008208e-01
5.030729e-01
5.093740e-01
5.187137e-01
5.297915e-01
5.414615e-01
5.528435e-01
5.632650e-01
0.000000e+00
1.000000e+00
5.639611e-01
5.542588e-01
5.436577e-01
5.328252e-01
5.225598e-01
5.139432e-01
5.081505e-01
5.061190e-01
5.082059e-01
5.140436e-01
5.226968e-01
5.329823e-01
5.437804e-01
5.543289e-01
5.639745e-01
0.000000e+00
1.000000e+00
5.648268e-01
5.560982e-01
5.465302e-01
5.367583e-01
5.274973e-01
5.197229e-01
5.144958e-01
5.126625e-01
5.145456e-01
5.198114e-01
5.276147e-01
5.369101e-01
5.466394e-01
5.561616e-01
5.648469e-01
0.000000e+00
1.000000e+00
5.658358e-01
5.581828e-01
5.497907e-01
5.412231e-01
5.331033e-01
5.262865e-01
5.217029e-01
5.200950e-01
5.217466e-01
5.263646e-01
5.332098e-01
5.413669e-01
5.499009e-01
5.582340e-01
5.659321e-01
0.000000e+00
1.000000e+00
5.711581e-01
5.691697e-01
5.670046e-01
5.647897e-01
5.626907e-01
5.609284e-01
5.597428e-01
5.593250e-01
5.597494e-01
5.609455e-01
5.627242e-01
5.648205e-01
5.670438e-01
5.692166e-01
5.710273e-01
0.000000e+00
1.000000e+00
5.703147e-01
5.674392e-01
5.642980e-01
5.610839e-01
5.580384e-01
5.554820e-01
5.537625e-01
5.531569e-01
5.537736e-01
5.555093e-01
5.580859e-01
5.611254e-01
5.643483e-01
5.674974e-01
5.701928e-01
0.000000e+00
1.000000e+00
5.693596e-01
5.654366e-01
5.611688e-01
5.568009e-01
5.526625e-01
5.491886e-01
5.468518e-01
5.460293e-01
5.468684e-01
5.492275e-01
5.527261e-01
5.568546e-01
5.612287e-01
5.655043e-01
5.692542e-01
0.000000e+00
1.000000e+00
5.683269e-01
5.632180e-01
5.576964e-01
5.520488e-01
5.466975e-01
5.422050e-01
5.391827e-01
5.381194e-01
5.392053e-01
5.422555e-01
5.467785e-01
5.521158e-01
5.577656e-01
5.632945e-01
5.681933e-01
0.000000e+00
1.000000e+00
5.672637e-01
5.608699e-01
5.540091e-01
5.470021e-01
5.403618e-01
5.347867e-01
5.310359e-01
5.297174e-01
5.310657e-01
5.348491e-01
5.404620e-01
5.470838e-01
5.540848e-01
5.609485e-01
5.670744e-01
0.000000e+00
1.000000e+00
5.663220e-01
5.585119e-01
5.502823e-01
5.419000e-01
5.339554e-01
5.272854e-01
5.227990e-01
5.212231e-01
5.228371e-01
5.273609e-01
5.340754e-01
5.420009e-01
5.503623e-01
5.585743e-01
5.659408e-01
0.000000e+00
1.000000e+00
5.655153e-01
5.562680e-01
5.467272e-01
5.370325e-01
5.278442e-01
5.201305e-01
5.149431e-01
5.131226e-01
5.149897e-01
5.202193e-01
5.279824e-01
5.371563e-01
5.468130e-01
5.563119e-01
5.648634e-01
0.000000e+00
1.000000e+00
5.645144e-01
5.542540e-01
5.435739e-01
5.327155e-01
5.224258e-01
5.137879e-01
5.079793e-01
5.059413e-01
5.080324e-01
5.138883e-01
5.225774e-01
5.328643e-01
5.436681e-01
5.543042e-01
5.639117e-01
0.000000e+00
1.000000e+00
5.635354e-01
5.526110e-01
5.410448e-01
5.292549e-01
5.180817e-01
5.087024e-01
5.023957e-01
5.001826e-01
5.024533e-01
5.088117e-01
5.182402e-01
5.294220e-01
5.411519e-01
5.527048e-01
5.631432e-01
0.000000e+00
1.000000e+00
5.628770e-01
5.514835e-01
5.393204e-01
5.268963e-01
5.151229e-01
5.052395e-01
4.985937e-01
4.962616e-01
4.986544e-01
5.053553e-01
5.152846e-01
5.270754e-01
5.394441e-01
5.516251e-01
5.626250e-01
0.000000e+00
1.000000e+00
5.625394e-01
5.509644e-01
5.385241e-01
5.258046e-01
5.137533e-01
5.036374e-01
4.968356e-01
4.944489e-01
4.968984e-01
5.037575e-01
5.139170e-01
5.259788e-01
5.386657e-01
5.511140e-01
5.623766e-01
0.000000e+00
1.000000e+00
5.625319e-01
5.510750e-01
5.386983e-01
5.260395e-01
5.140469e-01
5.039814e-01
4.972140e-01
4.948398e-01
4.972776e-01
5.041025e-01
5.142108e-01
5.261981e-01
5.388479e-01
5.511957e-01
5.624484e-01
0.000000e+00
1.000000e+00
5.628248e-01
5.517864e-01
5.398058e-01
5.275529e-01
5.159443e-01
5.062015e-01
4.996518e-01
4.973544e-01
4.997143e-01
5.063191e-01
5.161060e-01
5.277004e-01
5.399523e-01
5.518844e-01
5.628122e-01
0.000000e+00
1.000000e+00
5.633930e-01
5.530313e-01
5.417451e-01
5.302065e-01
5.192733e-01
5.100971e-01
5.039285e-01
5.017652e-01
5.039878e-01
5.102069e-01
5.194258e-01
5.303536e-01
5.418829e-01
5.531029e-01
5.634238e-01
0.000000e+00
1.000000e+00
5.641798e-01
5.547136e-01
5.443705e-01
5.338008e-01
5.237844e-01
5.153769e-01
5.097249e-01
5.077430e-01
5.097794e-01
5.154757e-01
5.239175e-01
5.339587e-01
5.444975e-01
5.547772e-01
5.642251e-01
0.000000e+00
1.000000e+00
5.651294e-01
5.567281e-01
5.475163e-01
5.381080e-01
5.291915e-01
5.217063e-01
5.166738e-01
5.149091e-01
5.167225e-01
5.217926e-01
5.293026e-01
5.382641e-01
5.476255e-01
5.567796e-01
5.652277e-01
0.000000e+00
1.000000e+00
5.662130e-01
5.589643e-01
5.510138e-01
5.428973e-01
5.352048e-01
5.287469e-01
5.244047e-01
5.228818e-01
5.244471e-01
5.288226e-01
5.353057e-01
5.430428e-01
5.511175e-01
5.590103e-01
5.664375e-01
0.000000e+00
1.000000e+00
5.709838e-01
5.687818e-01
5.664007e-01
5.639629e-01
5.616522e-01
5.597116e-01
5.584056e-01
5.579455e-01
5.584135e-01
5.597315e-01
5.616836e-01
5.639895e-01
5.664341e-01
5.688265e-01
5.708456e-01
0.000000e+00
1.000000e+00
5.701906e-01
5.670917e-01
5.637533e-01
5.603388e-01
5.571029e-01
5.543853e-01
5.525567e-01
5.519130e-01
5.525696e-01
5.544147e-01
5.571474e-01
5.603759e-01
5.637979e-01
5.671496e-01
5.700155e-01
0.000000e+00
1.000000e+00
5.693250e-01
5.651361e-01
5.606842e-01
5.561383e-01
5.518297e-01
5.482113e-01
5.457770e-01
5.449208e-01
5.457961e-01
5.482526e-01
5.518902e-01
5.561869e-01
5.607390e-01
5.651962e-01
5.691078e-01
0.000000e+00
1.000000e+00
5.684147e-01
5.629688e-01
5.572726e-01
5.514685e-01
5.459669e-01
5.413468e-01
5.382394e-01
5.371473e-01
5.382652e-01
5.414010e-01
5.460462e-01
5.515301e-01
5.573368e-01
5.630224e-01
5.680669e-01
0.000000e+00
1.000000e+00
5.674117e-01
5.606669e-01
5.536480e-01
5.465062e-01
5.397376e-01
5.340537e-01
5.302309e-01
5.288888e-01
5.302643e-01
5.341209e-01
5.398384e-01
5.465839e-01
5.537192e-01
5.607142e-01
5.669626e-01
0.000000e+00
1.000000e+00
5.665310e-01
5.583560e-01
5.499907e-01
5.414996e-01
5.334520e-01
5.266948e-01
5.221513e-01
5.205569e-01
5.221921e-01
5.267751e-01
5.335743e-01
5.415975e-01
5.500688e-01
5.583824e-01
5.658572e-01
0.000000e+00
1.000000e+00
5.656933e-01
5.561618e-01
5.465213e-01
5.367501e-01
5.274890e-01
5.197147e-01
5.144876e-01
5.126533e-01
5.145351e-01
5.198067e-01
5.276305e-01
5.368696e-01
5.466056e-01
5.561688e-01
5.648195e-01
0.000000e+00
1.000000e+00
5.645331e-01
5.542011e-01
5.434779e-01
5.325845e-01
5.222605e-01
5.135942e-01
5.077669e-01
5.057219e-01
5.078199e-01
5.136960e-01
5.224152e-01
5.327264e-01
5.435689e-01
5.542231e-01
5.639092e-01
0.000000e+00
1.000000e+00
5.635355e-01
5.526380e-01
5.410870e-01
5.293139e-01
5.181565e-01
5.087900e-01
5.024917e-01
5.002814e-01
5.025489e-01
5.088997e-01
5.183193e-01
5.294744e-01
5.411883e-01
5.527016e-01
5.631862e-01
0.000000e+00
1.000000e+00
5.629280e-01
5.516205e-01
5.395351e-01
5.271908e-01
5.154932e-01
5.056734e-01
4.990703e-01
4.967530e-01
4.991305e-01
5.057894e-01
5.156614e-01
5.273631e-01
5.396492e-01
5.517170e-01
5.627271e-01
0.000000e+00
1.000000e+00
5.626673e-01
5.512325e-01
5.389419e-01
5.263763e-01
5.144713e-01
5.044783e-01
4.977592e-01
4.954014e-01
4.978213e-01
5.045981e-01
5.146421e-01
5.265435e-01
5.390790e-01
5.513348e-01
5.625646e-01
0.000000e+00
1.000000e+00
5.627333e-01
5.514866e-01
5.393409e-01
5.269187e-01
5.151504e-01
5.052733e-01
4.986328e-01
4.963032e-01
4.986954e-01
5.053932e-01
5.153178e-01
5.270766e-01
5.394900e-01
5.515781e-01
5.627090e-01
0.000000e+00
1.000000e+00
5.631000e-01
5.523465e-01
5.406821e-01
5.287521e-01
5.174494e-01
5.079635e-01
5.015866e-01
4.993500e-01
5.016477e-01
5.080790e-01
5.176057e-01
5.289134e-01
5.408243e-01
5.524257e-01
5.631213e-01
0.000000e+00
1.000000e+00
5.637327e-01
5.537364e-01
5.428498e-01
5.317187e-01
5.211714e-01
5.123192e-01
5.063685e-01
5.042817e-01
5.064260e-01
5.124258e-01
5.213125e-01
5.318813e-01
5.429802e-01
5.538019e-01
5.638010e-01
0.000000e+00
1.000000e+00
5.645818e-01
5.555532e-01
5.456852e-01
5.356006e-01
5.260437e-01
5.180218e-01
5.126292e-01
5.107383e-01
5.126815e-01
5.181167e-01
5.261653e-01
5.357642e-01
5.458069e-01
5.556128e-01
5.646618e-01
0.000000e+00
1.000000e+00
5.655893e-01
5.576836e-01
5.490118e-01
5.401554e-01
5.317616e-01
5.247151e-01
5.199777e-01
5.183165e-01
5.200238e-01
5.247968e-01
5.318629e-01
5.403096e-01
5.491176e-01
5.577342e-01
5.657288e-01
0.000000e+00
1.000000e+00
5.667154e-01
5.600120e-01
5.526539e-01
5.451425e-01
5.380234e-01
5.320465e-01
5.280279e-01
5.266186e-01
5.280674e-01
5.321173e-01
5.381160e-01
5.452840e-01
5.527529e-01
5.600683e-01
5.668668e-01
0.000000e+00
1.000000e+00
5.711169e-01
5.688404e-01
5.664823e-01
5.640748e-01
5.617927e-01
5.598762e-01
5.585865e-01
5.581324e-01
5.585946e-01
5.598959e-01
5.618220e-01
5.640990e-01
5.665134e-01
5.688648e-01
5.709136e-01
0.000000e+00
1.000000e+00
5.703785e-01
5.672294e-01
5.639558e-01
5.606163e-01
5.574509e-01
5.547926e-01
5.530039e-01
5.523750e-01
5.530175e-01
5.548223e-01
5.574942e-01
5.606511e-01
5.639980e-01
5.672766e-01
5.700534e-01
0.000000e+00
1.000000e+00
5.694718e-01
5.653489e-01
5.610106e-01
5.565850e-01
5.523903e-01
5.488676e-01
5.464975e-01
5.456646e-01
5.465171e-01
5.489089e-01
5.524498e-01
5.566319e-01
5.610649e-01
5.654011e-01
5.692351e-01
0.000000e+00
1.000000e+00
5.684809e-01
5.632504e-01
5.577231e-01
5.520853e-01
5.467415e-01
5.422539e-01
5.392353e-01
5.381746e-01
5.392608e-01
5.423074e-01
5.468195e-01
5.521447e-01
5.577875e-01
5.633009e-01
5.682305e-01
0.000000e+00
1.000000e+00
5.674203e-01
5.610142e-01
5.542218e-01
5.472929e-01
5.407258e-01
5.352109e-01
5.315017e-01
5.301983e-01
5.315332e-01
5.352763e-01
5.408247e-01
5.473667e-01
5.542946e-01
5.610705e-01
5.671733e-01
0.000000e+00
1.000000e+00
5.663498e-01
5.587622e-01
5.506875e-01
5.424560e-01
5.346542e-01
5.281025e-01
5.236959e-01
5.221483e-01
5.237341e-01
5.281792e-01
5.347739e-01
5.425472e-01
5.507672e-01
5.588138e-01
5.661287e-01
0.000000e+00
1.000000e+00
5.653719e-01
5.566330e-01
5.473434e-01
5.378790e-01
5.289079e-01
5.213758e-01
5.163091e-01
5.145313e-01
5.163547e-01
5.214635e-01
5.290474e-01
5.379887e-01
5.474283e-01
5.566789e-01
5.651273e-01
0.000000e+00
1.000000e+00
5.644339e-01
5.547600e-01
5.444301e-01
5.338911e-01
5.239025e-01
5.155161e-01
5.098763e-01
5.078979e-01
5.099283e-01
5.156154e-01
5.240583e-01
5.340214e-01
5.445199e-01
5.548185e-01
5.642456e-01
0.000000e+00
1.000000e+00
5.636969e-01
5.533085e-01
5.421781e-01
5.308077e-01
5.200338e-01
5.109884e-01
5.049065e-01
5.027725e-01
5.049628e-01
5.110969e-01
5.202018e-01
5.309556e-01
5.422753e-01
5.533859e-01
5.635549e-01
0.000000e+00
1.000000e+00
5.632248e-01
5.524057e-01
5.407754e-01
5.288863e-01
5.176217e-01
5.081662e-01
5.018084e-01
4.995776e-01
5.018675e-01
5.082804e-01
5.177959e-01
5.290427e-01
5.408841e-01
5.524894e-01
5.631464e-01
0.000000e+00
1.000000e+00
5.630666e-01
5.521227e-01
5.403350e-01
5.282813e-01
5.168617e-01
5.072767e-01
5.008324e-01
4.985715e-01
5.008929e-01
5.073935e-01
5.170345e-01
5.284411e-01
5.404604e-01
5.522022e-01
5.630334e-01
0.000000e+00
1.000000e+00
5.631991e-01
5.524748e-01
5.408848e-01
5.290310e-01
5.178010e-01
5.083760e-01
5.020398e-01
4.998172e-01
5.021002e-01
5.084917e-01
5.179625e-01
5.292015e-01
5.410167e-01
5.525486e-01
5.631947e-01
0.000000e+00
1.000000e+00
5.636197e-01
5.534247e-01
5.423676e-01
5.310590e-01
5.203446e-01
5.113525e-01
5.053077e-01
5.031878e-01
5.053660e-01
5.114626e-01
5.204881e-01
5.312395e-01
5.424900e-01
5.534930e-01
5.636467e-01
0.000000e+00
1.000000e+00
5.642903e-01
5.548926e-01
5.446592e-01
5.341957e-01
5.242806e-01
5.159588e-01
5.103646e-01
5.084030e-01
5.104189e-01
5.160593e-01
5.244069e-01
5.343672e-01
5.447745e-01
5.549582e-01
5.643566e-01
0.000000e+00
1.000000e+00
5.651654e-01
5.567720e-01
5.475936e-01
5.382132e-01
5.293235e-01
5.218613e-01
5.168448e-01
5.150857e-01
5.168934e-01
5.219493e-01
5.294329e-01
5.383719e-01
5.477065e-01
5.568349e-01
5.652367e-01
0.000000e+00
1.000000e+00
5.661919e-01
5.589467e-01
5.509890e-01
5.428623e-01
5.351598e-01
5.286934e-01
5.243458e-01
5.228211e-01
5.243877e-01
5.287679e-01
5.352513e-01
5.430065e-01
5.510912e-01
5.590047e-01
5.663119e-01
0.000000e+00
1.000000e+00
5.673312e-01
5.612986e-01
5.546675e-01
5.478992e-01
5.414840e-01
5.360980e-01
5.324764e-01
5.312063e-01
5.325118e-01
5.361614e-01
5.415671e-01
5.480324e-01
5.547632e-01
5.613626e-01
5.673614e-01
0.000000e+00
1.000000e+00
5.712835e-01
5.693647e-01
5.673102e-01
5.652079e-01
5.632154e-01
5.615422e-01
5.604162e-01
5.600192e-01
5.604222e-01
5.615585e-01
5.632430e-01
5.652307e-01
5.673433e-01
5.693774e-01
5.712424e-01
0.000000e+00
1.000000e+00
5.705475e-01
5.678684e-01
5.649691e-01
5.620030e-01
5.591921e-01
5.568320e-01
5.552439e-01
5.546849e-01
5.552547e-01
5.568580e-01
5.592346e-01
5.620365e-01
5.650120e-01
5.679177e-01
5.703167e-01
0.000000e+00
1.000000e+00
5.697037e-01
5.661069e-01
5.622146e-01
5.582324e-01
5.544593e-01
5.512919e-01
5.491607e-01
5.484108e-01
5.491766e-01
5.513290e-01
5.545189e-01
5.582793e-01
5.622726e-01
5.661660e-01
5.696375e-01
0.000000e+00
1.000000e+00
5.687510e-01
5.641264e-01
5.591175e-01
5.539932e-01
5.491387e-01
5.450639e-01
5.423227e-01
5.413581e-01
5.423436e-01
5.451128e-01
5.492173e-01
5.540535e-01
5.591877e-01
5.641877e-01
5.686774e-01
0.000000e+00
1.000000e+00
5.677352e-01
5.620057e-01
5.558011e-01
5.494545e-01
5.434424e-01
5.383962e-01
5.350018e-01
5.338073e-01
5.350278e-01
5.384568e-01
5.435420e-01
5.495288e-01
5.558818e-01
5.620781e-01
5.676716e-01
0.000000e+00
1.000000e+00
5.667177e-01
5.598577e-01
5.524417e-01
5.448576e-01
5.376732e-01
5.316429e-01
5.275861e-01
5.261591e-01
5.276179e-01
5.317143e-01
5.377939e-01
5.449469e-01
5.525306e-01
5.599354e-01
5.666758e-01
0.000000e+00
1.000000e+00
5.657713e-01
5.578244e-01
5.492589e-01
5.405021e-01
5.322065e-01
5.252431e-01
5.205577e-01
5.189110e-01
5.205965e-01
5.253244e-01
5.323466e-01
5.406063e-01
5.493533e-01
5.579079e-01
5.656961e-01
0.000000e+00
1.000000e+00
5.649562e-01
5.560583e-01
5.464928e-01
5.367153e-01
5.274526e-01
5.196760e-01
5.144447e-01
5.126072e-01
5.144906e-01
5.197675e-01
5.276080e-01
5.368334e-01
5.465904e-01
5.561438e-01
5.648501e-01
0.000000e+00
1.000000e+00
5.643100e-01
5.547029e-01
5.443715e-01
5.338087e-01
5.238019e-01
5.154009e-01
5.097511e-01
5.077688e-01
5.098039e-01
5.155024e-01
5.239692e-01
5.339369e-01
5.444728e-01
5.547913e-01
5.642030e-01
0.000000e+00
1.000000e+00
5.638935e-01
5.538757e-01
5.430765e-01
5.320331e-01
5.215707e-01
5.127897e-01
5.068851e-01
5.048143e-01
5.069417e-01
5.128978e-01
5.217434e-01
5.321724e-01
5.431831e-01
5.539610e-01
5.638354e-01
0.000000e+00
1.000000e+00
5.637612e-01
5.536479e-01
5.427195e-01
5.315431e-01
5.209543e-01
5.120674e-01
5.060929e-01
5.039975e-01
5.061503e-01
5.121774e-01
5.211204e-01
5.316986e-01
5.428286e-01
5.537294e-01
5.637431e-01
0.000000e+00
1.000000e+00
5.639330e-01
5.540372e-01
5.433268e-01
5.323730e-01
5.219947e-01
5.132846e-01
5.074292e-01
5.053758e-01
5.074858e-01
5.133922e-01
5.221448e-01
5.325454e-01
5.434354e-01
5.541145e-01
5.639231e-01
0.000000e+00
1.000000e+00
5.643738e-01
5.550057e-01
5.448396e-01
5.344430e-01
5.245918e-01
5.163239e-01
5.107659e-01
5.088169e-01
5.108197e-01
5.164251e-01
5.247228e-01
5.346191e-01
5.449444e-01
5.550778e-01
5.643874e-01
0.000000e+00
1.000000e+00
5.650478e-01
5.564736e-01
5.471327e-01
5.375821e-01
5.285315e-01
5.209348e-01
5.158279e-01
5.140370e-01
5.158771e-01
5.210258e-01
5.286454e-01
5.377456e-01
5.472341e-01
5.565436e-01
5.650946e-01
0.000000e+00
1.000000e+00
5.659143e-01
5.583353e-01
5.500399e-01
5.415624e-01
5.335278e-01
5.267831e-01
5.222487e-01
5.206583e-01
5.222918e-01
5.268615e-01
5.336265e-01
5.417081e-01
5.501398e-01
5.584027e-01
5.659720e-01
0.000000e+00
1.000000e+00
5.669268e-01
5.604750e-01
5.533805e-01
5.461362e-01
5.392699e-01
5.335050e-01
5.296287e-01
5.282690e-01
5.296651e-01
5.335700e-01
5.393517e-01
5.462652e-01
5.534774e-01
5.605400e-01
5.669849e-01
0.000000e+00
1.000000e+00
5.680464e-01
5.627756e-01
5.569792e-01
5.510637e-01
5.454567e-01
5.407490e-01
5.375831e-01
5.364725e-01
5.376131e-01
5.408030e-01
5.455290e-01
5.511858e-01
5.570714e-01
5.628407e-01
5.678931e-01
0.000000e+00
1.000000e+00
5.717557e-01
5.703765e-01
5.688937e-01
5.673760e-01
5.659377e-01
5.647303e-01
5.639181e-01
5.636317e-01
5.639221e-01
5.647416e-01
5.659631e-01
5.673988e-01
5.689332e-01
5.703834e-01
5.718071e-01
0.000000e+00
1.000000e+00
5.710964e-01
5.690406e-01
5.667995e-01
5.645080e-01
5.623367e-01
5.605147e-01
5.592900e-01
5.588592e-01
5.592989e-01
5.605360e-01
5.623795e-01
5.645420e-01
5.668491e-01
5.690875e-01
5.707916e-01
0.000000e+00
1.000000e+00
5.703214e-01
5.674435e-01
5.642999e-01
5.610853e-01
5.580396e-01
5.554844e-01
5.537677e-01
5.531648e-01
5.537823e-01
5.555175e-01
5.581017e-01
5.611339e-01
5.643650e-01
5.675002e-01
5.702685e-01
0.000000e+00
1.000000e+00
5.694483e-01
5.656264e-01
5.614573e-01
5.571932e-01
5.531537e-01
5.497653e-01
5.474893e-01
5.466907e-01
5.475096e-01
5.498112e-01
5.532346e-01
5.572549e-01
5.615360e-01
5.656865e-01
5.693460e-01
0.000000e+00
1.000000e+00
5.685091e-01
5.636620e-01
5.583849e-01
5.529869e-01
5.478740e-01
5.435854e-01
5.407049e-01
5.396944e-01
5.407304e-01
5.436436e-01
5.479746e-01
5.530610e-01
5.584743e-01
5.637350e-01
5.684221e-01
0.000000e+00
1.000000e+00
5.675495e-01
5.616556e-01
5.552479e-01
5.486929e-01
5.424848e-01
5.372776e-01
5.337795e-01
5.325519e-01
5.338097e-01
5.373465e-01
5.426055e-01
5.487793e-01
5.553450e-01
5.617350e-01
5.674988e-01
0.000000e+00
1.000000e+00
5.666449e-01
5.597417e-01
5.522553e-01
5.445970e-01
5.373444e-01
5.312605e-01
5.271725e-01
5.257368e-01
5.272072e-01
5.313385e-01
5.374833e-01
5.446945e-01
5.523577e-01
5.598266e-01
5.665631e-01
0.000000e+00
1.000000e+00
5.658669e-01
5.580690e-01
5.496382e-01
5.410151e-01
5.328485e-01
5.259970e-01
5.213917e-01
5.197734e-01
5.214306e-01
5.260821e-01
5.330015e-01
5.411219e-01
5.497440e-01
5.581579e-01
5.657611e-01
0.000000e+00
1.000000e+00
5.652634e-01
5.567790e-01
5.476190e-01
5.382511e-01
5.293780e-01
5.219324e-01
5.169258e-01
5.151676e-01
5.169702e-01
5.220233e-01
5.295388e-01
5.383658e-01
5.477274e-01
5.568695e-01
5.651457e-01
0.000000e+00
1.000000e+00
5.648789e-01
5.559865e-01
5.463776e-01
5.365507e-01
5.272409e-01
5.194282e-01
5.141741e-01
5.123312e-01
5.142242e-01
5.195242e-01
5.274018e-01
5.366777e-01
5.464811e-01
5.560747e-01
5.647843e-01
0.000000e+00
1.000000e+00
5.647534e-01
5.557617e-01
5.460234e-01
5.360645e-01
5.266285e-01
5.187095e-01
5.133853e-01
5.115185e-01
5.134372e-01
5.188077e-01
5.267809e-01
5.362083e-01
5.461212e-01
5.558472e-01
5.646760e-01
0.000000e+00
1.000000e+00
5.649142e-01
5.561208e-01
5.465838e-01
5.368311e-01
5.275899e-01
5.198337e-01
5.146198e-01
5.127913e-01
5.146702e-01
5.199291e-01
5.277266e-01
5.369862e-01
5.466783e-01
5.562054e-01
5.648353e-01
0.000000e+00
1.000000e+00
5.653369e-01
5.570301e-01
5.480056e-01
5.387774e-01
5.300325e-01
5.226924e-01
5.177578e-01
5.160272e-01
5.178051e-01
5.227808e-01
5.301512e-01
5.389331e-01
5.480979e-01
5.571114e-01
5.652895e-01
0.000000e+00
1.000000e+00
5.659776e-01
5.584158e-01
5.501706e-01
5.417412e-01
5.337526e-01
5.270466e-01
5.225382e-01
5.209566e-01
5.225805e-01
5.271251e-01
5.338547e-01
5.418857e-01
5.502587e-01
5.584895e-01
5.659713e-01
0.000000e+00
1.000000e+00
5.668028e-01
5.601764e-01
5.529199e-01
5.455052e-01
5.384776e-01
5.325776e-01
5.286105e-01
5.272186e-01
5.286469e-01
5.326440e-01
5.385649e-01
5.456323e-01
5.530075e-01
5.602468e-01
5.668142e-01
0.000000e+00
1.000000e+00
5.677653e-01
5.621999e-01
5.560803e-01
5.498323e-01
5.439098e-01
5.389371e-01
5.355929e-01