<?xml version="1.0"?>
<VTKFile type="StructuredGrid" version="0.1">
  <StructuredGrid WholeExtent="0 16 0 16 0 16">
    <Piece Extent="0 16 0 16 0 16">
      <PointData Scalars="temperature" Vectors="velocity">
        <DataArray type="Float32" Name="temperature" format="ascii">
1.000000e+00
5.808754e-01
5.884059e-01
5.972928e-01
6.062621e-01
6.147726e-01
6.219315e-01
6.267686e-01
6.285076e-01
6.268436e-01
6.220623e-01
6.149599e-01
6.064328e-01
5.974222e-01
5.886048e-01
5.801148e-01
0.000000e+00
1.000000e+00
5.799376e-01
5.866003e-01
5.944212e-01
6.023287e-01
6.098307e-01
6.161401e-01
6.204012e-01
6.219310e-01
6.204650e-01
6.162494e-01
6.099979e-01
6.024837e-01
5.945451e-01
5.867672e-01
5.793075e-01
0.000000e+00
1.000000e+00
5.788637e-01
5.845653e-01
5.911904e-01
5.979043e-01
6.042733e-01
6.096288e-01
6.132433e-01
6.145369e-01
6.132912e-01
6.097142e-01
6.044035e-01
5.980213e-01
5.912900e-01
5.846889e-01
5.783502e-01
0.000000e+00
1.000000e+00
5.777099e-01
5.823473e-01
5.876855e-01
5.931051e-01
5.982459e-01
6.025679e-01
6.054830e-01
6.065220e-01
6.055119e-01
6.026326e-01
5.983449e-01
5.931987e-01
5.877760e-01
5.824461e-01
5.773065e-01
0.000000e+00
1.000000e+00
5.765285e-01
5.800239e-01
5.840263e-01
5.880954e-01
5.919549e-01
5.951990e-01
5.973860e-01
5.981622e-01
5.973964e-01
5.952400e-01
5.920254e-01
5.881692e-01
5.841095e-01
5.801054e-01
5.762025e-01
0.000000e+00
1.000000e+00
5.753611e-01
5.776955e-01
5.803649e-01
5.830829e-01
5.856607e-01
5.878275e-01
5.892875e-01
5.898038e-01
5.892857e-01
5.878408e-01
5.857015e-01
5.831355e-01
5.804404e-01
5.777640e-01
5.750984e-01
0.000000e+00
1.000000e+00
5.742575e-01
5.754729e-01
5.768745e-01
5.783040e-01
5.796597e-01
5.807991e-01
5.815663e-01
5.818365e-01
5.815614e-01
5.807933e-01
5.796701e-01
5.783318e-01
5.769368e-01
5.755313e-01
5.740347e-01
0.000000e+00
1.000000e+00
5.732690e-01
5.734698e-01
5.737325e-01
5.740018e-01
5.742572e-01
5.744718e-01
5.746161e-01
5.746663e-01
5.746135e-01
5.744670e-01
5.742618e-01
5.740190e-01
5.737761e-01
5.735192e-01
5.730775e-01
0.000000e+00
1.000000e+00
5.724576e-01
5.717910e-01
5.711036e-01
5.704022e-01
5.697373e-01
5.691789e-01
5.688030e-01
5.686700e-01
5.688038e-01
5.691820e-01
5.697524e-01
5.704210e-01
5.711402e-01
5.718402e-01
5.722624e-01
0.000000e+00
1.000000e+00
5.718351e-01
5.705247e-01
5.691222e-01
5.676888e-01
5.663298e-01
5.651884e-01
5.644200e-01
5.641491e-01
5.644237e-01
5.651978e-01
5.663488e-01
5.677089e-01
5.691550e-01
5.705673e-01
5.716792e-01
0.000000e+00
1.000000e+00
5.714411e-01
5.697249e-01
5.678697e-01
5.659738e-01
5.641764e-01
5.626667e-01
5.616506e-01
5.612926e-01
5.616570e-01
5.626816e-01
5.641980e-01
5.659980e-01
5.678992e-01
5.697474e-01
5.714207e-01
0.000000e+00
1.000000e+00
5.712954e-01
5.694088e-01
5.673757e-01
5.652976e-01
5.633275e-01
5.616727e-01
5.605588e-01
5.601665e-01
5.605662e-01
5.616896e-01
5.633511e-01
5.653257e-01
5.674044e-01
5.694294e-01
5.712777e-01
0.000000e+00
1.000000e+00
5.713513e-01
5.695622e-01
5.676154e-01
5.656260e-01
5.637400e-01
5.621559e-01
5.610895e-01
5.607139e-01
5.610966e-01
5.621726e-01
5.637653e-01
5.656589e-01
5.676479e-01
5.695891e-01
5.712657e-01
0.000000e+00
1.000000e+00
5.716210e-01
5.701401e-01
5.685178e-01
5.668617e-01
5.652918e-01
5.639731e-01
5.630854e-01
5.627727e-01
5.630912e-01
5.639875e-01
5.653176e-01
5.669015e-01
5.685575e-01
5.701704e-01
5.715829e-01
0.000000e+00
1.000000e+00
5.720724e-01
5.710744e-01
5.699784e-01
5.688617e-01
5.678032e-01
5.669143e-01
5.663159e-01
5.661049e-01
5.663193e-01
5.669236e-01
5.678261e-01
5.689101e-01
5.700269e-01
5.711138e-01
5.720265e-01
0.000000e+00
1.000000e+00
5.726671e-01
5.722859e-01
5.718750e-01
5.714588e-01
5.710644e-01
5.707334e-01
5.705107e-01
5.704320e-01
5.705113e-01
5.707359e-01
5.710780e-01
5.715099e-01
5.719289e-01
5.723366e-01
5.725786e-01
0.000000e+00
1.000000e+00
5.733617e-01
5.736940e-01
5.740817e-01
5.744803e-01
5.748586e-01
5.751769e-01
5.753915e-01
5.754671e-01
5.753903e-01
5.751746e-01
5.748613e-01
5.745224e-01
5.741467e-01
5.737589e-01
5.731781e-01
0.000000e+00
1.000000e+00
5.817239e-01
5.897743e-01
5.995844e-01
6.094040e-01
6.187215e-01
6.265607e-01
6.318598e-01
6.337665e-01
6.319394e-01
6.267039e-01
6.189300e-01
6.095887e-01
5.997117e-01
5.900548e-01
5.808816e-01
0.000000e+00
1.000000e+00
5.808342e-01
5.880757e-01
5.968741e-01
6.056916e-01
6.140578e-01
6.210958e-01
6.258523e-01
6.275631e-01
6.259222e-01
6.212177e-01
6.142586e-01
6.058782e-01
5.970191e-01
5.883370e-01
5.801001e-01
0.000000e+00
1.000000e+00
5.797630e-01
5.861497e-01
5.937607e-01
6.014265e-01
6.086994e-01
6.148169e-01
6.189494e-01
6.204330e-01
6.190075e-01
6.149178e-01
6.088659e-01
6.015748e-01
5.938837e-01
5.863370e-01
5.791428e-01
0.000000e+00
1.000000e+00
5.786006e-01
5.839981e-01
5.903220e-01
5.967161e-01
6.027820e-01
6.078831e-01
6.113273e-01
6.125608e-01
6.113718e-01
6.079645e-01
6.029133e-01
5.968356e-01
5.904307e-01
5.841351e-01
5.781032e-01
0.000000e+00
1.000000e+00
5.773982e-01
5.816975e-01
5.866758e-01
5.917228e-01
5.965102e-01
6.005352e-01
6.032508e-01
6.042204e-01
6.032812e-01
6.005962e-01
5.966083e-01
5.918180e-01
5.867736e-01
5.818014e-01
5.769952e-01
0.000000e+00
1.000000e+00
5.762030e-01
5.793531e-01
5.829780e-01
5.866600e-01
5.901521e-01
5.930874e-01
5.950665e-01
5.957699e-01
5.950810e-01
5.931257e-01
5.902189e-01
5.867331e-01
5.830651e-01
5.794345e-01
5.758766e-01
0.000000e+00
1.000000e+00
5.750680e-01
5.770863e-01
5.794125e-01
5.817786e-01
5.840224e-01
5.859083e-01
5.871789e-01
5.876283e-01
5.871799e-01
5.859214e-01
5.840585e-01
5.818275e-01
5.794890e-01
5.771528e-01
5.747948e-01
0.000000e+00
1.000000e+00
5.740370e-01
5.750243e-01
5.761723e-01
5.773421e-01
5.784514e-01
5.793835e-01
5.800113e-01
5.802325e-01
5.800081e-01
5.793823e-01
5.784617e-01
5.773640e-01
5.762279e-01
5.750754e-01
5.738120e-01
0.000000e+00
1.000000e+00
5.731842e-01
5.732809e-01
5.734372e-01
5.735975e-01
5.737498e-01
5.738779e-01
5.739642e-01
5.739944e-01
5.739627e-01
5.738757e-01
5.737532e-01
5.736087e-01
5.734720e-01
5.733211e-01
5.729635e-01
0.000000e+00
1.000000e+00
5.725347e-01
5.719532e-01
5.713592e-01
5.707519e-01
5.701761e-01
5.696924e-01
5.693667e-01
5.692514e-01
5.693666e-01
5.696936e-01
5.701838e-01
5.707616e-01
5.713812e-01
5.719880e-01
5.723493e-01
0.000000e+00
1.000000e+00
5.721280e-01
5.711030e-01
5.700296e-01
5.689314e-01
5.678903e-01
5.670158e-01
5.664270e-01
5.662193e-01
5.664297e-01
5.670225e-01
5.679031e-01
5.689449e-01
5.700470e-01
5.711249e-01
5.720789e-01
0.000000e+00
1.000000e+00
5.719409e-01
5.707543e-01
5.694845e-01
5.681850e-01
5.669530e-01
5.659180e-01
5.652211e-01
5.649755e-01
5.652250e-01
5.659276e-01
5.669690e-01
5.682038e-01
5.695034e-01
5.707756e-01
5.719199e-01
0.000000e+00
1.000000e+00
5.719920e-01
5.708922e-01
5.696984e-01
5.684781e-01
5.673211e-01
5.663492e-01
5.656948e-01
5.654641e-01
5.656984e-01
5.663585e-01
5.673381e-01
5.685035e-01
5.697227e-01
5.709181e-01
5.719098e-01
0.000000e+00
1.000000e+00
5.722688e-01
5.714671e-01
5.705960e-01
5.697072e-01
5.688646e-01
5.681568e-01
5.676802e-01
5.675120e-01
5.676824e-01
5.681631e-01
5.688799e-01
5.697399e-01
5.706278e-01
5.714969e-01
5.722208e-01
0.000000e+00
1.000000e+00
5.727283e-01
5.724062e-01
5.720654e-01
5.717191e-01
5.713910e-01
5.711155e-01
5.709300e-01
5.708643e-01
5.709301e-01
5.711170e-01
5.714004e-01
5.717555e-01
5.721049e-01
5.724443e-01
5.726571e-01
0.000000e+00
1.000000e+00
5.733353e-01
5.736253e-01
5.739759e-01
5.743352e-01
5.746761e-01
5.749627e-01
5.751559e-01
5.752240e-01
5.751546e-01
5.749605e-01
5.746781e-01
5.743651e-01
5.740272e-01
5.736749e-01
5.732345e-01
0.000000e+00
1.000000e+00
5.740351e-01
5.750394e-01
5.761941e-01
5.773728e-01
5.784907e-01
5.794303e-01
5.800634e-01
5.802874e-01
5.800624e-01
5.794281e-01
5.784910e-01
5.774020e-01
5.762649e-01
5.751051e-01
5.738325e-01
0.000000e+00
1.000000e+00
5.823576e-01
5.907843e-01
6.014087e-01
6.119019e-01
6.218581e-01
6.302357e-01
6.359003e-01
6.379385e-01
6.359767e-01
6.303951e-01
6.220894e-01
6.121040e-01
6.015351e-01
5.912139e-01
5.814446e-01
0.000000e+00
1.000000e+00
5.815061e-01
5.892136e-01
5.988694e-01
6.084242e-01
6.174893e-01
6.251163e-01
6.302729e-01
6.321275e-01
6.303366e-01
6.252579e-01
6.177121e-01
6.086254e-01
5.990140e-01
5.896072e-01
5.807144e-01
0.000000e+00
1.000000e+00
5.804890e-01
5.874091e-01
5.958820e-01
6.043322e-01
6.123491e-01
6.190934e-01
6.236522e-01
6.252903e-01
6.237064e-01
6.192163e-01
6.125397e-01
6.044974e-01
5.960073e-01
5.876893e-01
5.797918e-01
0.000000e+00
1.000000e+00
5.793525e-01
5.853377e-01
5.925194e-01
5.997261e-01
6.065633e-01
6.123140e-01
6.161998e-01
6.175953e-01
6.162454e-01
6.124151e-01
6.067180e-01
5.998609e-01
5.926301e-01
5.855364e-01
5.787702e-01
0.000000e+00
1.000000e+00
5.781538e-01
5.830732e-01
5.888983e-01
5.947667e-01
6.003338e-01
6.050153e-01
6.081769e-01
6.093111e-01
6.082135e-01
6.050925e-01
6.004544e-01
5.948752e-01
5.889967e-01
5.832188e-01
5.776692e-01
0.000000e+00
1.000000e+00
5.769374e-01
5.807295e-01
5.851781e-01
5.896724e-01
5.939354e-01
5.975193e-01
5.999380e-01
6.008037e-01
5.999629e-01
5.975735e-01
5.940235e-01
5.897555e-01
5.852623e-01
5.808359e-01
5.765419e-01
0.000000e+00
1.000000e+00
5.757657e-01
5.784349e-01
5.815507e-01
5.847057e-01
5.876979e-01
5.902130e-01
5.919091e-01
5.925143e-01
5.919220e-01
5.902463e-01
5.877558e-01
5.847647e-01
5.816211e-01
5.785122e-01
5.754401e-01
0.000000e+00
1.000000e+00
5.746938e-01
5.763246e-01
5.782237e-01
5.801503e-01
5.819773e-01
5.835127e-01
5.845475e-01
5.849155e-01
5.845516e-01
5.835254e-01
5.820049e-01
5.801823e-01
5.782795e-01
5.763816e-01
5.744350e-01
0.000000e+00
1.000000e+00
5.738045e-01
5.745251e-01
5.753915e-01
5.762729e-01
5.771088e-01
5.778115e-01
5.782853e-01
5.784534e-01
5.782859e-01
5.778142e-01
5.771158e-01
5.762832e-01
5.754254e-01
5.745651e-01
5.735645e-01
0.000000e+00
1.000000e+00
5.731258e-01
5.731410e-01
5.732238e-01
5.733049e-01
5.733819e-01
5.734467e-01
5.734904e-01
5.735056e-01
5.734888e-01
5.734440e-01
5.733794e-01
5.733049e-01
5.732387e-01
5.731710e-01
5.729187e-01
0.000000e+00
1.000000e+00
5.726787e-01
5.722454e-01
5.718230e-01
5.713868e-01
5.709732e-01
5.706257e-01
5.703916e-01
5.703088e-01
5.703918e-01
5.706264e-01
5.709760e-01
5.713893e-01
5.718296e-01
5.722657e-01
5.726022e-01
0.000000e+00
1.000000e+00
5.724714e-01
5.718678e-01
5.712304e-01
5.705755e-01
5.699546e-01
5.694329e-01
5.690816e-01
5.689577e-01
5.690833e-01
5.694372e-01
5.699631e-01
5.705851e-01
5.712373e-01
5.718880e-01
5.724213e-01
0.000000e+00
1.000000e+00
5.725247e-01
5.719926e-01
5.714223e-01
5.708385e-01
5.702849e-01
5.698199e-01
5.695068e-01
5.693963e-01
5.695082e-01
5.698239e-01
5.702940e-01
5.708555e-01
5.714353e-01
5.720149e-01
5.724307e-01
0.000000e+00
1.000000e+00
5.728055e-01
5.725661e-01
5.723183e-01
5.720653e-01
5.718255e-01
5.716240e-01
5.714884e-01
5.714403e-01
5.714884e-01
5.716251e-01
5.718312e-01
5.720851e-01
5.723381e-01
5.725924e-01
5.727128e-01
0.000000e+00
1.000000e+00
5.732737e-01
5.735117e-01
5.737987e-01
5.740924e-01
5.743710e-01
5.746051e-01
5.747628e-01
5.748183e-01
5.747615e-01
5.746030e-01
5.743716e-01
5.741102e-01
5.738319e-01
5.735478e-01
5.731421e-01
0.000000e+00
1.000000e+00
5.738912e-01
5.747397e-01
5.757250e-01
5.767302e-01
5.776835e-01
5.784846e-01
5.790244e-01
5.792154e-01
5.790233e-01
5.784821e-01
5.776821e-01
5.767499e-01
5.757786e-01
5.747906e-01
5.737339e-01
0.000000e+00
1.000000e+00
5.745976e-01
5.761615e-01
5.779568e-01
5.797862e-01
5.815212e-01
5.829795e-01
5.839622e-01
5.843104e-01
5.839625e-01
5.829795e-01
5.815281e-01
5.798260e-01
5.780290e-01
5.762270e-01
5.743691e-01
0.000000e+00
1.000000e+00
5.827376e-01
5.915213e-01
6.026405e-01
6.135855e-01
6.239705e-01
6.327101e-01
6.386216e-01
6.407461e-01
6.386958e-01
6.328841e-01
6.242240e-01
6.138048e-01
6.027658e-01
5.919904e-01
5.818240e-01
0.000000e+00
1.000000e+00
5.819731e-01
5.900310e-01
6.002638e-01
6.103322e-01
6.198851e-01
6.279237e-01
6.333606e-01
6.353152e-01
6.334203e-01
6.280836e-01
6.201261e-01
6.105447e-01
6.004061e-01
5.904882e-01
5.811339e-01
0.000000e+00
1.000000e+00
5.810307e-01
5.882921e-01
5.974006e-01
6.064128e-01
6.149629e-01
6.221566e-01
6.270211e-01
6.287702e-01
6.270704e-01
6.222987e-01
6.151727e-01
6.065936e-01
5.975314e-01
5.886568e-01
5.802544e-01
0.000000e+00
1.000000e+00
5.799428e-01
5.862861e-01
5.941179e-01
6.019171e-01
6.093162e-01
6.155404e-01
6.197481e-01
6.212610e-01
6.197892e-01
6.156611e-01
6.094884e-01
6.020649e-01
5.942329e-01
5.865543e-01
5.792555e-01
0.000000e+00
1.000000e+00
5.787539e-01
5.840581e-01
5.905290e-01
5.970014e-01
6.031417e-01
6.083059e-01
6.117956e-01
6.130497e-01
6.118292e-01
6.084030e-01
6.032775e-01
5.971211e-01
5.906313e-01
5.842573e-01
5.781659e-01
0.000000e+00
1.000000e+00
5.775141e-01
5.817214e-01
5.867951e-01
5.918876e-01
5.967185e-01
6.007806e-01
6.035239e-01
6.045084e-01
6.035500e-01
6.008524e-01
5.968203e-01
5.919802e-01
5.868821e-01
5.818656e-01
5.770332e-01
0.000000e+00
1.000000e+00
5.762974e-01
5.794075e-01
5.831167e-01
5.868504e-01
5.903919e-01
5.933691e-01
5.953785e-01
5.960971e-01
5.953956e-01
5.934145e-01
5.904623e-01
5.869168e-01
5.831870e-01
5.795076e-01
5.759144e-01
0.000000e+00
1.000000e+00
5.751781e-01
5.772610e-01
5.797141e-01
5.821911e-01
5.845402e-01
5.865147e-01
5.878464e-01
5.883207e-01
5.878540e-01
5.865354e-01
5.845808e-01
5.822312e-01
5.797680e-01
5.773257e-01
5.748878e-01
0.000000e+00
1.000000e+00
5.742518e-01
5.754119e-01
5.767981e-01
5.781985e-01
5.795267e-01
5.806430e-01
5.813955e-01
5.816627e-01
5.813975e-01
5.806498e-01
5.795427e-01
5.782139e-01
5.768334e-01
5.754558e-01
5.740031e-01
0.000000e+00
1.000000e+00
5.735378e-01
5.739801e-01
5.745509e-01
5.751217e-01
5.756631e-01
5.761180e-01
5.764245e-01
5.765326e-01
5.764231e-01
5.761161e-01
5.756602e-01
5.751189e-01
5.745630e-01
5.740115e-01
5.733362e-01
0.000000e+00
1.000000e+00
5.730617e-01
5.730490e-01
5.730878e-01
5.731185e-01
5.731476e-01
5.731720e-01
5.731884e-01
5.731941e-01
5.731878e-01
5.731707e-01
5.731449e-01
5.731151e-01
5.730892e-01
5.730682e-01
5.729740e-01
0.000000e+00
1.000000e+00
5.728527e-01
5.726497e-01
5.724577e-01
5.722560e-01
5.720649e-01
5.719043e-01
5.717961e-01
5.717580e-01
5.717967e-01
5.719057e-01
5.720675e-01
5.722577e-01
5.724565e-01
5.726657e-01
5.727639e-01
0.000000e+00
1.000000e+00
5.729038e-01
5.727668e-01
5.726368e-01
5.725014e-01
5.723731e-01
5.722652e-01
5.721926e-01
5.721670e-01
5.721930e-01
5.722664e-01
5.723763e-01
5.725074e-01
5.726395e-01
5.727820e-01
5.728008e-01
0.000000e+00
1.000000e+00
5.731888e-01
5.733448e-01
5.735398e-01
5.737378e-01
5.739255e-01
5.740833e-01
5.741896e-01
5.742270e-01
5.741888e-01
5.740821e-01
5.739258e-01
5.737445e-01
5.735526e-01
5.733667e-01
5.730567e-01
0.000000e+00
1.000000e+00
5.736658e-01
5.743024e-01
5.750398e-01
5.757917e-01
5.765048e-01
5.771040e-01
5.775077e-01
5.776503e-01
5.775063e-01
5.771011e-01
5.765015e-01
5.758002e-01
5.750704e-01
5.743368e-01
5.735099e-01
0.000000e+00
1.000000e+00
5.742888e-01
5.755457e-01
5.769905e-01
5.784629e-01
5.798592e-01
5.810327e-01
5.818234e-01
5.821034e-01
5.818229e-01
5.810310e-01
5.798591e-01
5.784896e-01
5.770452e-01
5.755949e-01
5.741094e-01
0.000000e+00
1.000000e+00
5.750068e-01
5.769817e-01
5.792449e-01
5.815497e-01
5.837356e-01
5.855727e-01
5.868110e-01
5.872502e-01
5.868126e-01
5.855758e-01
5.837527e-01
5.816022e-01
5.793131e-01
5.770438e-01
5.747578e-01
0.000000e+00
1.000000e+00
5.828738e-01
5.918828e-01
6.031669e-01
6.143101e-01
6.248818e-01
6.337780e-01
6.397951e-01
6.419582e-01
6.398732e-01
6.339590e-01
6.251525e-01
6.145468e-01
6.033000e-01
5.923260e-01
5.819903e-01
0.000000e+00
1.000000e+00
5.821799e-01
5.905105e-01
6.009371e-01
6.112572e-01
6.210476e-01
6.292849e-01
6.348553e-01
6.368564e-01
6.349207e-01
6.294534e-01
6.212985e-01
6.114752e-01
6.010796e-01
5.909140e-01
5.813333e-01
0.000000e+00
1.000000e+00
5.812510e-01
5.888593e-01
5.981897e-01
6.074924e-01
6.163181e-01
6.237438e-01
6.287647e-01
6.305680e-01
6.288192e-01
6.238952e-01
6.165383e-01
6.076809e-01
5.983230e-01
5.891593e-01
5.804905e-01
0.000000e+00
1.000000e+00
5.801603e-01
5.868880e-01
5.949804e-01
6.030961e-01
6.107958e-01
6.172735e-01
6.216528e-01
6.232248e-01
6.216990e-01
6.174036e-01
6.109779e-01
6.032502e-01
5.950958e-01
5.871023e-01
5.795141e-01
0.000000e+00
1.000000e+00
5.789958e-01
5.846584e-01
5.914209e-01
5.982212e-01
6.046726e-01
6.100990e-01
6.137661e-01
6.150815e-01
6.138052e-01
6.102045e-01
6.048166e-01
5.983461e-01
5.915238e-01
5.848243e-01
5.784349e-01
0.000000e+00
1.000000e+00
5.777698e-01
5.823029e-01
5.876759e-01
5.930925e-01
5.982307e-01
6.025513e-01
6.054691e-01
6.065145e-01
6.055008e-01
6.026295e-01
5.983382e-01
5.931885e-01
5.877626e-01
5.824251e-01
5.772955e-01
0.000000e+00
1.000000e+00
5.765515e-01
5.799510e-01
5.839515e-01
5.879928e-01
5.918258e-01
5.950482e-01
5.972229e-01
5.980004e-01
5.972455e-01
5.950997e-01
5.919007e-01
5.880624e-01
5.840222e-01
5.800390e-01
5.761634e-01
0.000000e+00
1.000000e+00
5.754201e-01
5.777546e-01
5.804809e-01
5.832409e-01
5.858582e-01
5.880582e-01
5.895420e-01
5.900710e-01
5.895542e-01
5.880854e-01
5.859040e-01
5.832858e-01
5.805347e-01
5.778129e-01
5.751382e-01
0.000000e+00
1.000000e+00
5.744733e-01
5.758569e-01
5.774898e-01
5.791461e-01
5.807168e-01
5.820371e-01
5.829273e-01
5.832442e-01
5.829326e-01
5.820483e-01
5.807392e-01
5.791698e-01
5.775309e-01
5.758955e-01
5.742569e-01
0.000000e+00
1.000000e+00
5.737476e-01
5.743833e-01
5.751762e-01
5.759782e-01
5.767390e-01
5.773783e-01
5.778092e-01
5.779617e-01
5.778090e-01
5.773790e-01
5.767414e-01
5.759804e-01
5.751931e-01
5.744060e-01
5.735644e-01
0.000000e+00
1.000000e+00
5.732605e-01
5.734211e-01
5.736683e-01
5.739131e-01
5.741452e-01
5.743402e-01
5.744715e-01
5.745178e-01
5.744707e-01
5.743382e-01
5.741414e-01
5.739086e-01
5.736695e-01
5.734314e-01
5.731483e-01
0.000000e+00
1.000000e+00
5.730400e-01
5.730061e-01
5.730163e-01
5.730207e-01
5.730248e-01
5.730283e-01
5.730306e-01
5.730315e-01
5.730307e-01
5.730282e-01
5.730240e-01
5.730187e-01
5.730131e-01
5.730166e-01
5.729563e-01
0.000000e+00
1.000000e+00
5.730838e-01
5.731237e-01
5.731971e-01
5.732684e-01
5.733359e-01
5.733927e-01
5.734309e-01
5.734443e-01
5.734308e-01
5.733925e-01
5.733359e-01
5.732679e-01
5.731970e-01
5.731347e-01
5.730004e-01
0.000000e+00
1.000000e+00
5.733737e-01
5.737153e-01
5.741214e-01
5.745341e-01
5.749254e-01
5.752542e-01
5.754756e-01
5.755537e-01
5.754746e-01
5.752522e-01
5.749232e-01
5.745339e-01
5.741326e-01
5.737363e-01
5.732202e-01
0.000000e+00
1.000000e+00
5.738592e-01
5.746950e-01
5.756559e-01
5.766354e-01
5.775641e-01
5.783446e-01
5.788704e-01
5.790563e-01
5.788691e-01
5.783413e-01
5.775588e-01
5.766426e-01
5.756886e-01
5.747280e-01
5.736774e-01
0.000000e+00
1.000000e+00
5.744919e-01
5.759640e-01
5.776466e-01
5.793612e-01
5.809872e-01
5.823536e-01
5.832744e-01
5.836005e-01
5.832741e-01
5.823521e-01
5.809883e-01
5.793948e-01
5.777072e-01
5.760105e-01
5.742890e-01
0.000000e+00
1.000000e+00
5.752279e-01
5.774244e-01
5.799401e-01
5.825017e-01
5.849309e-01
5.869726e-01
5.883489e-01
5.888372e-01
5.883516e-01
5.869786e-01
5.849527e-01
5.825591e-01
5.800077e-01
5.774827e-01
5.749662e-01
0.000000e+00
1.000000e+00
5.827911e-01
5.918281e-01
6.029223e-01
6.139775e-01
6.244670e-01
6.332935e-01
6.392626e-01
6.414122e-01
6.393491e-01
6.334733e-01
6.247445e-01
6.142184e-01
6.030592e-01
5.921837e-01
5.819274e-01
0.000000e+00
1.000000e+00
5.821050e-01
5.905237e-01
6.008028e-01
6.110750e-01
6.208213e-01
6.290214e-01
6.345648e-01
6.365571e-01
6.346416e-01
6.291908e-01
6.210753e-01
6.112930e-01
6.009464e-01
5.908365e-01
5.812924e-01
0.000000e+00
1.000000e+00
5.811725e-01
5.888926e-01
5.981405e-01
6.074265e-01
6.162372e-01
6.236496e-01
6.286599e-01
6.304583e-01
6.287269e-01
6.238026e-01
6.164622e-01
6.076206e-01
5.982803e-01
5.891364e-01
5.804790e-01
0.000000e+00
1.000000e+00
5.801081e-01
5.869267e-01
5.949853e-01
6.031039e-01
6.108061e-01
6.172851e-01
6.216635e-01
6.232333e-01
6.217214e-01
6.174159e-01
6.109917e-01
6.032617e-01
5.951059e-01
5.871127e-01
5.795181e-01
0.000000e+00
1.000000e+00
5.789661e-01
5.846964e-01
5.914441e-01
5.982534e-01
6.047130e-01
6.101458e-01
6.138156e-01
6.151298e-01
6.138649e-01
6.102511e-01
6.048602e-01
5.983820e-01
5.915523e-01
5.848462e-01
5.784433e-01
0.000000e+00
1.000000e+00
5.777526e-01
5.823201e-01
5.876820e-01
5.931017e-01
5.982425e-01
6.025654e-01
6.054836e-01
6.065272e-01
6.055228e-01
6.026447e-01
5.983539e-01
5.932028e-01
5.877755e-01
5.824370e-01
5.772975e-01
0.000000e+00
1.000000e+00
5.765421e-01
5.799339e-01
5.839144e-01
5.879429e-01
5.917638e-01
5.949763e-01
5.971433e-01
5.979168e-01
5.971700e-01
5.950307e-01
5.918422e-01
5.880186e-01
5.839927e-01
5.800246e-01
5.761524e-01
0.000000e+00
1.000000e+00
5.753992e-01
5.776996e-01
5.803861e-01
5.831117e-01
5.856965e-01
5.878690e-01
5.893334e-01
5.898547e-01
5.893467e-01
5.878986e-01
5.857436e-01
5.831616e-01
5.804475e-01
5.777621e-01
5.751252e-01
0.000000e+00
1.000000e+00
5.744245e-01
5.757631e-01
5.773352e-01
5.789346e-01
5.804513e-01
5.817260e-01
5.825852e-01
5.828907e-01
5.825902e-01
5.817376e-01
5.804728e-01
5.789606e-01
5.773819e-01
5.758036e-01
5.742564e-01
0.000000e+00
1.000000e+00
5.736854e-01
5.742562e-01
5.749718e-01
5.756986e-01
5.763879e-01
5.769672e-01
5.773576e-01
5.774958e-01
5.773575e-01
5.769678e-01
5.763903e-01
5.757035e-01
5.749930e-01
5.742772e-01
5.735512e-01
0.000000e+00
1.000000e+00
5.731888e-01
5.732752e-01
5.734354e-01
5.735943e-01
5.737450e-01
5.738715e-01
5.739566e-01
5.739864e-01
5.739552e-01
5.738684e-01
5.737407e-01
5.735924e-01
5.734399e-01
5.732823e-01
5.730755e-01
0.000000e+00
1.000000e+00
5.729744e-01
5.728575e-01
5.727801e-01
5.726972e-01
5.726185e-01
5.725523e-01
5.725077e-01
5.724918e-01
5.725072e-01
5.725510e-01
5.726163e-01
5.726970e-01
5.727796e-01
5.728547e-01
5.728939e-01
0.000000e+00
1.000000e+00
5.730236e-01
5.729877e-01
5.729826e-01
5.729745e-01
5.729667e-01
5.729602e-01
5.729557e-01
5.729539e-01
5.729551e-01
5.729589e-01
5.729647e-01
5.729749e-01
5.729854e-01
5.729878e-01
5.729356e-01
0.000000e+00
1.000000e+00
5.733191e-01
5.736055e-01
5.739484e-01
5.742971e-01
5.746277e-01
5.749053e-01
5.750923e-01
5.751580e-01
5.750909e-01
5.749024e-01
5.746233e-01
5.742947e-01
5.739627e-01
5.736173e-01
5.732135e-01
0.000000e+00
1.000000e+00
5.738186e-01
5.746207e-01
5.755380e-01
5.764738e-01
5.773611e-01
5.781068e-01
5.786090e-01
5.787864e-01
5.786073e-01
5.781026e-01
5.773537e-01
5.764750e-01
5.755715e-01
5.746461e-01
5.736646e-01
0.000000e+00
1.000000e+00
5.744795e-01
5.759287e-01
5.775900e-01
5.792837e-01
5.808898e-01
5.822395e-01
5.831490e-01
5.834710e-01
5.831483e-01
5.822374e-01
5.808876e-01
5.793090e-01
5.776538e-01
5.759684e-01
5.742716e-01
0.000000e+00
1.000000e+00
5.752348e-01
5.774274e-01
5.799452e-01
5.825087e-01
5.849397e-01
5.869829e-01
5.883601e-01
5.888487e-01
5.883627e-01
5.869887e-01
5.849590e-01
5.825632e-01
5.800159e-01
5.774807e-01
5.749621e-01
0.000000e+00
1.000000e+00
5.823774e-01
5.912676e-01
6.018869e-01
6.125555e-01
6.226800e-01
6.311998e-01
6.369615e-01
6.390383e-01
6.370546e-01
6.313713e-01
6.229529e-01
6.127871e-01
6.020204e-01
5.915245e-01
5.816128e-01
0.000000e+00
1.000000e+00
5.817089e-01
5.899858e-01
5.998312e-01
6.097400e-01
6.191429e-01
6.270544e-01
6.324020e-01
6.343268e-01
6.324875e-01
6.272190e-01
6.193911e-01
6.099489e-01
5.999716e-01
5.902205e-01
5.809927e-01
0.000000e+00
1.000000e+00
5.808254e-01
5.883507e-01
5.972129e-01
6.061530e-01
6.146363e-01
6.217732e-01
6.265952e-01
6.283290e-01
6.266723e-01
6.219221e-01
6.148571e-01
6.063429e-01
5.973533e-01
5.885496e-01
5.801976e-01
0.000000e+00
1.000000e+00
5.797911e-01
5.863802e-01
5.940779e-01
6.018594e-01
6.092426e-01
6.154531e-01
6.196472e-01
6.211526e-01
6.197135e-01
6.155796e-01
6.094257e-01
6.020175e-01
5.942040e-01
5.865415e-01
5.792429e-01
0.000000e+00
1.000000e+00
5.786520e-01
5.841391e-01
5.905321e-01
5.970042e-01
6.031443e-01
6.083081e-01
6.117934e-01
6.130417e-01
6.118469e-01
6.084107e-01
6.032903e-01
5.971357e-01
5.906483e-01
5.842733e-01
5.781670e-01
0.000000e+00
1.000000e+00
5.774338e-01
5.817401e-01
5.867439e-01
5.918171e-01
5.966295e-01
6.006758e-01
6.034053e-01
6.043800e-01
6.034429e-01
6.007536e-01
5.967396e-01
5.919226e-01
5.868470e-01
5.818482e-01
5.770148e-01
0.000000e+00
1.000000e+00
5.762101e-01
5.793247e-01
5.829340e-01
5.866005e-01
5.900780e-01
5.930011e-01
5.949718e-01
5.956729e-01
5.949918e-01
5.930510e-01
5.901536e-01
5.866802e-01
5.830217e-01
5.794076e-01
5.758557e-01
0.000000e+00
1.000000e+00
5.750551e-01
5.770517e-01
5.793547e-01
5.816996e-01
5.839233e-01
5.857922e-01
5.870515e-01
5.874980e-01
5.870577e-01
5.858135e-01
5.839643e-01
5.817506e-01
5.794275e-01
5.771133e-01
5.748109e-01
0.000000e+00
1.000000e+00
5.740719e-01
5.750798e-01
5.762576e-01
5.774591e-01
5.785985e-01
5.795560e-01
5.802013e-01
5.804297e-01
5.802018e-01
5.795603e-01
5.786114e-01
5.774811e-01
5.763077e-01
5.751204e-01
5.739363e-01
0.000000e+00
1.000000e+00
5.733248e-01
5.735511e-01
5.738618e-01
5.741786e-01
5.744792e-01
5.747318e-01
5.749020e-01
5.749618e-01
5.749006e-01
5.747296e-01
5.744791e-01
5.741882e-01
5.738882e-01
5.735738e-01
5.732229e-01
0.000000e+00
1.000000e+00
5.728311e-01
5.725635e-01
5.723159e-01
5.720615e-01
5.718203e-01
5.716175e-01
5.714807e-01
5.714317e-01
5.714790e-01
5.716143e-01
5.718187e-01
5.720692e-01
5.723288e-01
5.725755e-01
5.727310e-01
0.000000e+00
1.000000e+00
5.726212e-01
5.721562e-01
5.716778e-01
5.711879e-01
5.707232e-01
5.703326e-01
5.700693e-01
5.699759e-01
5.700687e-01
5.703313e-01
5.707233e-01
5.711973e-01
5.716848e-01
5.721621e-01
5.725375e-01
0.000000e+00
1.000000e+00
5.726939e-01
5.723127e-01
5.719225e-01
5.715230e-01
5.711441e-01
5.708257e-01
5.706110e-01
5.705348e-01
5.706104e-01
5.708243e-01
5.711431e-01
5.715331e-01
5.719318e-01
5.723229e-01
5.725816e-01
0.000000e+00
1.000000e+00
5.730025e-01
5.729706e-01
5.729517e-01
5.729323e-01
5.729138e-01
5.728982e-01
5.728874e-01
5.728832e-01
5.728858e-01
5.728948e-01
5.729086e-01
5.729379e-01
5.729707e-01
5.729805e-01
5.729412e-01
0.000000e+00
1.000000e+00
5.735249e-01
5.740358e-01
5.746190e-01
5.752154e-01
5.757809e-01
5.762560e-01
5.765759e-01
5.766885e-01
5.765735e-01
5.762509e-01
5.757721e-01
5.752153e-01
5.746506e-01
5.740581e-01
5.734426e-01
0.000000e+00
1.000000e+00
5.742163e-01
5.753985e-01
5.767564e-01
5.781423e-01
5.794566e-01
5.805610e-01
5.813051e-01
5.815683e-01
5.813036e-01
5.805575e-01
5.794497e-01
5.781545e-01
5.768178e-01
5.754367e-01
5.740696e-01
0.000000e+00
1.000000e+00
5.750007e-01
5.769528e-01
5.791988e-01
5.814868e-01
5.836565e-01
5.854802e-01
5.867093e-01
5.871450e-01
5.867103e-01
5.854824e-01
5.836661e-01
5.815321e-01
5.792753e-01
5.770048e-01
5.747580e-01
0.000000e+00
1.000000e+00
5.817511e-01
5.901727e-01
6.000829e-01
6.100812e-01
6.195691e-01
6.275523e-01
6.329498e-01
6.348954e-01
6.330423e-01
6.277086e-01
6.198196e-01
6.102867e-01
6.002085e-01
5.903723e-01
5.810647e-01
0.000000e+00
1.000000e+00
5.810851e-01
5.888878e-01
5.980381e-01
6.072811e-01
6.160516e-01
6.234300e-01
6.284153e-01
6.302092e-01
6.285000e-01
6.235807e-01
6.162791e-01
6.074717e-01
5.981747e-01
5.890738e-01
5.804469e-01
0.000000e+00
1.000000e+00
5.802257e-01
5.872373e-01
5.954181e-01
6.036933e-01
6.115448e-01
6.181490e-01
6.226090e-01
6.242112e-01
6.226843e-01
6.182870e-01
6.117497e-01
6.038721e-01
5.955589e-01
5.874047e-01
5.796515e-01
0.000000e+00
1.000000e+00
5.791979e-01
5.852492e-01
5.922682e-01
5.993804e-01
6.061279e-01
6.118023e-01
6.156324e-01
6.170045e-01
6.156933e-01
6.119205e-01
6.062981e-01
5.995332e-01
5.923999e-01
5.853915e-01
5.786939e-01
0.000000e+00
1.000000e+00
5.780456e-01
5.829864e-01
5.886945e-01
5.944875e-01
5.999829e-01
6.046036e-01
6.077205e-01
6.088331e-01
6.077627e-01
6.046972e-01
6.001184e-01
5.946176e-01
5.888189e-01
5.831075e-01
5.776099e-01
0.000000e+00
1.000000e+00
5.768163e-01
5.805583e-01
5.848673e-01
5.892475e-01
5.934022e-01
5.968951e-01
5.992500e-01
6.000872e-01
5.992723e-01
5.969588e-01
5.935020e-01
5.893538e-01
5.849811e-01
5.806580e-01
5.764472e-01
0.000000e+00
1.000000e+00
5.755791e-01
5.781093e-01
5.810124e-01
5.839695e-01
5.867742e-01
5.891318e-01
5.907206e-01
5.912835e-01
5.907271e-01
5.891619e-01
5.868355e-01
5.840480e-01
5.811137e-01
5.781902e-01
5.752756e-01
0.000000e+00
1.000000e+00
5.744195e-01
5.758032e-01
5.773895e-01
5.790090e-01
5.805450e-01
5.818359e-01
5.827056e-01
5.830130e-01
5.827051e-01
5.818422e-01
5.805692e-01
5.790529e-01
5.774736e-01
5.758684e-01
5.742139e-01
0.000000e+00
1.000000e+00
5.734288e-01
5.738072e-01
5.742600e-01
5.747239e-01
5.751639e-01
5.755338e-01
5.757830e-01
5.758708e-01
5.757817e-01
5.755329e-01
5.751706e-01
5.747489e-01
5.743140e-01
5.738501e-01
5.733214e-01
0.000000e+00
1.000000e+00
5.726766e-01
5.722678e-01
5.718495e-01
5.714233e-01
5.710193e-01
5.706800e-01
5.704515e-01
5.703704e-01
5.704512e-01
5.706804e-01
5.710278e-01
5.714486e-01
5.718874e-01
5.722964e-01
5.725988e-01
0.000000e+00
1.000000e+00
5.721968e-01
5.712856e-01
5.703123e-01
5.693183e-01
5.683759e-01
5.675840e-01
5.670506e-01
5.668618e-01
5.670515e-01
5.675861e-01
5.683865e-01
5.693433e-01
5.703400e-01
5.713038e-01
5.721372e-01
0.000000e+00
1.000000e+00
5.720020e-01
5.709014e-01
5.697104e-01
5.684940e-01
5.673406e-01
5.663715e-01
5.657187e-01
5.654878e-01
5.657202e-01
5.663744e-01
5.673505e-01
5.685175e-01
5.697303e-01
5.709152e-01
5.719001e-01
0.000000e+00
1.000000e+00
5.720946e-01
5.710968e-01
5.700159e-01
5.689124e-01
5.678661e-01
5.669870e-01
5.663948e-01
5.661853e-01
5.663958e-01
5.669890e-01
5.678729e-01
5.689379e-01
5.700364e-01
5.711136e-01
5.719731e-01
0.000000e+00
1.000000e+00
5.724352e-01
5.718065e-01
5.711267e-01
5.704335e-01
5.697762e-01
5.692239e-01
5.688517e-01
5.687198e-01
5.688514e-01
5.692234e-01
5.697761e-01
5.704623e-01
5.711541e-01
5.718216e-01
5.723641e-01
0.000000e+00
1.000000e+00
5.729845e-01
5.729336e-01
5.728910e-01
5.728494e-01
5.728100e-01
5.727768e-01
5.727543e-01
5.727458e-01
5.727524e-01
5.727728e-01
5.728032e-01
5.728687e-01
5.729251e-01
5.729564e-01
5.729428e-01
0.000000e+00
1.000000e+00
5.737006e-01
5.743655e-01
5.751351e-01
5.759223e-01
5.766688e-01
5.772962e-01
5.777187e-01