<?xml version="1.0"?>
<VTKFile type="StructuredGrid" version="0.1">
  <StructuredGrid WholeExtent="0 16 0 16 0 16">
    <Piece Extent="0 16 0 16 0 16">
      <PointData Scalars="temperature" Vectors="velocity">
        <DataArray type="Float32" Name="temperature" format="ascii">
1.000000e+00
5.735092e-01
5.736625e-01
5.740382e-01
5.744176e-01
5.747779e-01
5.750813e-01
5.752856e-01
5.753562e-01
5.752792e-01
5.750682e-01
5.747682e-01
5.745240e-01
5.742372e-01
5.738540e-01
5.728211e-01
0.000000e+00
1.000000e+00
5.726664e-01
5.721422e-01
5.716394e-01
5.711328e-01
5.706535e-01
5.702523e-01
5.699829e-01
5.698866e-01
5.699795e-01
5.702451e-01
5.706721e-01
5.713455e-01
5.718609e-01
5.723442e-01
5.721009e-01
0.000000e+00
1.000000e+00
5.716946e-01
5.703384e-01
5.688011e-01
5.672473e-01
5.657758e-01
5.645424e-01
5.637145e-01
5.634240e-01
5.637232e-01
5.645609e-01
5.658549e-01
5.675447e-01
5.690688e-01
5.705609e-01
5.712396e-01
0.000000e+00
1.000000e+00
5.706101e-01
5.682856e-01
5.655789e-01
5.628363e-01
5.602386e-01
5.580608e-01
5.566006e-01
5.560930e-01
5.566307e-01
5.581219e-01
5.603870e-01
5.631690e-01
5.658700e-01
5.685086e-01
5.702590e-01
0.000000e+00
1.000000e+00
5.694708e-01
5.660454e-01
5.620682e-01
5.580302e-01
5.542053e-01
5.509986e-01
5.488501e-01
5.481086e-01
5.489077e-01
5.511080e-01
5.544123e-01
5.583879e-01
5.623705e-01
5.662665e-01
5.691943e-01
0.000000e+00
1.000000e+00
5.683091e-01
5.637059e-01
5.584036e-01
5.530123e-01
5.479061e-01
5.436262e-01
5.407608e-01
5.397765e-01
5.408470e-01
5.437849e-01
5.481646e-01
5.533986e-01
5.587076e-01
5.639236e-01
5.680755e-01
0.000000e+00
1.000000e+00
5.671483e-01
5.613727e-01
5.547515e-01
5.480111e-01
5.416282e-01
5.362804e-01
5.327025e-01
5.314761e-01
5.328165e-01
5.364887e-01
5.419363e-01
5.484341e-01
5.550555e-01
5.615872e-01
5.669620e-01
0.000000e+00
1.000000e+00
5.660470e-01
5.591615e-01
5.512977e-01
5.432823e-01
5.356936e-01
5.293384e-01
5.250888e-01
5.236341e-01
5.252294e-01
5.295945e-01
5.360478e-01
5.437556e-01
5.516057e-01
5.593711e-01
5.659019e-01
0.000000e+00
1.000000e+00
5.650887e-01
5.571936e-01
5.482314e-01
5.390847e-01
5.304282e-01
5.231815e-01
5.183371e-01
5.166802e-01
5.184999e-01
5.234794e-01
5.308223e-01
5.396113e-01
5.485628e-01
5.574021e-01
5.650007e-01
0.000000e+00
1.000000e+00
5.643459e-01
5.555827e-01
5.457241e-01
5.356535e-01
5.261265e-01
5.181530e-01
5.128234e-01
5.109999e-01
5.130009e-01
5.184822e-01
5.265506e-01
5.362132e-01
5.461069e-01
5.557756e-01
5.643071e-01
0.000000e+00
1.000000e+00
5.638434e-01
5.544145e-01
5.439087e-01
5.331721e-01
5.230178e-01
5.145199e-01
5.088386e-01
5.068928e-01
5.090235e-01
5.148676e-01
5.234710e-01
5.337117e-01
5.443678e-01
5.546099e-01
5.636956e-01
0.000000e+00
1.000000e+00
5.636004e-01
5.537427e-01
5.428693e-01
5.317546e-01
5.212429e-01
5.124447e-01
5.065608e-01
5.045430e-01
5.067464e-01
5.127976e-01
5.217228e-01
5.322180e-01
5.433741e-01
5.540136e-01
5.629407e-01
0.000000e+00
1.000000e+00
5.636198e-01
5.535927e-01
5.426342e-01
5.314352e-01
5.208428e-01
5.119754e-01
5.060435e-01
5.040071e-01
5.062250e-01
5.123225e-01
5.213267e-01
5.318324e-01
5.431610e-01
5.539986e-01
5.623000e-01
0.000000e+00
1.000000e+00
5.638266e-01
5.539407e-01
5.431731e-01
5.321722e-01
5.217657e-01
5.130528e-01
5.072231e-01
5.052200e-01
5.073968e-01
5.133845e-01
5.222149e-01
5.325756e-01
5.437097e-01
5.546645e-01
5.613450e-01
0.000000e+00
1.000000e+00
5.641670e-01
5.547324e-01
5.444096e-01
5.338638e-01
5.238860e-01
5.155310e-01
5.099399e-01
5.080179e-01
5.101033e-01
5.158408e-01
5.242882e-01
5.343000e-01
5.448925e-01
5.556403e-01
5.615282e-01
0.000000e+00
1.000000e+00
5.646662e-01
5.559015e-01
5.462379e-01
5.363662e-01
5.270248e-01
5.192022e-01
5.139670e-01
5.121670e-01
5.141184e-01
5.194863e-01
5.273826e-01
5.368216e-01
5.466947e-01
5.569668e-01
5.624833e-01
0.000000e+00
1.000000e+00
5.651666e-01
5.573804e-01
5.485322e-01
5.395069e-01
5.309667e-01
5.238157e-01
5.190322e-01
5.173905e-01
5.191785e-01
5.240867e-01
5.313074e-01
5.399738e-01
5.489492e-01
5.587639e-01
5.607887e-01
0.000000e+00
1.000000e+00
5.727406e-01
5.722137e-01
5.717622e-01
5.713008e-01
5.708636e-01
5.704970e-01
5.702502e-01
5.701616e-01
5.702456e-01
5.704889e-01
5.708789e-01
5.714502e-01
5.719243e-01
5.723917e-01
5.721020e-01
0.000000e+00
1.000000e+00
5.718939e-01
5.706295e-01
5.692680e-01
5.678861e-01
5.665768e-01
5.654786e-01
5.647404e-01
5.644805e-01
5.647454e-01
5.654915e-01
5.666453e-01
5.681126e-01
5.694743e-01
5.708192e-01
5.713607e-01
0.000000e+00
1.000000e+00
5.709032e-01
5.687575e-01
5.663267e-01
5.638594e-01
5.615221e-01
5.595617e-01
5.582460e-01
5.577871e-01
5.582684e-01
5.596094e-01
5.616500e-01
5.641325e-01
5.665826e-01
5.689697e-01
5.704715e-01
0.000000e+00
1.000000e+00
5.697965e-01
5.666350e-01
5.629987e-01
5.593037e-01
5.558035e-01
5.528682e-01
5.509004e-01
5.502191e-01
5.509472e-01
5.529602e-01
5.559865e-01
5.596074e-01
5.632709e-01
5.668475e-01
5.694385e-01
0.000000e+00
1.000000e+00
5.686330e-01
5.643293e-01
5.593885e-01
5.543613e-01
5.495997e-01
5.456083e-01
5.429343e-01
5.420135e-01
5.430086e-01
5.457472e-01
5.498337e-01
5.546957e-01
5.596752e-01
5.645515e-01
5.683327e-01
0.000000e+00
1.000000e+00
5.674381e-01
5.619355e-01
5.556436e-01
5.492341e-01
5.431644e-01
5.380785e-01
5.346744e-01
5.335054e-01
5.347762e-01
5.382664e-01
5.434501e-01
5.496078e-01
5.559371e-01
5.621619e-01
5.671861e-01
0.000000e+00
1.000000e+00
5.662686e-01
5.595685e-01
5.519467e-01
5.441726e-01
5.368129e-01
5.306487e-01
5.265257e-01
5.251120e-01
5.266547e-01
5.308855e-01
5.371518e-01
5.445951e-01
5.522484e-01
5.598041e-01
5.660542e-01
0.000000e+00
1.000000e+00
5.652071e-01
5.573591e-01
5.485018e-01
5.394564e-01
5.308965e-01
5.237304e-01
5.189389e-01
5.172975e-01
5.190922e-01
5.240123e-01
5.312855e-01
5.399373e-01
5.488171e-01
5.576000e-01
5.649931e-01
0.000000e+00
1.000000e+00
5.643108e-01
5.554390e-01
5.455126e-01
5.353657e-01
5.257675e-01
5.177344e-01
5.123640e-01
5.105242e-01
5.125356e-01
5.180536e-01
5.261987e-01
5.358963e-01
5.458586e-01
5.556886e-01
5.640752e-01
0.000000e+00
1.000000e+00
5.636228e-01
5.539249e-01
5.431591e-01
5.321484e-01
5.217364e-01
5.130229e-01
5.071965e-01
5.051988e-01
5.073795e-01
5.133675e-01
5.221990e-01
5.326997e-01
5.435597e-01
5.541762e-01
5.633649e-01
0.000000e+00
1.000000e+00
5.631987e-01
5.529083e-01
5.415792e-01
5.299916e-01
5.190352e-01
5.098648e-01
5.037313e-01
5.016261e-01
5.039194e-01
5.102227e-01
5.195205e-01
5.305019e-01
5.420537e-01
5.531660e-01
5.630052e-01
0.000000e+00
1.000000e+00
5.630421e-01
5.524417e-01
5.408516e-01
5.289991e-01
5.177911e-01
5.084086e-01
5.021317e-01
4.999757e-01
5.023202e-01
5.087690e-01
5.182922e-01
5.294389e-01
5.413296e-01
5.527441e-01
5.628392e-01
0.000000e+00
1.000000e+00
5.630547e-01
5.525346e-01
5.409877e-01
5.291833e-01
5.180197e-01
5.086738e-01
5.024207e-01
5.002721e-01
5.026063e-01
5.090282e-01
5.185152e-01
5.295903e-01
5.414570e-01
5.528128e-01
5.630333e-01
0.000000e+00
1.000000e+00
5.632561e-01
5.531546e-01
5.419365e-01
5.304767e-01
5.196379e-01
5.105639e-01
5.044929e-01
5.024067e-01
5.046724e-01
5.109046e-01
5.200974e-01
5.309142e-01
5.424050e-01
5.534678e-01
5.627143e-01
0.000000e+00
1.000000e+00
5.636774e-01
5.542321e-01
5.435991e-01
5.327493e-01
5.224847e-01
5.138911e-01
5.081418e-01
5.061665e-01
5.083120e-01
5.142108e-01
5.229006e-01
5.332177e-01
5.439804e-01
5.546005e-01
5.629663e-01
0.000000e+00
1.000000e+00
5.643146e-01
5.556817e-01
5.458491e-01
5.358296e-01
5.263477e-01
5.184079e-01
5.130960e-01
5.112711e-01
5.132535e-01
5.187007e-01
5.267211e-01
5.362968e-01
5.462273e-01
5.562354e-01
5.638443e-01
0.000000e+00
1.000000e+00
5.651877e-01
5.574113e-01
5.485534e-01
5.395326e-01
5.309943e-01
5.238431e-01
5.190578e-01
5.174132e-01
5.191984e-01
5.241030e-01
5.313290e-01
5.399956e-01
5.489535e-01
5.585011e-01
5.616834e-01
0.000000e+00
1.000000e+00
5.720964e-01
5.709592e-01
5.697938e-01
5.686055e-01
5.674792e-01
5.665338e-01
5.658975e-01
5.656724e-01
5.658987e-01
5.665397e-01
5.675275e-01
5.687619e-01
5.699437e-01
5.711232e-01
5.714832e-01
0.000000e+00
1.000000e+00
5.712384e-01
5.693266e-01
5.672265e-01
5.650906e-01
5.630668e-01
5.613684e-01
5.602271e-01
5.598273e-01
5.602415e-01
5.614023e-01
5.631681e-01
5.652895e-01
5.674100e-01
5.694937e-01
5.707365e-01
0.000000e+00
1.000000e+00
5.702388e-01
5.674025e-01
5.642064e-01
5.609560e-01
5.578764e-01
5.552931e-01
5.535595e-01
5.529567e-01
5.535938e-01
5.553652e-01
5.580310e-01
5.611966e-01
5.644307e-01
5.675905e-01
5.698430e-01
0.000000e+00
1.000000e+00
5.691213e-01
5.652275e-01
5.607986e-01
5.562908e-01
5.520204e-01
5.484396e-01
5.460391e-01
5.452090e-01
5.460979e-01
5.485547e-01
5.522236e-01
5.565646e-01
5.610435e-01
5.654242e-01
5.687926e-01
0.000000e+00
1.000000e+00
5.679385e-01
5.628738e-01
5.571159e-01
5.512490e-01
5.456925e-01
5.410353e-01
5.379161e-01
5.368415e-01
5.380010e-01
5.411967e-01
5.459486e-01
5.515603e-01
5.573751e-01
5.630832e-01
5.676752e-01
0.000000e+00
1.000000e+00
5.667285e-01
5.604428e-01
5.533178e-01
5.460495e-01
5.391677e-01
5.334025e-01
5.295441e-01
5.282175e-01
5.296559e-01
5.336123e-01
5.394821e-01
5.464090e-01
5.535890e-01
5.606651e-01
5.665219e-01
0.000000e+00
1.000000e+00
5.655685e-01
5.580613e-01
5.496028e-01
5.409642e-01
5.327881e-01
5.259418e-01
5.213619e-01
5.197894e-01
5.214995e-01
5.261989e-01
5.331632e-01
5.413809e-01
5.498889e-01
5.583006e-01
5.653952e-01
0.000000e+00
1.000000e+00
5.645416e-01
5.558732e-01
5.461913e-01
5.362953e-01
5.269336e-01
5.190972e-01
5.138558e-01
5.120570e-01
5.140150e-01
5.193964e-01
5.273651e-01
5.367700e-01
5.464963e-01
5.561232e-01
5.643514e-01
0.000000e+00
1.000000e+00
5.636932e-01
5.540164e-01
5.433002e-01
5.323423e-01
5.219800e-01
5.133068e-01
5.075052e-01
5.055131e-01
5.076798e-01
5.136384e-01
5.224558e-01
5.328567e-01
5.436382e-01
5.542749e-01
5.634728e-01
0.000000e+00
1.000000e+00
5.630904e-01
5.526120e-01
5.411189e-01
5.293650e-01
5.182514e-01
5.089479e-01
5.027232e-01
5.005839e-01
5.029068e-01
5.092998e-01
5.187499e-01
5.298980e-01
5.414950e-01
5.528764e-01
5.628073e-01
0.000000e+00
1.000000e+00
5.627940e-01
5.517570e-01
5.397869e-01
5.275503e-01
5.159787e-01
5.062895e-01
4.998050e-01
4.975748e-01
4.999926e-01
5.066502e-01
5.164798e-01
5.280743e-01
5.402241e-01
5.520172e-01
5.624094e-01
0.000000e+00
1.000000e+00
5.627219e-01
5.514921e-01
5.393744e-01
5.269879e-01
5.152728e-01
5.054624e-01
4.988960e-01
4.966369e-01
4.990841e-01
5.058237e-01
5.157692e-01
5.274626e-01
5.398529e-01
5.518106e-01
5.622653e-01
0.000000e+00
1.000000e+00
5.627374e-01
5.518117e-01
5.398753e-01
5.276680e-01
5.161228e-01
5.064555e-01
4.999851e-01
4.977593e-01
5.001708e-01
5.068104e-01
5.166031e-01
5.281231e-01
5.403573e-01
5.521277e-01
5.625347e-01
0.000000e+00
1.000000e+00
5.630138e-01
5.526857e-01
5.412189e-01
5.294981e-01
5.184132e-01
5.091327e-01
5.029224e-01
5.007869e-01
5.031024e-01
5.094740e-01
5.188553e-01
5.299951e-01
5.416899e-01
5.529817e-01
5.626121e-01
0.000000e+00
1.000000e+00
5.635694e-01
5.540243e-01
5.432842e-01
5.323198e-01
5.219476e-01
5.132639e-01
5.074541e-01
5.054573e-01
5.076243e-01
5.135829e-01
5.223499e-01
5.328371e-01
5.436557e-01
5.543082e-01
5.631546e-01
0.000000e+00
1.000000e+00
5.643473e-01
5.557265e-01
5.459249e-01
5.359335e-01
5.264782e-01
5.185607e-01
5.132639e-01
5.114444e-01
5.134210e-01
5.188510e-01
5.268436e-01
5.364235e-01
5.462797e-01
5.561404e-01
5.641366e-01
0.000000e+00
1.000000e+00
5.653290e-01
5.576892e-01
5.489884e-01
5.401284e-01
5.317421e-01
5.247181e-01
5.200175e-01
5.184030e-01
5.201578e-01
5.249752e-01
5.320729e-01
5.405930e-01
5.493605e-01
5.585121e-01
5.626331e-01
0.000000e+00
1.000000e+00
5.715967e-01
5.699804e-01
5.682598e-01
5.665051e-01
5.648419e-01
5.634454e-01
5.625059e-01
5.621754e-01
5.625133e-01
5.634658e-01
5.649123e-01
5.666393e-01
5.683843e-01
5.701001e-01
5.709572e-01
0.000000e+00
1.000000e+00
5.707345e-01
5.683221e-01
5.656539e-01
5.629372e-01
5.603626e-01
5.582018e-01
5.567502e-01
5.562430e-01
5.567722e-01
5.582523e-01
5.604790e-01
5.631080e-01
5.658046e-01
5.684637e-01
5.702652e-01
0.000000e+00
1.000000e+00
5.697350e-01
5.663710e-01
5.625919e-01
5.587449e-01
5.550998e-01
5.520420e-01
5.499903e-01
5.492777e-01
5.500326e-01
5.521299e-01
5.552622e-01
5.589554e-01
5.627868e-01
5.665405e-01
5.693699e-01
0.000000e+00
1.000000e+00
5.686107e-01
5.641688e-01
5.591425e-01
5.540222e-01
5.491720e-01
5.451055e-01
5.423795e-01
5.414372e-01
5.424456e-01
5.452352e-01
5.493845e-01
5.542675e-01
5.593573e-01
5.643550e-01
5.682943e-01
0.000000e+00
1.000000e+00
5.674225e-01
5.617908e-01
5.554253e-01
5.489330e-01
5.427856e-01
5.376340e-01
5.341836e-01
5.329944e-01
5.342752e-01
5.378099e-01
5.430576e-01
5.492215e-01
5.556599e-01
5.619978e-01
5.671640e-01
0.000000e+00
1.000000e+00
5.662249e-01
5.593466e-01
5.516106e-01
5.437110e-01
5.362344e-01
5.299720e-01
5.257800e-01
5.243376e-01
5.258978e-01
5.301955e-01
5.365737e-01
5.440509e-01
5.518634e-01
5.595744e-01
5.659996e-01
0.000000e+00
1.000000e+00
5.650927e-01
5.569727e-01
5.479101e-01
5.386473e-01
5.298847e-01
5.225470e-01
5.176367e-01
5.159488e-01
5.177785e-01
5.228155e-01
5.302922e-01
5.390415e-01
5.481844e-01
5.572227e-01
5.648773e-01
0.000000e+00
1.000000e+00
5.640930e-01
5.548204e-01
5.445579e-01
5.340645e-01
5.241402e-01
5.158307e-01
5.102705e-01
5.083591e-01
5.104315e-01
5.161375e-01
5.246064e-01
5.345053e-01
5.448542e-01
5.550897e-01
5.638596e-01
0.000000e+00
1.000000e+00
5.633041e-01
5.530379e-01
5.417852e-01
5.302783e-01
5.193961e-01
5.102843e-01
5.041858e-01
5.020878e-01
5.043598e-01
5.106179e-01
5.198976e-01
5.307674e-01
5.421001e-01
5.533205e-01
5.630137e-01
0.000000e+00
1.000000e+00
5.628133e-01
5.517607e-01
5.397890e-01
5.275571e-01
5.159870e-01
5.062965e-01
4.998089e-01
4.975754e-01
4.999904e-01
5.066452e-01
5.164916e-01
5.281024e-01
5.401365e-01
5.520421e-01
5.624017e-01
0.000000e+00
1.000000e+00
5.627202e-01
5.510875e-01
5.387078e-01
5.260838e-01
5.141388e-01
5.041325e-01
4.974326e-01
4.951249e-01
4.976173e-01
5.044867e-01
5.146251e-01
5.266533e-01
5.391215e-01
5.513317e-01
5.620824e-01
0.000000e+00
1.000000e+00
5.626384e-01
5.510068e-01
5.385961e-01
5.259300e-01
5.139445e-01
5.039044e-01
4.971818e-01
4.948662e-01
4.973668e-01
5.042577e-01
5.144137e-01
5.264687e-01
5.390855e-01
5.512622e-01
5.620292e-01
0.000000e+00
1.000000e+00
5.626074e-01
5.515255e-01
5.394320e-01
5.270662e-01
5.153680e-01
5.055701e-01
4.990107e-01
4.967522e-01
4.991934e-01
5.059171e-01
5.158207e-01
5.275795e-01
5.399265e-01
5.517923e-01
5.623653e-01
0.000000e+00
1.000000e+00
5.630031e-01
5.526263e-01
5.411289e-01
5.293776e-01
5.182630e-01
5.089560e-01
5.027270e-01
5.005834e-01
5.029033e-01
5.092887e-01
5.186826e-01
5.299097e-01
5.415868e-01
5.528853e-01
5.627223e-01
0.000000e+00
1.000000e+00
5.636691e-01
5.541853e-01
5.435433e-01
5.326766e-01
5.223973e-01
5.137910e-01
5.080317e-01
5.060513e-01
5.081977e-01
5.141003e-01
5.227822e-01
5.332098e-01
5.439117e-01
5.544224e-01
5.634281e-01
0.000000e+00
1.000000e+00
5.645381e-01
5.560988e-01
5.465130e-01
5.367384e-01
5.274897e-01
5.197474e-01
5.145676e-01
5.127882e-01
5.147214e-01
5.200306e-01
5.278456e-01
5.372287e-01
5.468550e-01
5.564073e-01
5.645503e-01
0.000000e+00
1.000000e+00
5.656200e-01
5.582537e-01
5.498734e-01
5.413385e-01
5.332602e-01
5.264953e-01
5.219704e-01
5.204167e-01
5.221076e-01
5.267488e-01
5.335842e-01
5.417906e-01
5.502218e-01
5.588256e-01
5.637952e-01
0.000000e+00
1.000000e+00
5.712917e-01
5.693567e-01
5.672836e-01
5.651684e-01
5.631632e-01
5.614794e-01
5.603471e-01
5.599498e-01
5.603588e-01
5.615096e-01
5.632416e-01
5.652778e-01
5.673868e-01
5.693666e-01
5.706976e-01
0.000000e+00
1.000000e+00
5.704369e-01
5.677044e-01
5.646861e-01
5.616117e-01
5.586977e-01
5.562522e-01
5.546095e-01
5.540362e-01
5.546357e-01
5.563115e-01
5.588167e-01
5.617549e-01
5.648124e-01
5.678040e-01
5.698090e-01
0.000000e+00
1.000000e+00
5.694231e-01
5.657572e-01
5.616317e-01
5.574298e-01
5.534480e-01
5.501081e-01
5.478675e-01
5.470895e-01
5.479135e-01
5.502036e-01
5.536119e-01
5.576125e-01
5.618030e-01
5.659136e-01
5.689990e-01
0.000000e+00
1.000000e+00
5.682943e-01
5.635574e-01
5.581910e-01
5.527191e-01
5.475362e-01
5.431913e-01
5.402794e-01
5.392723e-01
5.403484e-01
5.433284e-01
5.477551e-01
5.529383e-01
5.583876e-01
5.637423e-01
5.679713e-01
0.000000e+00
1.000000e+00
5.671230e-01
5.611857e-01
5.544888e-01
5.476508e-01
5.411779e-01
5.357538e-01
5.321218e-01
5.308687e-01
5.322154e-01
5.359368e-01
5.414637e-01
5.479131e-01
5.547109e-01
5.613991e-01
5.668618e-01
0.000000e+00
1.000000e+00
5.659611e-01
5.587589e-01
5.507036e-01
5.424701e-01
5.346808e-01
5.281562e-01
5.237888e-01
5.222840e-01
5.239070e-01
5.283849e-01
5.350405e-01
5.427785e-01
5.509515e-01
5.590022e-01
5.657183e-01
0.000000e+00
1.000000e+00
5.648758e-01
5.564199e-01
5.470569e-01
5.374826e-01
5.284290e-01
5.208456e-01
5.157700e-01
5.140223e-01
5.159103e-01
5.211157e-01
5.288584e-01
5.378392e-01
5.473250e-01
5.566894e-01
5.646077e-01
0.000000e+00
1.000000e+00
5.639392e-01
5.543251e-01
5.437943e-01
5.330272e-01
5.228435e-01
5.143144e-01
5.086044e-01
5.066382e-01
5.087621e-01
5.146174e-01
5.233247e-01
5.334428e-01
5.440818e-01
5.546157e-01
5.636161e-01
0.000000e+00
1.000000e+00
5.632440e-01
5.526378e-01
5.411582e-01
5.294299e-01
5.183336e-01
5.090391e-01
5.028146e-01
5.006705e-01
5.029844e-01
5.093641e-01
5.188365e-01
5.299160e-01
5.414543e-01
5.529361e-01
5.628130e-01
0.000000e+00
1.000000e+00
5.629414e-01
5.515188e-01
5.393518e-01
5.269635e-01
5.152384e-01
5.054148e-01
4.988361e-01
4.965688e-01
4.990128e-01
5.057519e-01
5.157322e-01
5.275211e-01
5.396627e-01
5.517641e-01
5.622628e-01
0.000000e+00
1.000000e+00
5.632760e-01
5.510451e-01
5.385038e-01
5.258016e-01
5.137770e-01
5.037027e-01
4.969562e-01
4.946305e-01
4.971359e-01
5.040436e-01
5.142462e-01
5.263957e-01
5.388655e-01
5.511888e-01
5.620003e-01
0.000000e+00
1.000000e+00
5.629487e-01
5.510911e-01
5.386499e-01
5.260012e-01
5.140284e-01
5.039972e-01
4.972798e-01
4.949646e-01
4.974596e-01
5.043363e-01
5.144780e-01
5.265831e-01
5.390678e-01
5.512823e-01
5.620410e-01
0.000000e+00
1.000000e+00
5.627661e-01
5.517404e-01
5.397610e-01
5.275192e-01
5.159349e-01
5.062290e-01
4.997308e-01
4.974916e-01
4.999067e-01
5.065598e-01
5.163676e-01
5.280726e-01
5.401705e-01
5.519966e-01
5.624257e-01
0.000000e+00
1.000000e+00
5.632312e-01
5.530075e-01
5.417373e-01
5.302160e-01
5.193186e-01
5.101907e-01
5.040795e-01
5.019737e-01
5.042461e-01
5.105039e-01
5.197204e-01
5.307628e-01
5.421325e-01
5.532711e-01
5.630041e-01
0.000000e+00
1.000000e+00
5.639759e-01
5.547404e-01
5.444236e-01
5.338829e-01
5.239146e-01
5.155704e-01
5.099857e-01
5.080637e-01
5.101426e-01
5.158632e-01
5.242871e-01
5.344132e-01
5.447590e-01
5.549606e-01
5.639523e-01
0.000000e+00
1.000000e+00
5.649084e-01
5.568172e-01
5.476422e-01
5.382824e-01
5.294278e-01
5.220170e-01
5.170611e-01
5.153593e-01
5.172090e-01
5.222889e-01
5.297714e-01
5.387559e-01
5.479567e-01
5.570570e-01
5.652009e-01
0.000000e+00
1.000000e+00
5.660554e-01
5.591092e-01
5.512137e-01
5.431707e-01
5.355578e-01
5.291841e-01
5.249233e-01
5.234629e-01
5.250568e-01
5.294301e-01
5.358698e-01
5.435985e-01
5.515365e-01
5.595092e-01
5.649131e-01
0.000000e+00
1.000000e+00
5.712026e-01
5.691572e-01
5.669706e-01
5.647396e-01
5.626244e-01
5.608484e-01
5.596543e-01
5.592355e-01
5.596669e-01
5.608814e-01
5.626999e-01
5.648238e-01
5.670575e-01
5.689927e-01
5.715519e-01
0.000000e+00
1.000000e+00
5.703404e-01
5.675460e-01
5.644385e-01
5.612724e-01
5.582715e-01
5.557529e-01
5.540614e-01
5.534715e-01
5.540886e-01
5.558143e-01
5.583873e-01
5.613900e-01
5.645490e-01
5.675173e-01
5.697450e-01
0.000000e+00
1.000000e+00
5.693502e-01
5.656379e-01
5.614520e-01
5.571834e-01
5.531388e-01
5.497469e-01
5.474717e-01
5.466822e-01
5.475183e-01
5.498442e-01
5.533026e-01
5.573407e-01
5.616102e-01
5.657285e-01
5.688554e-01
0.000000e+00
1.000000e+00
5.682773e-01
5.634797e-01
5.580825e-01
5.525702e-01
5.473495e-01
5.429748e-01
5.400434e-01
5.390298e-01
5.401123e-01
5.431136e-01
5.475730e-01
5.527618e-01
5.582728e-01
5.636367e-01
5.678721e-01
0.000000e+00
1.000000e+00
5.671667e-01
5.611548e-01
5.544565e-01
5.476064e-01
5.411225e-01
5.356923e-01
5.320570e-01
5.308019e-01
5.321486e-01
5.358758e-01
5.414168e-01
5.478353e-01
5.546757e-01
5.613716e-01
5.668169e-01
0.000000e+00
1.000000e+00
5.660723e-01
5.587836e-01
5.507555e-01
5.425417e-01
5.347721e-01
5.282675e-01
5.239137e-01
5.224112e-01
5.240271e-01
5.284933e-01
5.351408e-01
5.428175e-01
5.510028e-01
5.590411e-01
5.657161e-01
0.000000e+00
1.000000e+00
5.650416e-01
5.565113e-01
5.472057e-01
5.376890e-01
5.286910e-01
5.211576e-01
5.161133e-01
5.143728e-01
5.162458e-01
5.214190e-01
5.291256e-01
5.380241e-01
5.474805e-01
5.568006e-01
5.646419e-01
0.000000e+00
1.000000e+00
5.641579e-01
5.544974e-01
5.440590e-01
5.333956e-01
5.233105e-01
5.148653e-01
5.092057e-01
5.072536e-01
5.093542e-01
5.151526e-01
5.237900e-01
5.337978e-01
5.443421e-01
5.548031e-01
5.636842e-01
0.000000e+00
1.000000e+00
5.635771e-01
5.529241e-01
5.415672e-01
5.299966e-01
5.190470e-01
5.098718e-01
5.037230e-01
5.016027e-01
5.038838e-01
5.101773e-01
5.195399e-01
5.304707e-01
5.418468e-01
5.532043e-01
5.629193e-01
0.000000e+00
1.000000e+00
5.636772e-01
5.519815e-01
5.399379e-01
5.277611e-01
5.162336e-01
5.065741e-01
5.001043e-01
4.978729e-01
5.002731e-01
5.068921e-01
5.167173e-01
5.282983e-01
5.402144e-01
5.521304e-01
5.623952e-01
0.000000e+00
1.000000e+00
5.645246e-01
5.516645e-01
5.392776e-01
5.268497e-01
5.150859e-01
5.052310e-01
4.986311e-01
4.963551e-01
4.988035e-01
5.055535e-01
5.155490e-01
5.274294e-01
5.395781e-01
5.516769e-01
5.621764e-01
0.000000e+00
1.000000e+00
5.639326e-01
5.518020e-01
5.396204e-01
5.273220e-01
5.156808e-01
5.059253e-01
4.993936e-01
4.971409e-01
4.995643e-01
5.062433e-01
5.161193e-01
5.278978e-01
5.399582e-01
5.518928e-01
5.622528e-01
0.000000e+00
1.000000e+00
5.633079e-01
5.525063e-01
5.409244e-01
5.291148e-01
5.179365e-01
5.085671e-01
5.022923e-01
5.001266e-01
5.024541e-01
5.088693e-01
5.183512e-01
5.296553e-01
5.412639e-01
5.527368e-01
5.626609e-01
0.000000e+00
1.000000e+00
5.637158e-01
5.538596e-01
5.430826e-01
5.320636e-01
5.216419e-01
5.129123e-01
5.070650e-01
5.050463e-01
5.072153e-01
5.131965e-01
5.220295e-01
5.325885e-01
5.434331e-01
5.541307e-01
5.632831e-01
0.000000e+00
1.000000e+00
5.644650e-01
5.557045e-01
5.459407e-01
5.359594e-01
5.265231e-01
5.186264e-01
5.133431e-01
5.115235e-01
5.134878e-01
5.188977e-01
5.268836e-01
5.364597e-01
5.462522e-01
5.559294e-01
5.642891e-01
0.000000e+00
1.000000e+00
5.654454e-01
5.578772e-01
5.493039e-01
5.405539e-01
5.322768e-01
5.253509e-01
5.207227e-01
5.191360e-01
5.208641e-01
5.256069e-01
5.326060e-01
5.409911e-01
5.495970e-01
5.580884e-01
5.656575e-01
0.000000e+00
1.000000e+00
5.666261e-01
5.602371e-01
5.529814e-01
5.455884e-01
5.385903e-01
5.327309e-01
5.288153e-01
5.274766e-01
5.289444e-01
5.329623e-01
5.388846e-01
5.459781e-01
5.532831e-01
5.605304e-01
5.659993e-01
0.000000e+00
1.000000e+00
5.713300e-01
5.694260e-01
5.673927e-01
5.653174e-01
5.633499e-01
5.616979e-01
5.605871e-01
5.601973e-01
5.605979e-01
5.617283e-01
5.634166e-01
5.653809e-01
5.674785e-01
5.692697e-01
5.737554e-01
0.000000e+00
1.000000e+00
5.705185e-01
5.678939e-01
5.649896e-01
5.620270e-01
5.592190e-01
5.568624e-01
5.552802e-01
5.547285e-01
5.553053e-01
5.569208e-01
5.593285e-01
5.621189e-01
5.650926e-01
5.677338e-01
5.711573e-01
0.000000e+00
1.000000e+00
5.696225e-01
5.660708e-01
5.621394e-01
5.581245e-01
5.543201e-01
5.511299e-01
5.489915e-01
5.482500e-01
5.490361e-01
5.512245e-01
5.544803e-01
5.582543e-01
5.622867e-01
5.660348e-01
5.697420e-01
0.000000e+00
1.000000e+00
5.686186e-01
5.640055e-01
5.589110e-01
5.537037e-01
5.487721e-01
5.446402e-01
5.418734e-01
5.409180e-01
5.419398e-01
5.447755e-01
5.489911e-01
5.538725e-01
5.591005e-01
5.640641e-01
5.684626e-01
0.000000e+00
1.000000e+00
5.675443e-01
5.617739e-01
5.554270e-01
5.489342e-01
5.427889e-01
5.376439e-01
5.342014e-01
5.330139e-01
5.342882e-01
5.378212e-01
5.430751e-01
5.491456e-01
5.556627e-01
5.619554e-01
5.670830e-01
0.000000e+00
1.000000e+00
5.664912e-01
5.594946e-01
5.518672e-01
5.440631e-01
5.366817e-01
5.305049e-01
5.263722e-01
5.249456e-01
5.264771e-01
5.307203e-01
5.370398e-01
5.443210e-01
5.521306e-01
5.597597e-01
5.660451e-01
0.000000e+00
1.000000e+00
5.655126e-01
5.573141e-01
5.484572e-01
5.394023e-01
5.308423e-01
5.236788e-01
5.188828e-01
5.172259e-01
5.190028e-01
5.239237e-01
5.312648e-01
5.397170e-01
5.487368e-01
5.576147e-01
5.650503e-01
0.000000e+00
1.000000e+00
5.646926e-01
5.553939e-01
5.454491e-01
5.352996e-01
5.257026e-01
5.176666e-01
5.122817e-01
5.104205e-01
5.124144e-01
5.179313e-01
5.261676e-01
5.356760e-01
5.457353e-01
5.557010e-01
5.641355e-01
0.000000e+00
1.000000e+00
5.642034e-01
5.539196e-01
5.430964e-01
5.320910e-01
5.216758e-01
5.129479e-01
5.070992e-01
5.050773e-01
5.072426e-01
5.132260e-01
5.221549e-01
5.325255e-01
5.433729e-01
5.541805e-01
5.634083e-01
0.000000e+00
1.000000e+00
5.643775e-01
5.530683e-01
5.416022e-01
5.300382e-01
5.190898e-01
5.099161e-01
5.037698e-01
5.016467e-01
5.039231e-01
5.102046e-01
5.195629e-01
5.305276e-01
5.418592e-01
5.531714e-01
5.629993e-01
0.000000e+00
1.000000e+00
5.652706e-01
5.528207e-01
5.410667e-01
5.292979e-01
5.181565e-01
5.088229e-01
5.025711e-01
5.004139e-01
5.027306e-01
5.091173e-01
5.186127e-01
5.298288e-01
5.413284e-01
5.527739e-01
5.628694e-01
0.000000e+00
1.000000e+00
5.649626e-01
5.530736e-01
5.415285e-01
5.299314e-01
5.189519e-01
5.097509e-01
5.035886e-01
5.014609e-01
5.037438e-01
5.100363e-01
5.193779e-01
5.304606e-01
5.418070e-01
5.530358e-01
5.629801e-01
0.000000e+00
1.000000e+00
5.641123e-01
5.538127e-01
5.429254e-01
5.318557e-01
5.213768e-01
5.125942e-01
5.067079e-01
5.046719e-01
5.068489e-01
5.128580e-01
5.217742e-01
5.323478e-01
5.432108e-01
5.539188e-01
5.634412e-01
0.000000e+00
1.000000e+00
5.644082e-01
5.551859e-01
5.451548e-01
5.349011e-01
5.252049e-01
5.170849e-01
5.116461e-01
5.097652e-01
5.117770e-01
5.173360e-01
5.255774e-01
5.353779e-01
5.454640e-01
5.553479e-01
5.641006e-01
0.000000e+00
1.000000e+00
5.651489e-01
5.570599e-01
5.480639e-01
5.388635e-01
5.301668e-01
5.228906e-01
5.180250e-01
5.163508e-01
5.181577e-01
5.231344e-01
5.305106e-01
5.393123e-01
5.483444e-01
5.571914e-01
5.650628e-01
0.000000e+00
1.000000e+00
5.661354e-01
5.592451e-01
5.514474e-01
5.434858e-01
5.359542e-01
5.296528e-01
5.254434e-01
5.240031e-01
5.255765e-01
5.298836e-01
5.362650e-01
5.438732e-01
5.517154e-01
5.593728e-01
5.662954e-01
0.000000e+00
1.000000e+00
5.673034e-01
5.615977e-01
5.551145e-01
5.485072e-01
5.422518e-01
5.370139e-01
5.335138e-01
5.323190e-01
5.336343e-01
5.372215e-01
5.425284e-01
5.488527e-01
5.553961e-01
5.617892e-01
5.669477e-01
0.000000e+00
1.000000e+00
5.717476e-01
5.701793e-01
5.685759e-01
5.669379e-01
5.653853e-01
5.640817e-01
5.632048e-01
5.628966e-01
5.632115e-01
5.641052e-01
5.654382e-01
5.669917e-01
5.686822e-01
5.703734e-01
5.749191e-01
0.000000e+00
1.000000e+00
5.710000e-01
5.687716e-01
5.663664e-01
5.639125e-01
5.615866e-01
5.596348e-01
5.583243e-01
5.578673e-01
5.583447e-01
5.596848e-01
5.616842e-01
5.639976e-01
5.664951e-01
5.687057e-01
5.730878e-01
0.000000e+00
1.000000e+00
5.701665e-01
5.670815e-01
5.637203e-01
5.602888e-01
5.570371e-01
5.543105e-01
5.524834e-01
5.518508e-01
5.525235e-01
5.543963e-01
5.571859e-01
5.604124e-01
5.638948e-01
5.669963e-01
5.711700e-01
0.000000e+00
1.000000e+00
5.692058e-01
5.651522e-01
5.607000e-01
5.561525e-01
5.518453e-01
5.482365e-01
5.458220e-01
5.449904e-01
5.458843e-01
5.483628e-01
5.520500e-01
5.563134e-01
5.609104e-01
5.651100e-01
5.697855e-01
0.000000e+00
1.000000e+00
5.681646e-01
5.630529e-01
5.574211e-01
5.516631e-01
5.462125e-01
5.416494e-01
5.385996e-01
5.375515e-01
5.386822e-01
5.418160e-01
5.464802e-01
5.518656e-01
5.576705e-01
5.631373e-01
5.678327e-01
0.000000e+00
1.000000e+00
5.671298e-01
5.608966e-01
5.540557e-01
5.470574e-01
5.404371e-01
5.348980e-01
5.311973e-01
5.299245e-01
5.312962e-01
5.351006e-01
5.407723e-01
5.473027e-01
5.543360e-01
5.611226e-01
5.665000e-01
0.000000e+00
1.000000e+00
5.661776e-01
5.588269e-01
5.508230e-01
5.426372e-01
5.348980e-01
5.284240e-01
5.240965e-01
5.226049e-01
5.242072e-01
5.286529e-01
5.352957e-01
5.429278e-01
5.511197e-01
5.591196e-01
5.656104e-01
0.000000e+00
1.000000e+00
5.653608e-01
5.570009e-01
5.479679e-01
5.387400e-01
5.300167e-01
5.227160e-01
5.178312e-01
5.161438e-01
5.179499e-01
5.229595e-01
5.304597e-01
5.390788e-01
5.482676e-01
5.573072e-01
5.648146e-01
0.000000e+00
1.000000e+00
5.647579e-01
5.555798e-01
5.457345e-01
5.356948e-01
5.261982e-01
5.182448e-01
5.129189e-01
5.110763e-01
5.130440e-01
5.184944e-01
5.266596e-01
5.360786e-01
5.460201e-01
5.558516e-01
5.642787e-01
0.000000e+00
1.000000e+00
5.644911e-01
5.547085e-01
5.443215e-01
5.337623e-01
5.237680e-01
5.153948e-01
5.097839e-01
5.078439e-01
5.099168e-01
5.156469e-01
5.242247e-01
5.341855e-01
5.445782e-01
5.548825e-01
5.641230e-01
0.000000e+00
1.000000e+00
5.649356e-01
5.544661e-01
5.438386e-01
5.330994e-01
5.229317e-01
5.144115e-01
5.087006e-01
5.067273e-01
5.088383e-01
5.146634e-01
5.233687e-01
5.335503e-01
5.440791e-01
5.544960e-01
5.642794e-01
0.000000e+00
1.000000e+00
5.652316e-01
5.547946e-01
5.443179e-01
5.337553e-01
5.237540e-01
5.153730e-01
5.097545e-01
5.078100e-01
5.098859e-01
5.156146e-01
5.241620e-01
5.342027e-01
5.445565e-01
5.547491e-01
5.646065e-01
0.000000e+00
1.000000e+00
5.649197e-01
5.555836e-01
5.457000e-01
5.356507e-01
5.261397e-01
5.181713e-01
5.128303e-01
5.109787e-01
5.129482e-01
5.183980e-01
5.265213e-01
5.360637e-01
5.459434e-01
5.556092e-01
5.652077e-01
0.000000e+00
1.000000e+00
5.652928e-01
5.569378e-01
5.478819e-01
5.386286e-01
5.298795e-01
5.225539e-01
5.176494e-01
5.159529e-01
5.177618e-01
5.227701e-01
5.302315e-01
5.390237e-01
5.481471e-01
5.570022e-01
5.659935e-01
0.000000e+00
1.000000e+00
5.660066e-01
5.587502e-01
5.507071e-01
5.424791e-01
5.347011e-01
5.281943e-01
5.238446e-01
5.223493e-01
5.239626e-01
5.284029e-01
5.350241e-01
5.428517e-01
5.509545e-01
5.588019e-01
5.668679e-01
0.000000e+00
1.000000e+00
5.669422e-01
5.608620e-01
5.539812e-01
5.469531e-01
5.403037e-01
5.347400e-01
5.310245e-01