<?xml version="1.0"?>
<VTKFile type="StructuredGrid" version="0.1">
  <StructuredGrid WholeExtent="0 16 0 16 0 16">
    <Piece Extent="0 16 0 16 0 16">
      <PointData Scalars="temperature" Vectors="velocity">
        <DataArray type="Float32" Name="temperature" format="ascii">
1.000000e+00
5.730813e-01
5.730230e-01
5.730418e-01
5.730559e-01
5.730694e-01
5.730806e-01
5.730882e-01
5.730908e-01
5.730881e-01
5.730805e-01
5.730694e-01
5.730559e-01
5.730417e-01
5.730379e-01
5.728207e-01
0.000000e+00
1.000000e+00
5.730684e-01
5.730157e-01
5.730300e-01
5.730398e-01
5.730490e-01
5.730567e-01
5.730618e-01
5.730635e-01
5.730615e-01
5.730561e-01
5.730486e-01
5.730410e-01
5.730331e-01
5.730366e-01
5.727983e-01
0.000000e+00
1.000000e+00
5.729398e-01
5.727729e-01
5.726452e-01
5.725131e-01
5.723877e-01
5.722824e-01
5.722112e-01
5.721859e-01
5.722106e-01
5.722812e-01
5.723867e-01
5.725169e-01
5.726527e-01
5.728004e-01
5.727704e-01
0.000000e+00
1.000000e+00
5.726822e-01
5.722668e-01
5.718507e-01
5.714250e-01
5.710214e-01
5.706821e-01
5.704534e-01
5.703721e-01
5.704526e-01
5.706810e-01
5.710213e-01
5.714377e-01
5.718663e-01
5.722877e-01
5.725695e-01
0.000000e+00
1.000000e+00
5.723050e-01
5.714888e-01
5.706302e-01
5.697538e-01
5.689228e-01
5.682244e-01
5.677539e-01
5.675870e-01
5.677535e-01
5.682250e-01
5.689263e-01
5.697817e-01
5.706611e-01
5.715201e-01
5.721538e-01
0.000000e+00
1.000000e+00
5.717919e-01
5.704479e-01
5.689969e-01
5.675174e-01
5.661146e-01
5.649360e-01
5.641421e-01
5.638612e-01
5.641436e-01
5.649409e-01
5.661249e-01
5.675631e-01
5.690450e-01
5.704935e-01
5.716280e-01
0.000000e+00
1.000000e+00
5.711611e-01
5.691723e-01
5.669966e-01
5.647785e-01
5.626757e-01
5.609094e-01
5.597203e-01
5.593009e-01
5.597261e-01
5.609225e-01
5.626964e-01
5.648430e-01
5.670601e-01
5.692272e-01
5.710209e-01
0.000000e+00
1.000000e+00
5.704440e-01
5.677121e-01
5.647084e-01
5.616457e-01
5.587424e-01
5.563040e-01
5.546634e-01
5.540861e-01
5.546753e-01
5.563279e-01
5.587754e-01
5.617288e-01
5.647867e-01
5.677749e-01
5.703322e-01
0.000000e+00
1.000000e+00
5.696732e-01
5.661367e-01
5.622405e-01
5.582671e-01
5.545005e-01
5.513377e-01
5.492103e-01
5.484630e-01
5.492291e-01
5.513728e-01
5.545461e-01
5.583676e-01
5.623314e-01
5.662060e-01
5.695888e-01
0.000000e+00
1.000000e+00
5.688864e-01
5.645270e-01
5.597196e-01
5.548160e-01
5.501680e-01
5.462655e-01
5.436410e-01
5.427203e-01
5.436665e-01
5.463112e-01
5.502255e-01
5.549319e-01
5.598208e-01
5.646026e-01
5.688286e-01
0.000000e+00
1.000000e+00
5.681288e-01
5.629680e-01
5.572783e-01
5.514739e-01
5.459725e-01
5.413536e-01
5.382480e-01
5.371591e-01
5.382794e-01
5.414091e-01
5.460407e-01
5.516044e-01
5.573865e-01
5.630472e-01
5.680929e-01
0.000000e+00
1.000000e+00
5.674394e-01
5.615386e-01
5.550403e-01
5.484102e-01
5.421264e-01
5.368510e-01
5.333042e-01
5.320609e-01
5.333404e-01
5.369147e-01
5.422040e-01
5.485526e-01
5.551536e-01
5.616211e-01
5.674180e-01
0.000000e+00
1.000000e+00
5.668429e-01
5.603046e-01
5.531082e-01
5.457654e-01
5.388063e-01
5.329641e-01
5.290364e-01
5.276594e-01
5.290761e-01
5.330346e-01
5.388912e-01
5.459176e-01
5.532239e-01
5.603886e-01
5.668350e-01
0.000000e+00
1.000000e+00
5.663675e-01
5.593127e-01
5.515555e-01
5.436398e-01
5.361380e-01
5.298404e-01
5.256062e-01
5.241216e-01
5.256487e-01
5.299157e-01
5.362285e-01
5.437974e-01
5.516728e-01
5.594004e-01
5.663693e-01
0.000000e+00
1.000000e+00
5.660244e-01
5.585886e-01
5.504228e-01
5.420893e-01
5.341917e-01
5.275620e-01
5.231044e-01
5.215408e-01
5.231477e-01
5.276399e-01
5.342868e-01
5.422485e-01
5.505399e-01
5.586784e-01
5.660215e-01
0.000000e+00
1.000000e+00
5.658089e-01
5.581378e-01
5.497198e-01
5.411270e-01
5.329836e-01
5.261473e-01
5.215507e-01
5.199382e-01
5.215948e-01
5.262268e-01
5.330831e-01
5.412825e-01
5.498400e-01
5.582367e-01
5.658309e-01
0.000000e+00
1.000000e+00
5.656940e-01
5.579447e-01
5.494262e-01
5.407265e-01
5.324825e-01
5.255626e-01
5.209106e-01
5.192799e-01
5.209584e-01
5.256490e-01
5.325926e-01
5.408852e-01
5.495616e-01
5.580968e-01
5.655540e-01
0.000000e+00
1.000000e+00
5.730605e-01
5.730272e-01
5.730543e-01
5.730728e-01
5.730903e-01
5.731050e-01
5.731148e-01
5.731182e-01
5.731147e-01
5.731046e-01
5.730896e-01
5.730716e-01
5.730521e-01
5.730268e-01
5.729985e-01
0.000000e+00
1.000000e+00
5.729414e-01
5.727933e-01
5.726834e-01
5.725649e-01
5.724524e-01
5.723579e-01
5.722941e-01
5.722713e-01
5.722936e-01
5.723567e-01
5.724515e-01
5.725656e-01
5.726827e-01
5.728032e-01
5.727086e-01
0.000000e+00
1.000000e+00
5.726799e-01
5.722958e-01
5.718986e-01
5.714901e-01
5.711027e-01
5.707770e-01
5.705573e-01
5.704792e-01
5.705561e-01
5.707747e-01
5.711017e-01
5.714963e-01
5.719036e-01
5.723189e-01
5.725924e-01
0.000000e+00
1.000000e+00
5.722948e-01
5.715126e-01
5.706676e-01
5.698047e-01
5.689863e-01
5.682983e-01
5.678346e-01
5.676699e-01
5.678333e-01
5.682969e-01
5.689889e-01
5.698209e-01
5.706828e-01
5.715348e-01
5.722084e-01
0.000000e+00
1.000000e+00
5.717738e-01
5.704412e-01
5.689861e-01
5.675021e-01
5.660948e-01
5.649122e-01
5.641153e-01
5.638331e-01
5.641157e-01
5.649151e-01
5.661053e-01
5.675320e-01
5.690142e-01
5.704701e-01
5.716701e-01
0.000000e+00
1.000000e+00
5.711135e-01
5.691002e-01
5.668826e-01
5.646219e-01
5.624783e-01
5.606772e-01
5.594643e-01
5.590360e-01
5.594687e-01
5.606881e-01
5.625000e-01
5.646686e-01
5.669266e-01
5.691396e-01
5.710158e-01
0.000000e+00
1.000000e+00
5.703418e-01
5.675318e-01
5.644244e-01
5.612561e-01
5.582522e-01
5.557289e-01
5.540306e-01
5.534325e-01
5.540413e-01
5.557507e-01
5.582869e-01
5.613209e-01
5.644844e-01
5.675804e-01
5.702612e-01
0.000000e+00
1.000000e+00
5.694982e-01
5.658028e-01
5.617160e-01
5.575479e-01
5.535964e-01
5.502778e-01
5.480452e-01
5.472606e-01
5.480635e-01
5.503117e-01
5.536443e-01
5.576305e-01
5.617904e-01
5.658602e-01
5.694418e-01
0.000000e+00
1.000000e+00
5.686219e-01
5.639994e-01
5.588917e-01
5.536812e-01
5.487419e-01
5.445945e-01
5.418051e-01
5.408262e-01
5.418310e-01
5.446404e-01
5.488026e-01
5.537823e-01
5.589790e-01
5.640629e-01
5.685863e-01
0.000000e+00
1.000000e+00
5.677548e-01
5.622178e-01
5.561025e-01
5.498628e-01
5.439484e-01
5.389827e-01
5.356437e-01
5.344729e-01
5.356767e-01
5.390401e-01
5.440210e-01
5.499815e-01
5.562010e-01
5.622876e-01
5.677437e-01
0.000000e+00
1.000000e+00
5.669487e-01
5.605547e-01
5.534991e-01
5.462990e-01
5.394747e-01
5.337454e-01
5.298937e-01
5.285434e-01
5.299327e-01
5.338131e-01
5.395574e-01
5.464349e-01
5.536064e-01
5.606271e-01
5.669562e-01
0.000000e+00
1.000000e+00
5.662445e-01
5.590957e-01
5.512151e-01
5.431724e-01
5.355499e-01
5.291510e-01
5.248491e-01
5.233412e-01
5.248929e-01
5.292268e-01
5.356408e-01
5.433228e-01
5.513300e-01
5.591708e-01
5.662647e-01
0.000000e+00
1.000000e+00
5.656680e-01
5.579061e-01
5.493528e-01
5.406234e-01
5.323502e-01
5.254052e-01
5.207362e-01
5.190995e-01
5.207831e-01
5.254871e-01
5.324472e-01
5.407852e-01
5.494723e-01
5.579808e-01
5.657004e-01
0.000000e+00
1.000000e+00
5.652478e-01
5.570273e-01
5.479763e-01
5.387392e-01
5.299852e-01
5.226366e-01
5.176959e-01
5.159639e-01
5.177450e-01
5.227228e-01
5.300872e-01
5.389068e-01
5.480987e-01
5.571025e-01
5.652858e-01
0.000000e+00
1.000000e+00
5.649866e-01
5.564736e-01
5.471099e-01
5.375533e-01
5.284968e-01
5.208943e-01
5.157827e-01
5.139898e-01
5.158320e-01
5.209825e-01
5.286037e-01
5.377218e-01
5.472297e-01
5.565486e-01
5.650237e-01
0.000000e+00
1.000000e+00
5.648753e-01
5.562373e-01
5.467421e-01
5.370501e-01
5.278651e-01
5.201547e-01
5.149706e-01
5.131524e-01
5.150208e-01
5.202449e-01
5.279789e-01
5.372079e-01
5.468599e-01
5.563288e-01
5.649183e-01
0.000000e+00
1.000000e+00
5.649719e-01
5.562865e-01
5.468371e-01
5.371812e-01
5.280309e-01
5.203496e-01
5.151849e-01
5.133731e-01
5.152341e-01
5.204391e-01
5.281480e-01
5.373319e-01
5.469781e-01
5.565131e-01
5.646082e-01
0.000000e+00
1.000000e+00
5.731984e-01
5.732727e-01
5.734385e-01
5.735984e-01
5.737501e-01
5.738776e-01
5.739635e-01
5.739938e-01
5.739630e-01
5.738766e-01
5.737485e-01
5.735960e-01
5.734389e-01
5.732802e-01
5.732458e-01
0.000000e+00
1.000000e+00
5.729595e-01
5.728032e-01
5.726951e-01
5.725807e-01
5.724723e-01
5.723812e-01
5.723197e-01
5.722978e-01
5.723191e-01
5.723797e-01
5.724716e-01
5.725817e-01
5.726968e-01
5.728066e-01
5.729831e-01
0.000000e+00
1.000000e+00
5.725722e-01
5.720371e-01
5.714922e-01
5.709336e-01
5.704039e-01
5.699588e-01
5.696588e-01
5.695523e-01
5.696579e-01
5.699575e-01
5.704069e-01
5.709435e-01
5.714999e-01
5.720462e-01
5.725741e-01
0.000000e+00
1.000000e+00
5.720389e-01
5.709600e-01
5.698034e-01
5.686212e-01
5.675002e-01
5.665582e-01
5.659235e-01
5.656987e-01
5.659237e-01
5.665606e-01
5.675104e-01
5.686444e-01
5.698242e-01
5.709770e-01
5.719961e-01
0.000000e+00
1.000000e+00
5.713556e-01
5.695777e-01
5.676360e-01
5.656535e-01
5.637736e-01
5.621941e-01
5.611304e-01
5.607547e-01
5.611341e-01
5.622045e-01
5.637949e-01
5.656908e-01
5.676680e-01
5.696054e-01
5.713065e-01
0.000000e+00
1.000000e+00
5.705379e-01
5.679193e-01
5.650373e-01
5.620952e-01
5.593056e-01
5.569623e-01
5.553851e-01
5.548296e-01
5.553951e-01
5.569844e-01
5.593414e-01
5.621494e-01
5.650840e-01
5.679592e-01
5.704967e-01
0.000000e+00
1.000000e+00
5.696197e-01
5.660431e-01
5.620990e-01
5.580720e-01
5.542542e-01
5.510479e-01
5.488909e-01
5.481330e-01
5.489090e-01
5.510827e-01
5.543050e-01
5.581436e-01
5.621599e-01
5.660940e-01
5.695928e-01
0.000000e+00
1.000000e+00
5.686446e-01
5.640347e-01
5.589543e-01
5.537663e-01
5.488484e-01
5.447191e-01
5.419423e-01
5.409680e-01
5.419688e-01
5.447670e-01
5.489143e-01
5.538567e-01
5.590271e-01
5.640941e-01
5.686317e-01
0.000000e+00
1.000000e+00
5.676587e-01
5.619989e-01
5.557672e-01
5.494028e-01
5.433704e-01
5.383061e-01
5.349013e-01
5.337077e-01
5.349359e-01
5.383668e-01
5.434507e-01
5.495135e-01
5.558531e-01
5.620649e-01
5.676625e-01
0.000000e+00
1.000000e+00
5.667165e-01
5.600488e-01
5.527148e-01
5.452240e-01
5.381246e-01
5.321651e-01
5.281591e-01
5.267552e-01
5.282008e-01
5.322377e-01
5.382176e-01
5.453547e-01
5.528123e-01
5.601200e-01
5.667359e-01
0.000000e+00
1.000000e+00
5.658715e-01
5.582930e-01
5.499664e-01
5.414617e-01
5.334018e-01
5.266365e-01
5.220891e-01
5.204956e-01
5.221366e-01
5.267191e-01
5.335045e-01
5.416114e-01
5.500755e-01
5.583662e-01
5.659024e-01
0.000000e+00
1.000000e+00
5.651636e-01
5.568222e-01
5.476637e-01
5.383097e-01
5.294452e-01
5.220048e-01
5.170035e-01
5.152508e-01
5.170552e-01
5.220948e-01
5.295549e-01
5.384737e-01
5.477845e-01
5.568966e-01
5.652024e-01
0.000000e+00
1.000000e+00
5.646204e-01
5.556997e-01
5.459058e-01
5.359038e-01
5.264253e-01
5.184694e-01
5.131214e-01
5.112468e-01
5.131753e-01
5.185647e-01
5.265399e-01
5.360765e-01
5.460366e-01
5.557718e-01
5.646685e-01
0.000000e+00
1.000000e+00
5.642609e-01
5.549585e-01
5.447436e-01
5.343133e-01
5.244289e-01
5.161319e-01
5.105541e-01
5.085989e-01
5.106096e-01
5.162307e-01
5.245482e-01
5.344874e-01
5.448805e-01
5.550293e-01
5.643124e-01
0.000000e+00
1.000000e+00
5.640920e-01
5.545985e-01
5.441805e-01
5.335430e-01
5.234624e-01
5.150004e-01
5.093112e-01
5.073161e-01
5.093666e-01
5.151002e-01
5.235873e-01
5.337127e-01
5.443133e-01
5.546691e-01
5.641464e-01
0.000000e+00
1.000000e+00
5.640944e-01
5.545995e-01
5.441817e-01
5.335445e-01
5.234641e-01
5.150024e-01
5.093134e-01
5.073185e-01
5.093691e-01
5.151032e-01
5.235957e-01
5.336991e-01
5.443115e-01
5.546958e-01
5.641382e-01
0.000000e+00
1.000000e+00
5.643224e-01
5.549118e-01
5.446855e-01
5.342354e-01
5.243325e-01
5.160196e-01
5.104304e-01
5.084700e-01
5.104843e-01
5.161185e-01
5.244666e-01
5.343785e-01
5.448343e-01
5.551624e-01
5.639361e-01
0.000000e+00
1.000000e+00
5.734527e-01
5.737801e-01
5.742294e-01
5.746818e-01
5.751109e-01
5.754715e-01
5.757145e-01
5.758005e-01
5.757143e-01
5.754715e-01
5.751118e-01
5.746835e-01
5.742391e-01
5.737966e-01
5.733262e-01
0.000000e+00
1.000000e+00
5.730829e-01
5.730733e-01
5.731160e-01
5.731573e-01
5.731964e-01
5.732292e-01
5.732513e-01
5.732586e-01
5.732498e-01
5.732265e-01
5.731955e-01
5.731604e-01
5.731276e-01
5.730836e-01
5.730532e-01
0.000000e+00
1.000000e+00
5.725747e-01
5.720378e-01
5.714922e-01
5.709338e-01
5.704044e-01
5.699594e-01
5.696596e-01
5.695531e-01
5.696585e-01
5.699580e-01
5.704107e-01
5.709464e-01
5.715056e-01
5.720453e-01
5.725492e-01
0.000000e+00
1.000000e+00
5.719077e-01
5.706641e-01
5.693401e-01
5.679871e-01
5.667042e-01
5.656263e-01
5.649004e-01
5.646437e-01
5.649018e-01
5.656318e-01
5.667219e-01
5.680160e-01
5.693672e-01
5.706874e-01
5.718056e-01
0.000000e+00
1.000000e+00
5.710689e-01
5.689655e-01
5.666796e-01
5.643442e-01
5.621300e-01
5.602701e-01
5.590181e-01
5.585769e-01
5.590252e-01
5.602879e-01
5.621610e-01
5.643908e-01
5.667207e-01
5.690029e-01
5.709724e-01
0.000000e+00
1.000000e+00
5.700964e-01
5.669845e-01
5.635785e-01
5.600980e-01
5.567984e-01
5.540273e-01
5.521631e-01
5.515079e-01
5.521785e-01
5.540604e-01
5.568446e-01
5.601611e-01
5.636320e-01
5.670318e-01
5.700197e-01
0.000000e+00
1.000000e+00
5.690305e-01
5.647971e-01
5.601553e-01
5.554109e-01
5.509135e-01
5.471374e-01
5.445982e-01
5.437075e-01
5.446231e-01
5.471854e-01
5.509767e-01
5.554920e-01
5.602200e-01
5.648544e-01
5.689756e-01
0.000000e+00
1.000000e+00
5.679222e-01
5.625089e-01
5.565746e-01
5.505082e-01
5.447584e-01
5.399318e-01
5.366872e-01
5.355501e-01
5.367212e-01
5.399942e-01
5.448392e-01
5.506105e-01
5.566496e-01
5.625758e-01
5.678910e-01
0.000000e+00
1.000000e+00
5.668270e-01
5.602449e-01
5.530319e-01
5.456578e-01
5.386695e-01
5.328040e-01
5.288618e-01
5.274807e-01
5.289042e-01
5.328801e-01
5.387664e-01
5.457834e-01
5.531191e-01
5.603187e-01
5.668173e-01
0.000000e+00
1.000000e+00
5.658117e-01
5.581361e-01
5.497316e-01
5.411397e-01
5.329980e-01
5.261649e-01
5.215726e-01
5.199639e-01
5.216221e-01
5.262528e-01
5.331080e-01
5.412886e-01
5.498311e-01
5.582172e-01
5.658173e-01
0.000000e+00
1.000000e+00
5.649318e-01
5.563029e-01
5.468613e-01
5.372104e-01
5.280656e-01
5.203910e-01
5.152330e-01
5.134260e-01
5.152879e-01
5.204881e-01
5.281848e-01
5.373797e-01
5.469732e-01
5.563852e-01
5.649440e-01
0.000000e+00
1.000000e+00
5.642283e-01
5.548393e-01
5.445685e-01
5.340719e-01
5.241260e-01
5.157789e-01
5.101687e-01
5.082028e-01
5.102271e-01
5.158824e-01
5.242511e-01
5.342535e-01
5.446972e-01
5.549199e-01
5.642448e-01
0.000000e+00
1.000000e+00
5.637266e-01
5.538042e-01
5.429460e-01
5.318514e-01
5.213386e-01
5.125154e-01
5.065848e-01
5.045059e-01
5.066446e-01
5.126230e-01
5.214677e-01
5.320350e-01
5.430912e-01
5.538802e-01
5.637511e-01
0.000000e+00
1.000000e+00
5.634359e-01
5.532195e-01
5.420275e-01
5.305944e-01
5.197606e-01
5.106676e-01
5.045553e-01
5.024126e-01
5.046162e-01
5.107784e-01
5.198947e-01
5.307713e-01
5.421821e-01
5.532921e-01
5.634700e-01
0.000000e+00
1.000000e+00
5.633736e-01
5.530689e-01
5.417931e-01
5.302741e-01
5.193585e-01
5.101963e-01
5.040369e-01
5.018774e-01
5.040979e-01
5.103075e-01
5.194985e-01
5.304408e-01
5.419378e-01
5.531421e-01
5.634090e-01
0.000000e+00
1.000000e+00
5.634872e-01
5.533168e-01
5.421796e-01
5.308037e-01
5.200236e-01
5.109750e-01
5.048920e-01
5.027593e-01
5.049527e-01
5.110862e-01
5.201682e-01
5.309578e-01
5.423202e-01
5.534212e-01
5.635138e-01
0.000000e+00
1.000000e+00
5.638412e-01
5.538972e-01
5.431004e-01
5.320655e-01
5.216088e-01
5.128314e-01
5.069304e-01
5.048612e-01
5.069890e-01
5.129399e-01
5.217537e-01
5.322120e-01
5.432578e-01
5.541455e-01
5.634675e-01
0.000000e+00
1.000000e+00
5.738256e-01
5.745588e-01
5.754501e-01
5.763531e-01
5.772094e-01
5.779290e-01
5.784138e-01
5.785853e-01
5.784133e-01
5.779293e-01
5.772135e-01
5.763611e-01
5.754717e-01
5.745904e-01
5.736048e-01
0.000000e+00
1.000000e+00
5.733529e-01
5.736248e-01
5.739795e-01
5.743395e-01
5.746809e-01
5.749677e-01
5.751608e-01
5.752286e-01
5.751589e-01
5.749641e-01
5.746805e-01
5.743464e-01
5.740037e-01
5.736525e-01
5.732469e-01
0.000000e+00
1.000000e+00
5.727178e-01
5.723305e-01
5.719486e-01
5.715589e-01
5.711894e-01
5.708787e-01
5.706692e-01
5.705946e-01
5.706677e-01
5.708769e-01
5.711975e-01
5.715748e-01
5.719762e-01
5.723494e-01
5.726306e-01
0.000000e+00
1.000000e+00
5.719023e-01
5.706692e-01
5.693466e-01
5.679961e-01
5.667156e-01
5.656399e-01
5.649158e-01
5.646599e-01
5.649178e-01
5.656467e-01
5.667401e-01
5.680279e-01
5.693805e-01
5.707018e-01
5.717703e-01
0.000000e+00
1.000000e+00
5.709275e-01
5.686633e-01
5.662070e-01
5.636972e-01
5.613177e-01
5.593193e-01
5.579748e-01
5.575016e-01
5.579843e-01
5.593421e-01
5.613587e-01
5.637507e-01
5.662577e-01
5.687132e-01
5.708210e-01
0.000000e+00
1.000000e+00
5.698141e-01
5.663699e-01
5.626184e-01
5.587835e-01
5.551483e-01
5.520961e-01
5.500436e-01
5.493233e-01
5.500633e-01
5.521378e-01
5.552043e-01
5.588557e-01
5.626816e-01
5.664291e-01
5.697294e-01
0.000000e+00
1.000000e+00
5.686117e-01
5.638821e-01
5.587274e-01
5.534561e-01
5.484601e-01
5.442662e-01
5.414471e-01
5.404592e-01
5.414773e-01
5.443257e-01
5.485330e-01
5.535465e-01
5.588009e-01
5.639507e-01
5.685387e-01
0.000000e+00
1.000000e+00
5.673806e-01
5.613266e-01
5.547310e-01
5.479845e-01
5.415914e-01
5.362258e-01
5.326198e-01
5.313568e-01
5.326597e-01
5.363016e-01
5.416837e-01
5.480972e-01
5.548143e-01
5.614037e-01
5.673200e-01
0.000000e+00
1.000000e+00
5.661888e-01
5.588490e-01
5.508566e-01
5.426804e-01
5.349336e-01
5.284326e-01
5.240639e-01
5.225339e-01
5.241123e-01
5.285228e-01
5.350441e-01
5.428198e-01
5.509510e-01
5.589324e-01
5.661455e-01
0.000000e+00
1.000000e+00
5.651084e-01
5.565985e-01
5.473357e-01
5.378604e-01
5.288835e-01
5.213506e-01
5.162883e-01
5.145152e-01
5.163436e-01
5.214524e-01
5.290082e-01
5.380262e-01
5.474417e-01
5.566885e-01
5.650823e-01
0.000000e+00
1.000000e+00
5.641979e-01
5.547057e-01
5.443722e-01
5.338036e-01
5.237912e-01
5.153893e-01
5.097426e-01
5.077644e-01
5.098029e-01
5.154992e-01
5.239253e-01
5.339909e-01
5.444917e-01
5.547940e-01
5.641869e-01
0.000000e+00
1.000000e+00
5.634996e-01
5.532665e-01
5.421171e-01
5.307168e-01
5.199163e-01
5.108525e-01
5.047606e-01
5.026257e-01
5.048238e-01
5.109671e-01
5.200561e-01
5.309135e-01
5.422578e-01
5.533556e-01
5.635037e-01
0.000000e+00
1.000000e+00
5.630397e-01
5.523342e-01
5.406539e-01
5.287142e-01
5.174019e-01
5.079082e-01
5.015268e-01
4.992896e-01
5.015911e-01
5.080261e-01
5.175457e-01
5.289055e-01
5.408150e-01
5.524252e-01
5.630592e-01
0.000000e+00
1.000000e+00
5.628262e-01
5.519162e-01
5.399958e-01
5.278137e-01
5.162713e-01
5.065843e-01
5.000728e-01
4.977897e-01
5.001376e-01
5.067050e-01
5.164203e-01
5.279907e-01
5.401669e-01
5.520157e-01
5.628508e-01
0.000000e+00
1.000000e+00
5.628679e-01
5.519814e-01
5.400980e-01
5.279535e-01
5.164462e-01
5.067883e-01
5.002962e-01
4.980204e-01
5.003617e-01
5.069097e-01
5.166001e-01
5.281163e-01
5.402573e-01
5.520781e-01
5.628880e-01
0.000000e+00
1.000000e+00
5.631059e-01
5.524755e-01
5.408696e-01
5.290099e-01
5.177722e-01
5.083402e-01
5.019999e-01
4.997777e-01
5.020648e-01
5.084601e-01
5.179251e-01
5.291645e-01
5.410268e-01
5.525932e-01
5.631113e-01
0.000000e+00
1.000000e+00
5.635722e-01
5.533171e-01
5.421957e-01
5.308269e-01
5.200543e-01
5.110123e-01
5.049340e-01
5.028034e-01
5.049965e-01
5.111290e-01
5.202027e-01
5.309889e-01
5.423647e-01
5.535493e-01
5.631939e-01
0.000000e+00
1.000000e+00
5.743427e-01
5.756025e-01
5.770871e-01
5.785948e-01
5.800245e-01
5.812259e-01
5.820352e-01
5.823212e-01
5.820343e-01
5.812283e-01
5.800383e-01
5.786170e-01
5.771271e-01
5.756490e-01
5.740597e-01
0.000000e+00
1.000000e+00
5.737652e-01
5.744599e-01
5.752896e-01
5.761333e-01
5.769334e-01
5.776057e-01
5.780583e-01
5.782178e-01
5.780556e-01
5.776010e-01
5.769358e-01
5.761477e-01
5.753312e-01
5.745054e-01
5.735895e-01
0.000000e+00
1.000000e+00
5.729997e-01
5.729281e-01
5.728835e-01
5.728387e-01
5.727962e-01
5.727602e-01
5.727358e-01
5.727263e-01
5.727335e-01
5.727573e-01
5.728035e-01
5.728587e-01
5.729293e-01
5.729629e-01
5.728697e-01
0.000000e+00
1.000000e+00
5.720563e-01
5.710012e-01
5.698651e-01
5.687058e-01
5.676066e-01
5.666835e-01
5.660624e-01
5.658433e-01
5.660654e-01
5.666910e-01
5.676363e-01
5.687420e-01
5.699143e-01
5.710420e-01
5.718903e-01
0.000000e+00
1.000000e+00
5.709461e-01
5.687123e-01
5.662831e-01
5.638012e-01
5.614484e-01
5.594732e-01
5.581451e-01
5.576781e-01
5.581561e-01
5.594989e-01
5.615003e-01
5.638570e-01
5.663436e-01
5.687713e-01
5.707985e-01
0.000000e+00
1.000000e+00
5.696990e-01
5.661327e-01
5.622473e-01
5.582755e-01
5.545111e-01
5.513509e-01
5.492267e-01
5.484819e-01
5.492492e-01
5.513981e-01
5.545789e-01
5.583544e-01
5.623219e-01
5.662013e-01
5.695848e-01
0.000000e+00
1.000000e+00
5.683838e-01
5.633730e-01
5.579317e-01
5.523668e-01
5.470932e-01
5.426670e-01
5.396925e-01
5.386512e-01
5.397266e-01
5.427346e-01
5.471770e-01
5.524654e-01
5.580155e-01
5.634507e-01
5.682844e-01
0.000000e+00
1.000000e+00
5.670480e-01
5.605790e-01
5.535632e-01
5.463864e-01
5.395867e-01
5.338805e-01
5.300462e-01
5.287038e-01
5.300900e-01
5.339661e-01
5.396886e-01
5.465073e-01
5.536551e-01
5.606650e-01
5.669705e-01
0.000000e+00
1.000000e+00
5.657890e-01
5.579163e-01
5.494002e-01
5.406880e-01
5.324347e-01
5.255093e-01
5.208554e-01
5.192257e-01
5.209074e-01
5.256099e-01
5.325546e-01
5.408357e-01
5.495032e-01
5.580097e-01
5.657175e-01
0.000000e+00
1.000000e+00
5.646586e-01
5.555488e-01
5.456980e-01
5.356209e-01
5.260753e-01
5.180653e-01
5.126820e-01
5.107963e-01
5.127405e-01
5.181772e-01
5.262106e-01
5.357946e-01
5.458145e-01
5.556463e-01
5.645948e-01
0.000000e+00
1.000000e+00
5.637214e-01
5.536160e-01
5.426749e-01
5.314831e-01
5.208816e-01
5.119850e-01
5.060054e-01
5.039101e-01
5.060685e-01
5.121039e-01
5.210286e-01
5.316764e-01
5.428080e-01
5.537139e-01
5.636683e-01
0.000000e+00
1.000000e+00
5.630326e-01
5.522161e-01
5.404831e-01
5.284825e-01
5.171142e-01
5.075737e-01
5.011608e-01
4.989130e-01
5.012266e-01
5.076962e-01
5.172691e-01
5.286825e-01
5.406355e-01
5.523186e-01
5.629915e-01
0.000000e+00
1.000000e+00
5.626128e-01
5.513961e-01
5.391937e-01
5.267167e-01
5.148961e-01
5.049757e-01
4.983072e-01
4.959696e-01
4.983750e-01
5.051016e-01
5.150564e-01
5.269091e-01
5.393613e-01
5.515066e-01
5.625919e-01
0.000000e+00
1.000000e+00
5.625006e-01
5.511454e-01
5.387988e-01
5.261758e-01
5.142163e-01
5.041790e-01
4.974318e-01
4.950662e-01
4.974997e-01
5.043068e-01
5.143798e-01
5.263508e-01
5.389623e-01
5.512750e-01
5.624532e-01
0.000000e+00
1.000000e+00
5.626238e-01
5.514181e-01
5.392242e-01
5.267580e-01
5.149471e-01
5.050350e-01
4.983724e-01
4.960372e-01
4.984408e-01
5.051639e-01
5.151131e-01
5.269215e-01
5.393802e-01
5.515519e-01
5.625931e-01
0.000000e+00
1.000000e+00
5.629776e-01
5.521456e-01
5.403580e-01
5.283092e-01
5.168932e-01
5.073125e-01
5.008728e-01
4.986162e-01
5.009404e-01
5.074390e-01
5.170515e-01
5.284718e-01
5.405216e-01
5.522914e-01
5.629317e-01
0.000000e+00
1.000000e+00
5.635386e-01
5.532274e-01
5.420565e-01
5.306358e-01
5.198147e-01
5.107328e-01
5.046283e-01
5.024894e-01
5.046934e-01
5.108552e-01
5.199639e-01
5.308156e-01
5.422198e-01
5.534261e-01
5.632336e-01
0.000000e+00
1.000000e+00
5.749813e-01
5.768825e-01
5.790972e-01
5.813472e-01
5.834808e-01
5.852740e-01
5.864823e-01
5.869100e-01
5.864837e-01
5.852842e-01
5.835111e-01
5.813886e-01
5.791538e-01
5.769441e-01
5.746872e-01
0.000000e+00
1.000000e+00
5.743117e-01
5.755593e-01
5.770133e-01
5.784937e-01
5.798977e-01
5.810773e-01
5.818718e-01
5.821523e-01
5.818692e-01
5.810743e-01
5.799102e-01
5.785250e-01
5.770778e-01
5.756205e-01
5.741272e-01
0.000000e+00
1.000000e+00
5.734356e-01
5.738188e-01
5.742794e-01
5.747501e-01
5.751963e-01
5.755710e-01
5.758229e-01
5.759110e-01
5.758193e-01
5.755657e-01
5.752028e-01
5.747771e-01
5.743455e-01
5.738743e-01
5.733270e-01
0.000000e+00
1.000000e+00
5.723666e-01
5.716635e-01
5.708995e-01
5.701218e-01
5.693843e-01
5.687651e-01
5.683489e-01
5.682027e-01
5.683525e-01
5.687727e-01
5.694161e-01
5.701660e-01
5.709691e-01
5.717174e-01
5.722507e-01
0.000000e+00
1.000000e+00
5.711399e-01
5.691297e-01
5.669355e-01
5.646939e-01
5.625694e-01
5.607865e-01
5.595887e-01
5.591688e-01
5.596014e-01
5.608132e-01
5.626293e-01
5.647536e-01
5.670125e-01
5.692023e-01
5.710509e-01
0.000000e+00
1.000000e+00
5.697848e-01
5.663049e-01
5.625175e-01
5.586451e-01
5.549755e-01
5.518963e-01
5.498275e-01
5.491024e-01
5.498510e-01
5.519458e-01
5.550561e-01
5.587245e-01
5.626035e-01
5.663907e-01
5.697168e-01
0.000000e+00
1.000000e+00
5.683545e-01
5.633168e-01
5.578446e-01
5.522478e-01
5.469453e-01
5.424951e-01
5.395053e-01
5.384590e-01
5.395413e-01
5.425670e-01
5.470418e-01
5.523495e-01
5.579402e-01
5.634086e-01
5.682804e-01
0.000000e+00
1.000000e+00
5.669498e-01
5.603290e-01
5.531718e-01
5.458513e-01
5.389167e-01
5.330971e-01
5.291871e-01
5.278188e-01
5.292332e-01
5.331878e-01
5.390301e-01
5.459752e-01
5.532727e-01
5.604237e-01
5.668395e-01
0.000000e+00
1.000000e+00
5.656318e-01
5.575224e-01
5.487820e-01
5.398439e-01
5.313773e-01
5.242727e-01
5.194979e-01
5.178260e-01
5.195515e-01
5.243778e-01
5.315071e-01
5.399934e-01
5.488915e-01
5.576218e-01
5.655027e-01
0.000000e+00
1.000000e+00
5.644926e-01
5.550730e-01
5.449506e-01
5.346019e-01
5.247987e-01
5.165715e-01
5.110416e-01
5.091042e-01
5.111010e-01
5.166874e-01
5.249426e-01
5.347748e-01
5.450708e-01
5.551748e-01
5.643485e-01
0.000000e+00
1.000000e+00
5.635538e-01
5.531243e-01
5.419060e-01
5.304356e-01
5.195690e-01
5.104487e-01
5.043179e-01
5.021692e-01
5.043817e-01
5.105715e-01
5.197251e-01
5.306250e-01
5.420381e-01
5.532299e-01
5.634439e-01
0.000000e+00
1.000000e+00
5.628679e-01
5.517750e-01
5.397985e-01
5.275494e-01
5.159447e-01
5.062049e-01
4.996575e-01
4.973622e-01
4.997240e-01
5.063318e-01
5.161116e-01
5.277447e-01
5.399413e-01
5.518882e-01
5.628278e-01
0.000000e+00
1.000000e+00
5.624819e-01
5.510657e-01
5.386846e-01
5.260225e-01
5.140267e-01
5.039591e-01
4.971916e-01
4.948192e-01
4.972605e-01
5.040899e-01
5.142009e-01
5.262125e-01
5.388320e-01
5.511925e-01
5.625016e-01
0.000000e+00
1.000000e+00
5.624432e-01
5.509731e-01
5.385368e-01
5.258190e-01
5.137702e-01
5.036581e-01
4.968609e-01
4.944782e-01
4.969307e-01
5.037912e-01
5.139451e-01
5.259984e-01
5.386802e-01
5.511261e-01
5.624532e-01
0.000000e+00
1.000000e+00
5.626566e-01
5.514344e-01
5.392565e-01
5.268033e-01
5.150057e-01
5.051050e-01
4.984504e-01
4.961183e-01
4.985201e-01
5.052382e-01
5.151776e-01
5.269805e-01
5.394018e-01
5.516009e-01
5.626756e-01
0.000000e+00
1.000000e+00
5.631013e-01
5.523668e-01
5.407076e-01
5.287879e-01
5.174953e-01
5.080188e-01
5.016497e-01
4.994186e-01
5.017185e-01
5.081489e-01
5.176561e-01
5.289657e-01
5.408582e-01
5.525371e-01
5.630871e-01
0.000000e+00
1.000000e+00
5.637416e-01
5.536551e-01
5.427254e-01
5.315508e-01
5.209637e-01
5.120789e-01
5.061078e-01
5.040166e-01
5.061741e-01
5.122044e-01
5.211143e-01
5.317433e-01
5.428701e-01
5.538119e-01
5.636075e-01
0.000000e+00
1.000000e+00
5.757026e-01
5.783524e-01
5.814038e-01
5.845052e-01
5.874465e-01
5.899187e-01
5.915851e-01
5.921761e-01
5.915913e-01
5.899408e-01
5.874951e-01
5.845643e-01
5.814747e-01
5.784342e-01
5.753798e-01
0.000000e+00
1.000000e+00
5.749592e-01
5.768793e-01
5.790825e-01
5.813272e-01
5.834560e-01
5.852450e-01
5.864503e-01
5.868764e-01
5.864488e-01
5.852477e-01
5.834851e-01
5.813791e-01
5.791655e-01
5.769600e-01
5.747212e-01
0.000000e+00
1.000000e+00
5.740019e-01
5.749663e-01
5.760789e-01
5.772142e-01
5.782908e-01
5.791953e-01
5.798041e-01
5.800182e-01
5.797999e-01
5.791891e-01
5.783014e-01
5.772555e-01
5.761693e-01
5.750612e-01
5.737970e-01
0.000000e+00
1.000000e+00
5.728335e-01
5.726280e-01
5.724077e-01
5.721867e-01
5.719769e-01
5.718008e-01
5.716828e-01
5.716418e-01
5.716853e-01
5.718064e-01
5.720062e-01
5.722380e-01
5.724946e-01
5.727357e-01
5.725663e-01
0.000000e+00
1.000000e+00
5.714994e-01
5.699025e-01
5.681416e-01
5.663447e-01
5.646416e-01
5.632128e-01
5.622544e-01
5.619204e-01
5.622690e-01
5.632394e-01
5.647042e-01
5.664134e-01
5.682412e-01
5.700468e-01
5.711846e-01
0.000000e+00
1.000000e+00
5.700473e-01
5.668871e-01
5.634278e-01
5.598906e-01
5.565394e-01
5.537292e-01
5.518429e-01
5.511832e-01
5.518666e-01
5.537783e-01
5.566298e-01
5.599734e-01
5.635333e-01
5.670689e-01
5.697832e-01
0.000000e+00
1.000000e+00
5.685509e-01
5.637259e-01
5.584867e-01
5.531270e-01
5.480508e-01
5.437921e-01
5.409309e-01
5.399294e-01
5.409657e-01
5.438634e-01
5.481585e-01
5.532269e-01
5.585974e-01
5.639175e-01
5.684092e-01
0.000000e+00
1.000000e+00
5.670847e-01
5.605991e-01
5.535958e-01
5.464336e-01
5.396500e-01
5.339563e-01
5.301309e-01
5.287925e-01
5.301771e-01
5.340474e-01
5.397735e-01
5.465537e-01
5.537106e-01
5.607756e-01
5.669998e-01
0.000000e+00
1.000000e+00
5.657407e-01
5.577004e-01
5.490577e-01
5.402240e-01
5.318563e-01
5.248328e-01
5.201132e-01
5.184607e-01
5.201668e-01
5.249382e-01
5.319953e-01
5.403658e-01
5.491762e-01
5.578555e-01
5.656609e-01
0.000000e+00
1.000000e+00
5.646177e-01
5.552168e-01
5.451608e-01
5.348928e-01
5.251641e-01
5.169983e-01
5.115094e-01
5.095865e-01
5.115684e-01
5.171132e-01
5.253157e-01
5.350545e-01
5.452837e-01
5.553467e-01
5.644929e-01
0.000000e+00
1.000000e+00
5.637592e-01
5.532889e-01
5.421369e-01
5.307543e-01
5.199682e-01
5.109145e-01
5.048283e-01
5.026952e-01
5.048915e-01
5.110364e-01
5.201301e-01
5.309305e-01
5.422651e-01
5.534148e-01
5.635508e-01
0.000000e+00
1.000000e+00
5.630214e-01
5.519915e-01
5.401288e-01
5.280038e-01
5.165148e-01
5.068715e-01
5.003889e-01
4.981167e-01
5.004558e-01
5.069997e-01
5.166870e-01
5.281865e-01
5.402622e-01
5.521619e-01
5.628937e-01
0.000000e+00
1.000000e+00
5.627195e-01
5.513831e-01
5.391832e-01
5.267072e-01
5.148867e-01
5.049654e-01
4.982960e-01
4.959580e-01
4.983642e-01
5.050967e-01
5.150628e-01
5.268899e-01
5.393224e-01
5.516067e-01
5.625616e-01
0.000000e+00
1.000000e+00
5.627036e-01
5.514250e-01
5.392499e-01
5.267978e-01
5.150012e-01
5.051006e-01
4.984455e-01
4.961130e-01
4.985150e-01
5.052348e-01
5.151768e-01
5.269834e-01
5.393960e-01
5.516964e-01
5.625625e-01
0.000000e+00
1.000000e+00
5.629706e-01
5.520449e-01
5.402169e-01
5.281193e-01
5.166593e-01
5.070423e-01
5.005786e-01
4.983140e-01
5.006481e-01
5.071765e-01
5.168300e-01
5.283074e-01
5.403641e-01
5.523378e-01
5.628850e-01
0.000000e+00
1.000000e+00
5.634723e-01
5.531416e-01
5.419244e-01
5.304542e-01
5.195882e-01
5.104702e-01
5.043426e-01