<?xml version="1.0"?>
<VTKFile type="StructuredGrid" version="0.1">
  <StructuredGrid WholeExtent="0 16 0 16 0 16">
    <Piece Extent="0 16 0 16 0 16">
      <PointData Scalars="temperature" Vectors="velocity">
        <DataArray type="Float32" Name="temperature" format="ascii">
1.000000e+00
5.734254e-01
5.736767e-01
5.740467e-01
5.744308e-01
5.747959e-01
5.751037e-01
5.753118e-01
5.753850e-01
5.753093e-01
5.750982e-01
5.748063e-01
5.745589e-01
5.742508e-01
5.738773e-01
5.728682e-01
0.000000e+00
1.000000e+00
5.742900e-01
5.752824e-01
5.765735e-01
5.778911e-01
5.791415e-01
5.801935e-01
5.809029e-01
5.811540e-01
5.809022e-01
5.801917e-01
5.791516e-01
5.780101e-01
5.768469e-01
5.755177e-01
5.736955e-01
0.000000e+00
1.000000e+00
5.753215e-01
5.771370e-01
5.794991e-01
5.818974e-01
5.841737e-01
5.860885e-01
5.873804e-01
5.878404e-01
5.873879e-01
5.861044e-01
5.842386e-01
5.820925e-01
5.798174e-01
5.773996e-01
5.745898e-01
0.000000e+00
1.000000e+00
5.764750e-01
5.791972e-01
5.827608e-01
5.863635e-01
5.897826e-01
5.926596e-01
5.946026e-01
5.952978e-01
5.946248e-01
5.927105e-01
5.899387e-01
5.866454e-01
5.830923e-01
5.794880e-01
5.755746e-01
0.000000e+00
1.000000e+00
5.776690e-01
5.814037e-01
5.862570e-01
5.911493e-01
5.957923e-01
5.996992e-01
6.023389e-01
6.032870e-01
6.023822e-01
5.998049e-01
5.960471e-01
5.914951e-01
5.865964e-01
5.817275e-01
5.766305e-01
0.000000e+00
1.000000e+00
5.789235e-01
5.836656e-01
5.898457e-01
5.960620e-01
6.019616e-01
6.069271e-01
6.102846e-01
6.114957e-01
6.103572e-01
6.071039e-01
6.023073e-01
5.964617e-01
5.901945e-01
5.840261e-01
5.777105e-01
0.000000e+00
1.000000e+00
5.801792e-01
5.858657e-01
5.933562e-01
6.008677e-01
6.079968e-01
6.139991e-01
6.180620e-01
6.195354e-01
6.181757e-01
6.142628e-01
6.084210e-01
6.013169e-01
5.936982e-01
5.863129e-01
5.786832e-01
0.000000e+00
1.000000e+00
5.813462e-01
5.878889e-01
5.966031e-01
6.053115e-01
6.135775e-01
6.205406e-01
6.252608e-01
6.269846e-01
6.254306e-01
6.208980e-01
6.140683e-01
6.058089e-01
5.969157e-01
5.886292e-01
5.783635e-01
0.000000e+00
1.000000e+00
5.823923e-01
5.896133e-01
5.994010e-01
6.091409e-01
6.183886e-01
6.261844e-01
6.314784e-01
6.334278e-01
6.317131e-01
6.266299e-01
6.189356e-01
6.096889e-01
5.996703e-01
5.909341e-01
5.770065e-01
0.000000e+00
1.000000e+00
5.832892e-01
5.909216e-01
6.015858e-01
6.121357e-01
6.221567e-01
6.306110e-01
6.363615e-01
6.384941e-01
6.366522e-01
6.311255e-01
6.227509e-01
6.127316e-01
6.018307e-01
5.926005e-01
5.766649e-01
0.000000e+00
1.000000e+00
5.839426e-01
5.917337e-01
6.030404e-01
6.141376e-01
6.246818e-01
6.335812e-01
6.396401e-01
6.418957e-01
6.399644e-01
6.341401e-01
6.253166e-01
6.147652e-01
6.032933e-01
5.932401e-01
5.776347e-01
0.000000e+00
1.000000e+00
5.843537e-01
5.919803e-01
6.037019e-01
6.150617e-01
6.258509e-01
6.349559e-01
6.411550e-01
6.434647e-01
6.414896e-01
6.355318e-01
6.265096e-01
6.156837e-01
6.039944e-01
5.932265e-01
5.789507e-01
0.000000e+00
1.000000e+00
5.845657e-01
5.915944e-01
6.035681e-01
6.148922e-01
6.256371e-01
6.347040e-01
6.408745e-01
6.431696e-01
6.412006e-01
6.352728e-01
6.263111e-01
6.155099e-01
6.039135e-01
5.928271e-01
5.805631e-01
0.000000e+00
1.000000e+00
5.843140e-01
5.907965e-01
6.026856e-01
6.136767e-01
6.241036e-01
6.329052e-01
6.388978e-01
6.411153e-01
6.391947e-01
6.334548e-01
6.247834e-01
6.142869e-01
6.030686e-01
5.921852e-01
5.814646e-01
0.000000e+00
1.000000e+00
5.839075e-01
5.897642e-01
6.011120e-01
6.115185e-01
6.213930e-01
6.297302e-01
6.354106e-01
6.374990e-01
6.356639e-01
6.302616e-01
6.220611e-01
6.121313e-01
6.015241e-01
5.911622e-01
5.807110e-01
0.000000e+00
1.000000e+00
5.831686e-01
5.886124e-01
5.989637e-01
6.085788e-01
6.177041e-01
6.254060e-01
6.306543e-01
6.325850e-01
6.308865e-01
6.259223e-01
6.183473e-01
6.091973e-01
5.994140e-01
5.897405e-01
5.803976e-01
0.000000e+00
1.000000e+00
5.818981e-01
5.874037e-01
5.963927e-01
6.050439e-01
6.132591e-01
6.201903e-01
6.249135e-01
6.266609e-01
6.251457e-01
6.206936e-01
6.138872e-01
6.056813e-01
5.969069e-01
5.881925e-01
5.808891e-01
0.000000e+00
1.000000e+00
5.741673e-01
5.750148e-01
5.761615e-01
5.773266e-01
5.784321e-01
5.793618e-01
5.799884e-01
5.802100e-01
5.799864e-01
5.793563e-01
5.784345e-01
5.774185e-01
5.763804e-01
5.752180e-01
5.735527e-01
0.000000e+00
1.000000e+00
5.750409e-01
5.766738e-01
5.787736e-01
5.809032e-01
5.829240e-01
5.846236e-01
5.857699e-01
5.861775e-01
5.857741e-01
5.846310e-01
5.829699e-01
5.810695e-01
5.790633e-01
5.769176e-01
5.743494e-01
0.000000e+00
1.000000e+00
5.761114e-01
5.785845e-01
5.817908e-01
5.850343e-01
5.881120e-01
5.907013e-01
5.924495e-01
5.930742e-01
5.924660e-01
5.907393e-01
5.882428e-01
5.852880e-01
5.820967e-01
5.788492e-01
5.752705e-01
0.000000e+00
1.000000e+00
5.773155e-01
5.806972e-01
5.851453e-01
5.896277e-01
5.938810e-01
5.974594e-01
5.998765e-01
6.007437e-01
5.999123e-01
5.975480e-01
5.941081e-01
5.899536e-01
5.854697e-01
5.810010e-01
5.762775e-01
0.000000e+00
1.000000e+00
5.785436e-01
5.829524e-01
5.887255e-01
5.945287e-01
6.000357e-01
6.046701e-01
6.078031e-01
6.089319e-01
6.078663e-01
6.048273e-01
6.003556e-01
5.949242e-01
5.890685e-01
5.832942e-01
5.773716e-01
0.000000e+00
1.000000e+00
5.798131e-01
5.852491e-01
5.923766e-01
5.995260e-01
6.063111e-01
6.120229e-01
6.158884e-01
6.172880e-01
6.159911e-01
6.122677e-01
6.067165e-01
5.999969e-01
5.927367e-01
5.856248e-01
5.784570e-01
0.000000e+00
1.000000e+00
5.811047e-01
5.874556e-01
5.959103e-01
6.043635e-01
6.123864e-01
6.191434e-01
6.237220e-01
6.253913e-01
6.238821e-01
6.194900e-01
6.128663e-01
6.049210e-01
5.962809e-01
5.878792e-01
5.796882e-01
0.000000e+00
1.000000e+00
5.823075e-01
5.894407e-01
5.991246e-01
6.087639e-01
6.179142e-01
6.256254e-01
6.308601e-01
6.327862e-01
6.310931e-01
6.260744e-01
6.184550e-01
6.094105e-01
5.994909e-01
5.899925e-01
5.806536e-01
0.000000e+00
1.000000e+00
5.833262e-01
5.910833e-01
6.018226e-01
6.124575e-01
6.225567e-01
6.310760e-01
6.368711e-01
6.390224e-01
6.371747e-01
6.316132e-01
6.231473e-01
6.131860e-01
6.021674e-01
5.920774e-01
5.797822e-01
0.000000e+00
1.000000e+00
5.841678e-01
5.922567e-01
6.038310e-01
6.152143e-01
6.260295e-01
6.351600e-01
6.413805e-01
6.437027e-01
6.417328e-01
6.357621e-01
6.266728e-01
6.159873e-01
6.041851e-01
5.939601e-01
5.780016e-01
0.000000e+00
1.000000e+00
5.847587e-01
5.928734e-01
6.050340e-01
6.168783e-01
6.281319e-01
6.376344e-01
6.441113e-01
6.465336e-01
6.444851e-01
6.382765e-01
6.288365e-01
6.176344e-01
6.054137e-01
5.948230e-01
5.781683e-01
0.000000e+00
1.000000e+00
5.850137e-01
5.928945e-01
6.053831e-01
6.173744e-01
6.287592e-01
6.383695e-01
6.449181e-01
6.473666e-01
6.452945e-01
6.390291e-01
6.295059e-01
6.180729e-01
6.057445e-01
5.947011e-01
5.785376e-01
0.000000e+00
1.000000e+00
5.849415e-01
5.923222e-01
6.048886e-01
6.167010e-01
6.279084e-01
6.373675e-01
6.438096e-01
6.462141e-01
6.441731e-01
6.380162e-01
6.286589e-01
6.173505e-01
6.052420e-01
5.939019e-01
5.797040e-01
0.000000e+00
1.000000e+00
5.846334e-01
5.913362e-01
6.036018e-01
6.149296e-01
6.256774e-01
6.347506e-01
6.409299e-01
6.432263e-01
6.412638e-01
6.353695e-01
6.264148e-01
6.155700e-01
6.039999e-01
5.928062e-01
5.812752e-01
0.000000e+00
1.000000e+00
5.840538e-01
5.901216e-01
6.016040e-01
6.121957e-01
6.222456e-01
6.307306e-01
6.365116e-01
6.386521e-01
6.368154e-01
6.313269e-01
6.229634e-01
6.128514e-01
6.020673e-01
5.914838e-01
5.809708e-01
0.000000e+00
1.000000e+00
5.829477e-01
5.888602e-01
5.990558e-01
6.087007e-01
6.178566e-01
6.255837e-01
6.308484e-01
6.327992e-01
6.311322e-01
6.261494e-01
6.185335e-01
6.093579e-01
5.995804e-01
5.898582e-01
5.807228e-01
0.000000e+00
1.000000e+00
5.816242e-01
5.873158e-01
5.961012e-01
6.046420e-01
6.127548e-01
6.195993e-01
6.242611e-01
6.259940e-01
6.245164e-01
6.201050e-01
6.133630e-01
6.052671e-01
5.966374e-01
5.880958e-01
5.811063e-01
0.000000e+00
1.000000e+00
5.747881e-01
5.761291e-01
5.779252e-01
5.797414e-01
5.814643e-01
5.829130e-01
5.838898e-01
5.842364e-01
5.838910e-01
5.829130e-01
5.814879e-01
5.798679e-01
5.781471e-01
5.763297e-01
5.740952e-01
0.000000e+00
1.000000e+00
5.757019e-01
5.778233e-01
5.805979e-01
5.834006e-01
5.860596e-01
5.882959e-01
5.898051e-01
5.903432e-01
5.898151e-01
5.883169e-01
5.861501e-01
5.836100e-01
5.808523e-01
5.780498e-01
5.748973e-01
0.000000e+00
1.000000e+00
5.767952e-01
5.797699e-01
5.836806e-01
5.876215e-01
5.913607e-01
5.945061e-01
5.966302e-01
5.973914e-01
5.966573e-01
5.945707e-01
5.915417e-01
5.879107e-01
5.839589e-01
5.800319e-01
5.758349e-01
0.000000e+00
1.000000e+00
5.780055e-01
5.819231e-01
5.871008e-01
5.923045e-01
5.972424e-01
6.013973e-01
6.042055e-01
6.052163e-01
6.042569e-01
6.015231e-01
5.975157e-01
5.926673e-01
5.874064e-01
5.822307e-01
5.768735e-01
0.000000e+00
1.000000e+00
5.792662e-01
5.842089e-01
5.907374e-01
5.972829e-01
6.034943e-01
6.087225e-01
6.122595e-01
6.135383e-01
6.123452e-01
6.089306e-01
6.038568e-01
5.977258e-01
5.910686e-01
5.845620e-01
5.779703e-01
0.000000e+00
1.000000e+00
5.805476e-01
5.865231e-01
5.944243e-01
6.023287e-01
6.098301e-01
6.161468e-01
6.204252e-01
6.219815e-01
6.205635e-01
6.164598e-01
6.102756e-01
6.028628e-01
5.947843e-01
5.869193e-01
5.791029e-01
0.000000e+00
1.000000e+00
5.818506e-01
5.887218e-01
5.979565e-01
6.071639e-01
6.159032e-01
6.232663e-01
6.282616e-01
6.300946e-01
6.284744e-01
6.236965e-01
6.164213e-01
6.078031e-01
5.983557e-01
5.891823e-01
5.801745e-01
0.000000e+00
1.000000e+00
5.830764e-01
5.906560e-01
6.011157e-01
6.114906e-01
6.213404e-01
6.296459e-01
6.352927e-01
6.373863e-01
6.355891e-01
6.301868e-01
6.219197e-01
6.122288e-01
6.015627e-01
5.912281e-01
5.811185e-01
0.000000e+00
1.000000e+00
5.840787e-01
5.922033e-01
6.036948e-01
6.150243e-01
6.257857e-01
6.348693e-01
6.410581e-01
6.433711e-01
6.414202e-01
6.354927e-01
6.264231e-01
6.158224e-01
6.041845e-01
5.930649e-01
5.809675e-01
0.000000e+00
1.000000e+00
5.848617e-01
5.932405e-01
6.055153e-01
6.175284e-01
6.289440e-01
6.385860e-01
6.451625e-01
6.476284e-01
6.455560e-01
6.392541e-01
6.296558e-01
6.183068e-01
6.060714e-01
5.947800e-01
5.797245e-01
0.000000e+00
1.000000e+00
5.853312e-01
5.936999e-01
6.064644e-01
6.188480e-01
6.306134e-01
6.405501e-01
6.473265e-01
6.498655e-01
6.477225e-01
6.412344e-01
6.314030e-01
6.196226e-01
6.070144e-01
5.958704e-01
5.788016e-01
0.000000e+00
1.000000e+00
5.854295e-01
5.935624e-01
6.065077e-01
6.189200e-01
6.307025e-01
6.406495e-01
6.474304e-01
6.499650e-01
6.478118e-01
6.413356e-01
6.315444e-01
6.196918e-01
6.069294e-01
5.957210e-01
5.787954e-01
0.000000e+00
1.000000e+00
5.852853e-01
5.927576e-01
6.056519e-01
6.177522e-01
6.292307e-01
6.389189e-01
6.455182e-01
6.479804e-01
6.458859e-01
6.395937e-01
6.300663e-01
6.184671e-01
6.060300e-01
5.946234e-01
5.797633e-01
0.000000e+00
1.000000e+00
5.848000e-01
5.916037e-01
6.039734e-01
6.154464e-01
6.263310e-01
6.355200e-01
6.417795e-01
6.441076e-01
6.421255e-01
6.361742e-01
6.271230e-01
6.161330e-01
6.043996e-01
5.931164e-01
5.809043e-01
0.000000e+00
1.000000e+00
5.838848e-01
5.903581e-01
6.015970e-01
6.121850e-01
6.222339e-01
6.307188e-01
6.365010e-01
6.386464e-01
6.368216e-01
6.313420e-01
6.229740e-01
6.128633e-01
6.020846e-01
5.914826e-01
5.807150e-01
0.000000e+00
1.000000e+00
5.826310e-01
5.888557e-01
5.986918e-01
6.081933e-01
6.172165e-01
6.248309e-01
6.300192e-01
6.319475e-01
6.303112e-01
6.254011e-01
6.178875e-01
6.088446e-01
5.992228e-01
5.896910e-01
5.809863e-01
0.000000e+00
1.000000e+00
5.812697e-01
5.869648e-01
5.954038e-01
6.036803e-01
6.115426e-01
6.181743e-01
6.226892e-01
6.243718e-01
6.229430e-01
6.186663e-01
6.121262e-01
6.042874e-01
5.959356e-01
5.876480e-01
5.808806e-01
0.000000e+00
1.000000e+00
5.752382e-01
5.769429e-01
5.792134e-01
5.815048e-01
5.836783e-01
5.855058e-01
5.867384e-01
5.871769e-01
5.867431e-01
5.855147e-01
5.837334e-01
5.816678e-01
5.794224e-01
5.771335e-01
5.744812e-01
0.000000e+00
1.000000e+00
5.761990e-01
5.786474e-01
5.819098e-01
5.851971e-01
5.883154e-01
5.909381e-01
5.927083e-01
5.933409e-01
5.927250e-01
5.909763e-01
5.884370e-01
5.854261e-01
5.821457e-01
5.788693e-01
5.752947e-01
0.000000e+00
1.000000e+00
5.773072e-01
5.806050e-01
5.850185e-01
5.894537e-01
5.936618e-01
5.972021e-01
5.995939e-01
6.004528e-01
5.996307e-01
5.972899e-01
5.938661e-01
5.897615e-01
5.852861e-01
5.808726e-01
5.762434e-01
0.000000e+00
1.000000e+00
5.785094e-01
5.827736e-01
5.884646e-01
5.941719e-01
5.995878e-01
6.041454e-01
6.072277e-01
6.083394e-01
6.072920e-01
6.043017e-01
5.998811e-01
5.945575e-01
5.887704e-01
5.830914e-01
5.772903e-01
0.000000e+00
1.000000e+00
5.797866e-01
5.850675e-01
5.921187e-01
5.991746e-01
6.058704e-01
6.115070e-01
6.153227e-01
6.167055e-01
6.154280e-01
6.117573e-01
6.062542e-01
5.996418e-01
5.924621e-01
5.854338e-01
5.783980e-01
0.000000e+00
1.000000e+00
5.810651e-01
5.873782e-01
5.958056e-01
6.042200e-01
6.122055e-01
6.189313e-01
6.234900e-01
6.251540e-01
6.236590e-01
6.193002e-01
6.126760e-01
6.047810e-01
5.961977e-01
5.877897e-01
5.795273e-01
0.000000e+00
1.000000e+00
5.823393e-01
5.895580e-01
5.993072e-01
6.090124e-01
6.182250e-01
6.259891e-01
6.312614e-01
6.332055e-01
6.315162e-01
6.264879e-01
6.187738e-01
6.096715e-01
5.997809e-01
5.900246e-01
5.805609e-01
0.000000e+00
1.000000e+00
5.835447e-01
5.914434e-01
6.023899e-01
6.132355e-01
6.235336e-01
6.322206e-01
6.381331e-01
6.403362e-01
6.384738e-01
6.328377e-01
6.241722e-01
6.139219e-01
6.029913e-01
5.920002e-01
5.816173e-01
0.000000e+00
1.000000e+00
5.845218e-01
5.929055e-01
6.048376e-01
6.165922e-01
6.277590e-01
6.371880e-01
6.436180e-01
6.460301e-01
6.440152e-01
6.378829e-01
6.284999e-01
6.172455e-01
6.055320e-01
5.936764e-01
5.819186e-01
0.000000e+00
1.000000e+00
5.851868e-01
5.938475e-01
6.064712e-01
6.188410e-01
6.305966e-01
6.405284e-01
6.473061e-01
6.498516e-01
6.477183e-01
6.412424e-01
6.314028e-01
6.195406e-01
6.071231e-01
5.952162e-01
5.809266e-01
0.000000e+00
1.000000e+00
5.855213e-01
5.942013e-01
6.071835e-01
6.198304e-01
6.318476e-01
6.419984e-01
6.489249e-01
6.515216e-01
6.493213e-01
6.426941e-01
6.326875e-01
6.206302e-01
6.077586e-01
5.965459e-01
5.793881e-01
0.000000e+00
1.000000e+00
5.856621e-01
5.938257e-01
6.069187e-01
6.194889e-01
6.314241e-01
6.415015e-01
6.483745e-01
6.509467e-01
6.487568e-01
6.421807e-01
6.323128e-01
6.203648e-01
6.074465e-01
5.964983e-01
5.787488e-01
0.000000e+00
1.000000e+00
5.854590e-01
5.928595e-01
6.057313e-01
6.178705e-01
6.293878e-01
6.391100e-01
6.457358e-01
6.482141e-01
6.461155e-01
6.397850e-01
6.302690e-01
6.186662e-01
6.061568e-01
5.950083e-01
5.793100e-01
0.000000e+00
1.000000e+00
5.846288e-01
5.917144e-01
6.037297e-01
6.151118e-01
6.259137e-01
6.350334e-01
6.412473e-01
6.435638e-01
6.416080e-01
6.357042e-01
6.267228e-01
6.158269e-01
6.041656e-01
5.930744e-01
5.802974e-01
0.000000e+00
1.000000e+00
5.834161e-01
5.903134e-01
6.010395e-01
6.114102e-01
6.212582e-01
6.295731e-01
6.352394e-01
6.373448e-01
6.355643e-01
6.301972e-01
6.219887e-01
6.120828e-01
6.015164e-01
5.911579e-01
5.803970e-01
0.000000e+00
1.000000e+00
5.821655e-01
5.884665e-01
5.978351e-01
6.070106e-01
6.157258e-01
6.230785e-01
6.280857e-01
6.299480e-01
6.283692e-01
6.236306e-01
6.163733e-01
6.076341e-01
5.983545e-01
5.891600e-01
5.807793e-01
0.000000e+00
1.000000e+00
5.808062e-01
5.863127e-01
5.942790e-01
6.021361e-01
6.095989e-01
6.158910e-01
6.201697e-01
6.217622e-01
6.204054e-01
6.163519e-01
6.101441e-01
6.027035e-01
5.947982e-01
5.868702e-01
5.806873e-01
0.000000e+00
1.000000e+00
5.754816e-01
5.773815e-01
5.799078e-01
5.824555e-01
5.848721e-01
5.869039e-01
5.882746e-01
5.887629e-01
5.882827e-01
5.869218e-01
5.849420e-01
5.826321e-01
5.801138e-01
5.775603e-01
5.746846e-01
0.000000e+00
1.000000e+00
5.764434e-01
5.790691e-01
5.825794e-01
5.861139e-01
5.894668e-01
5.922867e-01
5.941905e-01
5.948717e-01
5.942115e-01
5.923360e-01
5.895951e-01
5.863475e-01
5.828138e-01
5.792841e-01
5.754961e-01
0.000000e+00
1.000000e+00
5.775404e-01
5.810107e-01
5.856626e-01
5.903355e-01
5.947692e-01
5.984995e-01
6.010203e-01
6.019267e-01
6.010625e-01
5.985993e-01
5.949762e-01
5.906458e-01
5.859360e-01
5.812736e-01
5.764406e-01
0.000000e+00
1.000000e+00
5.787316e-01
5.831635e-01
5.890826e-01
5.950179e-01
6.006501e-01
6.053904e-01
6.085968e-01
6.097545e-01
6.086676e-01
6.055614e-01
6.009497e-01
5.953990e-01
5.893982e-01
5.834748e-01
5.774734e-01
0.000000e+00
1.000000e+00
5.800053e-01
5.854370e-01
5.927046e-01
5.999770e-01
6.068783e-01
6.126884e-01
6.166224e-01
6.180498e-01
6.167367e-01
6.129583e-01
6.072757e-01
6.004382e-01
5.930661e-01
5.857981e-01
5.785739e-01
0.000000e+00
1.000000e+00
5.812724e-01
5.877200e-01
5.963468e-01
6.049619e-01
6.131377e-01
6.200242e-01
6.246930e-01
6.263996e-01
6.248740e-01
6.204178e-01
6.136243e-01
6.055194e-01
5.967704e-01
5.881266e-01
5.796852e-01
0.000000e+00
1.000000e+00
5.824895e-01
5.898668e-01
5.997838e-01
6.096653e-01
6.190447e-01
6.269503e-01
6.323203e-01
6.343032e-01
6.325880e-01
6.274781e-01
6.196183e-01
6.102985e-01
6.003103e-01
5.903253e-01
5.807249e-01
0.000000e+00
1.000000e+00
5.836310e-01
5.917063e-01
6.027705e-01
6.137563e-01
6.241878e-01
6.329877e-01
6.389782e-01
6.412126e-01
6.393279e-01
6.336342e-01
6.248851e-01
6.143770e-01
6.034349e-01
5.922395e-01
5.816914e-01
0.000000e+00
1.000000e+00
5.845493e-01
5.931019e-01
6.050819e-01
6.169278e-01
6.281810e-01
6.376824e-01
6.441621e-01
6.465926e-01
6.445591e-01
6.383973e-01
6.290002e-01
6.175240e-01
6.058458e-01
5.937530e-01
5.823947e-01
0.000000e+00
1.000000e+00
5.851469e-01
5.939599e-01
6.065435e-01
6.189368e-01
6.307138e-01
6.406631e-01
6.474542e-01
6.500066e-01
6.478576e-01
6.413717e-01
6.315438e-01
6.196608e-01
6.072106e-01
5.950398e-01
5.822862e-01
0.000000e+00
1.000000e+00
5.854403e-01
5.941617e-01
6.070312e-01
6.196147e-01
6.315764e-01
6.416847e-01
6.485873e-01
6.511823e-01
6.489836e-01
6.423547e-01
6.324126e-01
6.204913e-01
6.076251e-01
5.960559e-01
5.805050e-01
0.000000e+00
1.000000e+00
5.855223e-01
5.936571e-01
6.065162e-01
6.189285e-01
6.307227e-01
6.406859e-01
6.474853e-01
6.500419e-01
6.478841e-01
6.413360e-01
6.316174e-01
6.198772e-01
6.071050e-01
5.959675e-01
5.789132e-01
0.000000e+00
1.000000e+00
5.851451e-01
5.926560e-01
6.050708e-01
6.169546e-01
6.282402e-01
6.377684e-01
6.442642e-01
6.467027e-01
6.446544e-01
6.384290e-01
6.291231e-01
6.178015e-01
6.055254e-01
5.944075e-01
5.795687e-01
0.000000e+00
1.000000e+00
5.840736e-01
5.914189e-01
6.028196e-01
6.138516e-01
6.243280e-01
6.331725e-01
6.391980e-01
6.414471e-01
6.395577e-01
6.338323e-01
6.251143e-01
6.145704e-01
6.032519e-01
5.925514e-01
5.801948e-01
0.000000e+00
1.000000e+00
5.827716e-01
5.897753e-01
5.998940e-01
6.098281e-01
6.192635e-01
6.272275e-01
6.326515e-01
6.346661e-01
6.329629e-01
6.278226e-01
6.199513e-01
6.104704e-01
6.003447e-01
5.905168e-01
5.801969e-01
0.000000e+00
1.000000e+00
5.815026e-01
5.877073e-01
5.964749e-01
6.051400e-01
6.133696e-01
6.203095e-01
6.250299e-01
6.267810e-01
6.252855e-01
6.208179e-01
6.139681e-01
6.057159e-01
5.969604e-01
5.882656e-01
5.804210e-01
0.000000e+00
1.000000e+00
5.801827e-01
5.853848e-01
5.927369e-01
6.000224e-01
6.069413e-01
6.127717e-01
6.167306e-01
6.181959e-01
6.169307e-01
6.131803e-01
6.074329e-01
6.005366e-01
5.932216e-01
5.858530e-01
5.794608e-01
0.000000e+00
1.000000e+00
5.754997e-01
5.773824e-01
5.799109e-01
5.824599e-01
5.848776e-01
5.869104e-01
5.882816e-01
5.887699e-01
5.882893e-01
5.869282e-01
5.849406e-01
5.826290e-01
5.801253e-01
5.775471e-01
5.746680e-01
0.000000e+00
1.000000e+00
5.763907e-01
5.790205e-01
5.824995e-01
5.860043e-01
5.893290e-01
5.921251e-01
5.940126e-01
5.946875e-01
5.940326e-01
5.921724e-01
5.894485e-01
5.862276e-01
5.827452e-01
5.792215e-01
5.754590e-01
0.000000e+00
1.000000e+00
5.774370e-01
5.809131e-01
5.854961e-01
5.901068e-01
5.944816e-01
5.981622e-01
6.006493e-01
6.015433e-01
6.006902e-01
5.982587e-01
5.946841e-01
5.903998e-01
5.857829e-01
5.811557e-01
5.763766e-01
0.000000e+00
1.000000e+00
5.786147e-01
5.830137e-01
5.888284e-01
5.946693e-01
6.002119e-01
6.048767e-01
6.080317e-01
6.091705e-01
6.080996e-01
6.050411e-01
6.005144e-01
5.950272e-01
5.891583e-01
5.833020e-01
5.773860e-01
0.000000e+00
1.000000e+00
5.798558e-01
5.852348e-01
5.923607e-01
5.995057e-01
6.062863e-01
6.119944e-01
6.158589e-01
6.172604e-01
6.159666e-01
6.122527e-01
6.066899e-01
5.999497e-01
5.927335e-01
5.855693e-01
5.784586e-01
0.000000e+00
1.000000e+00
5.810738e-01
5.874648e-01
5.959089e-01
6.043624e-01
6.123847e-01
6.191412e-01
6.237209e-01
6.253929e-01
6.238884e-01
6.195174e-01
6.128825e-01
6.049031e-01
5.963366e-01
5.878384e-01
5.795390e-01
0.000000e+00
1.000000e+00
5.822293e-01
5.895562e-01
5.992442e-01
6.089264e-01
6.181165e-01
6.258612e-01
6.311194e-01
6.330565e-01
6.313642e-01
6.263631e-01
6.187133e-01
6.095506e-01
5.997444e-01
5.899653e-01
5.805540e-01
0.000000e+00
1.000000e+00
5.832964e-01
5.913391e-01
6.021161e-01
6.128602e-01
6.230614e-01
6.316645e-01
6.375171e-01
6.396922e-01
6.378342e-01
6.322706e-01
6.237560e-01
6.135539e-01
6.027176e-01
5.917900e-01
5.814305e-01
0.000000e+00
1.000000e+00
5.841811e-01
5.926676e-01
6.042958e-01
6.158499e-01
6.268237e-01
6.360856e-01
6.423979e-01
6.447610e-01
6.427615e-01
6.367478e-01
6.276010e-01
6.165677e-01
6.050177e-01
5.931726e-01
5.821187e-01
0.000000e+00
1.000000e+00
5.847294e-01
5.934361e-01
6.056065e-01
6.176433e-01
6.290807e-01
6.387429e-01
6.453401e-01
6.478250e-01
6.457317e-01
6.394045e-01
6.298900e-01
6.184276e-01
6.063296e-01
5.940121e-01
5.819718e-01
0.000000e+00
1.000000e+00
5.850012e-01
5.935406e-01
6.059274e-01
6.180872e-01
6.296468e-01
6.394176e-01
6.460932e-01
6.486151e-01
6.465045e-01
6.400470e-01
6.304794e-01
6.190385e-01
6.065833e-01
5.945252e-01
5.802305e-01
0.000000e+00
1.000000e+00
5.849387e-01
5.930047e-01
6.052428e-01
6.171617e-01
6.284925e-01
6.380666e-01
6.446033e-01
6.470701e-01
6.450112e-01
6.386873e-01
6.293612e-01
6.181277e-01
6.057769e-01
5.944717e-01
5.797175e-01
0.000000e+00
1.000000e+00
5.843967e-01
5.919760e-01
6.036297e-01
6.149564e-01
6.257197e-01
6.348080e-01
6.410037e-01
6.433320e-01
6.413857e-01
6.354424e-01
6.265529e-01
6.157840e-01
6.040718e-01
5.931497e-01
5.804386e-01
0.000000e+00
1.000000e+00
5.833091e-01
5.905823e-01
6.012181e-01
6.116436e-01
6.215464e-01
6.299031e-01
6.355919e-01
6.377124e-01
6.359294e-01
6.305192e-01
6.222702e-01
6.123251e-01
6.016327e-01
5.914525e-01
5.800982e-01
0.000000e+00
1.000000e+00
5.820001e-01
5.887760e-01
5.981560e-01
6.074410e-01
6.162588e-01
6.236966e-01
6.287549e-01
6.306270e-01
6.290299e-01
6.242317e-01
6.168790e-01
6.080257e-01
5.985781e-01
5.894175e-01
5.796778e-01
0.000000e+00
1.000000e+00
5.807063e-01
5.866029e-01
5.946302e-01
6.026108e-01
6.101883e-01
6.165749e-01
6.209120e-01
6.225118e-01
6.211226e-01
6.170147e-01
6.107190e-01
6.031197e-01
5.950784e-01
5.870856e-01
5.796720e-01
0.000000e+00
1.000000e+00
5.794291e-01
5.842073e-01
5.908178e-01
5.973941e-01
6.036382e-01
6.088983e-01
6.124644e-01
6.137739e-01
6.126191e-01
6.092360e-01
6.040656e-01
5.978430e-01
5.912574e-01
5.846224e-01
5.782005e-01
0.000000e+00
1.000000e+00
5.752492e-01
5.769104e-01
5.791615e-01
5.814339e-01
5.835894e-01
5.854016e-01
5.866237e-01
5.870580e-01
5.866271e-01
5.854089e-01
5.836228e-01
5.815781e-01
5.793927e-01
5.770723e-01
5.745080e-01
0.000000e+00
1.000000e+00
5.760910e-01
5.784558e-01
5.816027e-01
5.847767e-01
5.877875e-01
5.903195e-01
5.920280e-01
5.926375e-01
5.920417e-01
5.903520e-01
5.878837e-01
5.849906e-01
5.818643e-01
5.786488e-01
5.751950e-01
0.000000e+00
1.000000e+00
5.770690e-01
5.802540e-01
5.844457e-01
5.886691e-01
5.926761e-01
5.960469e-01
5.983237e-01
5.991405e-01
5.983562e-01
5.961244e-01
5.928679e-01
5.889497e-01
5.847522e-01
5.804862e-01
5.760631e-01
0.000000e+00
1.000000e+00
5.781721e-01
5.822638e-01
5.876250e-01
5.930218e-01
5.981429e-01
6.024522e-01
6.053656e-01
6.064155e-01
6.054221e-01
6.025884e-01
5.984388e-01
5.933648e-01
5.879718e-01
5.825373e-01
5.770220e-01
0.000000e+00
1.000000e+00
5.793288e-01
5.843986e-01
5.910073e-01
5.976524e-01
6.039585e-01
6.092667e-01
6.128586e-01
6.141588e-01
6.129472e-01
6.094819e-01
6.043565e-01
5.980843e-01
5.913879e-01
5.847097e-01
5.780453e-01
0.000000e+00
1.000000e+00
5.804904e-01
5.865415e-01
5.944098e-01
6.023103e-01
6.098079e-01
6.161214e-01
6.203983e-01
6.219546e-01
6.205328e-01
6.164368e-01
6.103078e-01
6.028382e-01
5.948235e-01
5.868886e-01
5.790798e-01
0.000000e+00
1.000000e+00
5.816048e-01
5.885484e-01
5.976059e-01
6.066857e-01
6.153037e-01
6.225641e-01
6.274891e-01
6.292938e-01
6.276832e-01
6.229849e-01
6.158946e-01
6.073202e-01
5.980563e-01
5.889271e-01
5.800479e-01
0.000000e+00
1.000000e+00
5.826197e-01
5.902592e-01
6.003488e-01
6.104421e-01
6.200241e-01
6.281018e-01
6.335907e-01
6.356194e-01
6.338488e-01
6.286106e-01
6.206773e-01
6.111994e-01
6.008610e-01
5.906673e-01
5.808861e-01
0.000000e+00
1.000000e+00
5.834163e-01
5.915375e-01
6.024170e-01
6.132705e-01
6.235755e-01
6.322677e-01
6.381856e-01
6.403959e-01
6.385062e-01
6.328338e-01
6.242847e-01
6.140822e-01
6.030256e-01
5.919786e-01
5.815261e-01
0.000000e+00
1.000000e+00
5.839690e-01
5.922378e-01
6.036153e-01
6.149083e-01
6.256337e-01
6.346878e-01
6.408638e-01
6.431899e-01
6.412407e-01
6.352796e-01
6.264079e-01
6.157481e-01
6.042538e-01
5.927212e-01
5.819673e-01
0.000000e+00
1.000000e+00
5.841931e-01
5.923111e-01
6.038408e-01
6.152191e-01
6.260297e-01
6.351604e-01
6.413930e-01
6.437482e-01
6.417932e-01
6.357463e-01
6.268323e-01
6.161425e-01
6.043883e-01
5.929301e-01
5.816826e-01
0.000000e+00
1.000000e+00
5.840040e-01
5.917835e-01
6.030809e-01
6.141839e-01
6.247348e-01
6.336448e-01
6.397226e-01
6.420143e-01
6.401071e-01
6.342295e-01
6.255317e-01
6.150657e-01
6.035318e-01
5.925413e-01
5.809687e-01
0.000000e+00
1.000000e+00
5.833744e-01
5.907362e-01
6.014071e-01
6.118953e-01
6.218597e-01
6.302691e-01
6.359956e-01
6.381403e-01
6.363418e-01
6.308512e-01
6.225959e-01
6.126388e-01
6.018182e-01
5.914754e-01
5.806503e-01
0.000000e+00
1.000000e+00
5.823664e-01
5.892520e-01
5.989492e-01
6.085293e-01
6.176273e-01
6.252995e-01
6.305143e-01
6.324477e-01
6.308032e-01
6.258394e-01
6.182600e-01
6.091400e-01
5.993378e-01
5.899018e-01
5.798519e-01
0.000000e+00
1.000000e+00
5.811394e-01
5.873813e-01
5.958716e-01
6.043125e-01
6.123266e-01
6.190817e-01
6.236680e-01
6.253543e-01
6.238874e-01
6.195342e-01
6.128669e-01
6.048260e-01
5.962637e-01
5.879229e-01
5.791085e-01
0.000000e+00
1.000000e+00
5.798777e-01
5.851979e-01
5.923616e-01
5.995063e-01
6.062884e-01
6.120012e-01
6.158748e-01
6.172935e-01
6.160329e-01
6.123578e-01
6.067414e-01
5.999446e-01
5.927651e-01
5.856387e-01
5.786274e-01
0.000000e+00
1.000000e+00
5.786195e-01
5.828243e-01
5.885942e-01
5.943502e-01
5.998146e-01
6.044160e-01
6.075322e-01
6.086676e-01
6.076425e-01
6.046752e-01
6.001731e-01
5.947343e-01
5.889808e-01
5.832036e-01
5.773398e-01
0.000000e+00
1.000000e+00
5.747151e-01
5.759559e-01
5.776469e-01
5.793602e-01
5.809856e-01
5.823523e-01
5.832735e-01
5.835996e-01
5.832722e-01
5.823479e-01
5.809802e-01
5.794485e-01
5.778842e-01
5.761302e-01
5.741557e-01
0.000000e+00
1.000000e+00
5.755060e-01
5.773698e-01
5.798790e-01
5.824169e-01
5.848248e-01
5.868501e-01
5.882166e-01
5.887031e-01
5.882229e-01
5.868615e-01
5.848682e-01
5.826098e-01
5.801673e-01
5.775795e-01
5.746228e-01
0.000000e+00
1.000000e+00
5.763991e-01
5.790325e-01
5.825042e-01
5.860115e-01
5.893393e-01
5.921386e-01
5.940288e-01
5.947053e-01
5.940495e-01
5.921850e-01
5.894829e-01
5.862993e-01
5.828394e-01
5.792751e-01
5.754221e-01
0.000000e+00
1.000000e+00
5.773980e-01
5.809086e-01
5.854678e-01
5.900688e-01
5.944348e-01
5.981085e-01
6.005908e-01
6.014830e-01
6.006308e-01
5.982004e-01
5.946879e-01
5.904154e-01
5.858406e-01
5.811907e-01
5.763296e-01
0.000000e+00
1.000000e+00
5.784818e-01
5.829156e-01
5.886424e-01
5.944151e-01
5.998936e-01
6.045046e-01
6.076229e-01
6.087483e-01
6.076877e-01
6.046548e-01
6.002518e-01
5.948443e-01
5.890394e-01
5.832322e-01
5.773030e-01
0.000000e+00
1.000000e+00
5.796137e-01
5.849355e-01
5.918518e-01
5.988101e-01
6.054145e-01
6.109747e-01
6.147385e-01
6.161028e-01
6.148355e-01
6.111989e-01
6.058748e-01
5.993364e-01
5.922680e-01
5.852871e-01
5.782868e-01
0.000000e+00
1.000000e+00
5.806747e-01
5.868375e-01
5.948801e-01
6.029569e-01
6.106235e-01
6.170809e-01
6.214569e-01
6.230524e-01
6.215967e-01
6.173876e-01
6.111725e-01
6.035850e-01
5.953143e-01
5.872191e-01
5.792091e-01
0.000000e+00
1.000000e+00
5.815886e-01
5.884874e-01
5.974986e-01
6.065387e-01
6.151193e-01
6.223477e-01
6.272510e-01
6.290514e-01
6.274435e-01
6.227277e-01
6.157217e-01
6.072641e-01
5.979488e-01
5.888757e-01
5.800014e-01
0.000000e+00
1.000000e+00
5.823446e-01
5.897102e-01
5.994678e-01
6.092309e-01
6.184970e-01
6.263056e-01
6.316100e-01
6.335756e-01
6.318711e-01
6.267580e-01
6.191510e-01
6.100178e-01
5.999615e-01
5.901237e-01
5.805914e-01
0.000000e+00
1.000000e+00
5.828476e-01
5.903973e-01
6.006121e-01
6.107944e-01
6.204596e-01
6.286082e-01
6.341514e-01
6.362212e-01
6.344672e-01
6.291114e-01
6.211702e-01
6.115745e-01
6.011254e-01
5.908246e-01
5.809750e-01
0.000000e+00
1.000000e+00
5.830047e-01
5.904944e-01
6.008256e-01
6.110864e-01
6.208281e-01
6.290448e-01
6.346383e-01
6.367342e-01
6.349737e-01
6.295659e-01
6.215451e-01
6.118654e-01
6.012816e-01
5.909680e-01
5.810471e-01
0.000000e+00
1.000000e+00
5.827513e-01
5.900103e-01
6.000927e-01
6.100845e-01
6.195727e-01
6.275759e-01
6.330220e-01
6.350578e-01
6.333419e-01
6.280938e-01
6.202537e-01
6.108272e-01
6.004938e-01
5.905320e-01
5.806496e-01
0.000000e+00
1.000000e+00
5.821471e-01
5.889904e-01
5.984762e-01
6.078748e-01
6.167997e-01
6.243250e-01
6.294392e-01
6.313373e-01
6.297189e-01
6.248248e-01
6.174121e-01
6.085070e-01
5.988478e-01
5.895132e-01
5.800822e-01
0.000000e+00
1.000000e+00
5.812732e-01
5.875165e-01
5.961030e-01
6.046296e-01
6.127251e-01
6.195475e-01
6.241769e-01
6.258788e-01
6.243979e-01
6.199885e-01
6.132537e-01
6.051543e-01
5.964601e-01
5.880175e-01
5.793034e-01
0.000000e+00
1.000000e+00
5.801745e-01
5.856868e-01
5.931427e-01
6.005771e-01
6.076347e-01
6.135801e-01
6.176099e-01
6.190812e-01
6.177684e-01
6.139369e-01
6.080923e-01
6.010134e-01
5.935014e-01
5.861338e-01
5.784955e-01
0.000000e+00
1.000000e+00
5.789818e-01
5.835819e-01
5.897755e-01
5.959673e-01
6.018440e-01
6.067919e-01
6.101424e-01