<?xml version="1.0"?>
<VTKFile type="StructuredGrid" version="0.1">
  <StructuredGrid WholeExtent="0 16 0 16 0 16">
    <Piece Extent="0 16 0 16 0 16">
      <PointData Scalars="temperature" Vectors="velocity">
        <DataArray type="Float32" Name="temperature" format="ascii">
1.000000e+00
5.730748e-01
5.730243e-01
5.730414e-01
5.730556e-01
5.730689e-01
5.730802e-01
5.730877e-01
5.730904e-01
5.730879e-01
5.730805e-01
5.730694e-01
5.730564e-01
5.730419e-01
5.730456e-01
5.728275e-01
0.000000e+00
1.000000e+00
5.729492e-01
5.728104e-01
5.727072e-01
5.725975e-01
5.724934e-01
5.724060e-01
5.723471e-01
5.723262e-01
5.723470e-01
5.724058e-01
5.724934e-01
5.725983e-01
5.727060e-01
5.729218e-01
5.723018e-01
0.000000e+00
1.000000e+00
5.727319e-01
5.723537e-01
5.719902e-01
5.716156e-01
5.712604e-01
5.709619e-01
5.707608e-01
5.706895e-01
5.707604e-01
5.709614e-01
5.712610e-01
5.716189e-01
5.719889e-01
5.724731e-01
5.723933e-01
0.000000e+00
1.000000e+00
5.723868e-01
5.716347e-01
5.708626e-01
5.700718e-01
5.693220e-01
5.686919e-01
5.682675e-01
5.681172e-01
5.682677e-01
5.686933e-01
5.693270e-01
5.700816e-01
5.708674e-01
5.716947e-01
5.722352e-01
0.000000e+00
1.000000e+00
5.719090e-01
5.706510e-01
5.693213e-01
5.679614e-01
5.666721e-01
5.655887e-01
5.648590e-01
5.646011e-01
5.648610e-01
5.655940e-01
5.666840e-01
5.679795e-01
5.693348e-01
5.706992e-01
5.717628e-01
0.000000e+00
1.000000e+00
5.713062e-01
5.694187e-01
5.673910e-01
5.653185e-01
5.633534e-01
5.617026e-01
5.605911e-01
5.601990e-01
5.605960e-01
5.617135e-01
5.633735e-01
5.653465e-01
5.674132e-01
5.694640e-01
5.711806e-01
0.000000e+00
1.000000e+00
5.706077e-01
5.679745e-01
5.651298e-01
5.622224e-01
5.594659e-01
5.571505e-01
5.555920e-01
5.550428e-01
5.556008e-01
5.571685e-01
5.594952e-01
5.622613e-01
5.651611e-01
5.680222e-01
5.704917e-01
0.000000e+00
1.000000e+00
5.698383e-01
5.663765e-01
5.626281e-01
5.587970e-01
5.551649e-01
5.521143e-01
5.500615e-01
5.493389e-01
5.500749e-01
5.521408e-01
5.552035e-01
5.588476e-01
5.626679e-01
5.664272e-01
5.697323e-01
0.000000e+00
1.000000e+00
5.690311e-01
5.646991e-01
5.600022e-01
5.552015e-01
5.506504e-01
5.468284e-01
5.442568e-01
5.433524e-01
5.442751e-01
5.468645e-01
5.506983e-01
5.552639e-01
5.600500e-01
5.647546e-01
5.689326e-01
0.000000e+00
1.000000e+00
5.682268e-01
5.630264e-01
5.573837e-01
5.516164e-01
5.461491e-01
5.415580e-01
5.384694e-01
5.373836e-01
5.384922e-01
5.416034e-01
5.462051e-01
5.516906e-01
5.574382e-01
5.630852e-01
5.681387e-01
0.000000e+00
1.000000e+00
5.674668e-01
5.614438e-01
5.549061e-01
5.482241e-01
5.418901e-01
5.365713e-01
5.329935e-01
5.317359e-01
5.330202e-01
5.366237e-01
5.419540e-01
5.483088e-01
5.549653e-01
5.615058e-01
5.673860e-01
0.000000e+00
1.000000e+00
5.667871e-01
5.600279e-01
5.526895e-01
5.451895e-01
5.380802e-01
5.321107e-01
5.280951e-01
5.266836e-01
5.281249e-01
5.321676e-01
5.381513e-01
5.452831e-01
5.527520e-01
5.600909e-01
5.667165e-01
0.000000e+00
1.000000e+00
5.662173e-01
5.588401e-01
5.508300e-01
5.426440e-01
5.348845e-01
5.283691e-01
5.239861e-01
5.224452e-01
5.240180e-01
5.284286e-01
5.349605e-01
5.427445e-01
5.508955e-01
5.589057e-01
5.661538e-01
0.000000e+00
1.000000e+00
5.657764e-01
5.579216e-01
5.493919e-01
5.406754e-01
5.324133e-01
5.254757e-01
5.208084e-01
5.191671e-01
5.208411e-01
5.255360e-01
5.324918e-01
5.407792e-01
5.494603e-01
5.579887e-01
5.657172e-01
0.000000e+00
1.000000e+00
5.654733e-01
5.572917e-01
5.484057e-01
5.393257e-01
5.307190e-01
5.234918e-01
5.186294e-01
5.169189e-01
5.186618e-01
5.235514e-01
5.307981e-01
5.394281e-01
5.484777e-01
5.573619e-01
5.654186e-01
0.000000e+00
1.000000e+00
5.653070e-01
5.569503e-01
5.478709e-01
5.385938e-01
5.298003e-01
5.224161e-01
5.174476e-01
5.156991e-01
5.174789e-01
5.224733e-01
5.298766e-01
5.386927e-01
5.479436e-01
5.570284e-01
5.652663e-01
0.000000e+00
1.000000e+00
5.652518e-01
5.568760e-01
5.477585e-01
5.384407e-01
5.296092e-01
5.221935e-01
5.172043e-01
5.154488e-01
5.172367e-01
5.222529e-01
5.296876e-01
5.385437e-01
5.478363e-01
5.569723e-01
5.652387e-01
0.000000e+00
1.000000e+00
5.731547e-01
5.732361e-01
5.733757e-01
5.735126e-01
5.736424e-01
5.737514e-01
5.738247e-01
5.738505e-01
5.738243e-01
5.737506e-01
5.736417e-01
5.735135e-01
5.733772e-01
5.732388e-01
5.729035e-01
0.000000e+00
1.000000e+00
5.729443e-01
5.727951e-01
5.726825e-01
5.725637e-01
5.724510e-01
5.723562e-01
5.722923e-01
5.722696e-01
5.722920e-01
5.723558e-01
5.724511e-01
5.725680e-01
5.726854e-01
5.728704e-01
5.723062e-01
0.000000e+00
1.000000e+00
5.725912e-01
5.720824e-01
5.715648e-01
5.710330e-01
5.705288e-01
5.701050e-01
5.698194e-01
5.697181e-01
5.698192e-01
5.701053e-01
5.705311e-01
5.710434e-01
5.715718e-01
5.721627e-01
5.721859e-01
0.000000e+00
1.000000e+00
5.721119e-01
5.710832e-01
5.699988e-01
5.688888e-01
5.678363e-01
5.669519e-01
5.663561e-01
5.661455e-01
5.663575e-01
5.669557e-01
5.678450e-01
5.689046e-01
5.700129e-01
5.711400e-01
5.719203e-01
0.000000e+00
1.000000e+00
5.715026e-01
5.698014e-01
5.679914e-01
5.661405e-01
5.643856e-01
5.629112e-01
5.619185e-01
5.615681e-01
5.619230e-01
5.629210e-01
5.644026e-01
5.661634e-01
5.680130e-01
5.698503e-01
5.713087e-01
0.000000e+00
1.000000e+00
5.707579e-01
5.682650e-01
5.655857e-01
5.628466e-01
5.602497e-01
5.580684e-01
5.566000e-01
5.560826e-01
5.566083e-01
5.580846e-01
5.602751e-01
5.628789e-01
5.656150e-01
5.683142e-01
5.705992e-01
0.000000e+00
1.000000e+00
5.699192e-01
5.665247e-01
5.628615e-01
5.591166e-01
5.555663e-01
5.525844e-01
5.505778e-01
5.498713e-01
5.505904e-01
5.526080e-01
5.556004e-01
5.591604e-01
5.629000e-01
5.665770e-01
5.697767e-01
0.000000e+00
1.000000e+00
5.690175e-01
5.646548e-01
5.599349e-01
5.551093e-01
5.505348e-01
5.466933e-01
5.441086e-01
5.431994e-01
5.441267e-01
5.467264e-01
5.505777e-01
5.551668e-01
5.599825e-01
5.647123e-01
5.688909e-01
0.000000e+00
1.000000e+00
5.681039e-01
5.627472e-01
5.569496e-01
5.510218e-01
5.454027e-01
5.406844e-01
5.375104e-01
5.363946e-01
5.375340e-01
5.407290e-01
5.454529e-01
5.510934e-01
5.570057e-01
5.628110e-01
5.679854e-01
0.000000e+00
1.000000e+00
5.672179e-01
5.609018e-01
5.540616e-01
5.470675e-01
5.404381e-01
5.348718e-01
5.311279e-01
5.298121e-01
5.311564e-01
5.349276e-01
5.404956e-01
5.471526e-01
5.541248e-01
5.609711e-01
5.671120e-01
0.000000e+00
1.000000e+00
5.664076e-01
5.592156e-01
5.514223e-01
5.434540e-01
5.359013e-01
5.295604e-01
5.252954e-01
5.237965e-01
5.253279e-01
5.296238e-01
5.359674e-01
5.435511e-01
5.514905e-01
5.592909e-01
5.663100e-01
0.000000e+00
1.000000e+00
5.657135e-01
5.577712e-01
5.491614e-01
5.403586e-01
5.320153e-01
5.250105e-01
5.202990e-01
5.186431e-01
5.203343e-01
5.250783e-01
5.320892e-01
5.404661e-01
5.492335e-01
5.578528e-01
5.656240e-01
0.000000e+00
1.000000e+00
5.651643e-01
5.566294e-01
5.473737e-01
5.379114e-01
5.289431e-01
5.214134e-01
5.163485e-01
5.145680e-01
5.163854e-01
5.214829e-01
5.290222e-01
5.380258e-01
5.474486e-01
5.567186e-01
5.650877e-01
0.000000e+00
1.000000e+00
5.647760e-01
5.558247e-01
5.461134e-01
5.361864e-01
5.267774e-01
5.188774e-01
5.135631e-01
5.116944e-01
5.136005e-01
5.189469e-01
5.268602e-01
5.363022e-01
5.461907e-01
5.559289e-01
5.647229e-01
0.000000e+00
1.000000e+00
5.645531e-01
5.553656e-01
5.453936e-01
5.352013e-01
5.255408e-01
5.174293e-01
5.119721e-01
5.100526e-01
5.120089e-01
5.174969e-01
5.256264e-01
5.353110e-01
5.454712e-01
5.554733e-01
5.645452e-01
0.000000e+00
1.000000e+00
5.644857e-01
5.552376e-01
5.451918e-01
5.349257e-01
5.251950e-01
5.170242e-01
5.115268e-01
5.095926e-01
5.115627e-01
5.170897e-01
5.252800e-01
5.350291e-01
5.452694e-01
5.553404e-01
5.644600e-01
0.000000e+00
1.000000e+00
5.646130e-01
5.554043e-01
5.454610e-01
5.352951e-01
5.256596e-01
5.175685e-01
5.121243e-01
5.102081e-01
5.121580e-01
5.176306e-01
5.257415e-01
5.353971e-01
5.455452e-01
5.554963e-01
5.644799e-01
0.000000e+00
1.000000e+00
5.733815e-01
5.736898e-01
5.740858e-01
5.744853e-01
5.748641e-01
5.751823e-01
5.753966e-01
5.754721e-01
5.753955e-01
5.751803e-01
5.748621e-01
5.744862e-01
5.740943e-01
5.736988e-01
5.732946e-01
0.000000e+00
1.000000e+00
5.730530e-01
5.730163e-01
5.730285e-01
5.730376e-01
5.730460e-01
5.730531e-01
5.730577e-01
5.730589e-01
5.730565e-01
5.730512e-01
5.730447e-01
5.730436e-01
5.730343e-01
5.730461e-01
5.727534e-01
0.000000e+00
1.000000e+00
5.725733e-01
5.720408e-01
5.714981e-01
5.709420e-01
5.704147e-01
5.699714e-01
5.696727e-01
5.695667e-01
5.696725e-01
5.699719e-01
5.704186e-01
5.709590e-01
5.715100e-01
5.720815e-01
5.722796e-01
0.000000e+00
1.000000e+00
5.719368e-01
5.707516e-01
5.694784e-01
5.681761e-01
5.669412e-01
5.659035e-01
5.652045e-01
5.649575e-01
5.652069e-01
5.659088e-01
5.669544e-01
5.681969e-01
5.694972e-01
5.707884e-01
5.717634e-01
0.000000e+00
1.000000e+00
5.711806e-01
5.691598e-01
5.669871e-01
5.647651e-01
5.626583e-01
5.608885e-01
5.596970e-01
5.592769e-01
5.597036e-01
5.609008e-01
5.626819e-01
5.647917e-01
5.670125e-01
5.691997e-01
5.709919e-01
0.000000e+00
1.000000e+00
5.703035e-01
5.673065e-01
5.640865e-01
5.607938e-01
5.576721e-01
5.550503e-01
5.532859e-01
5.526648e-01
5.532978e-01
5.550704e-01
5.577058e-01
5.608297e-01
5.641201e-01
5.673539e-01
5.701295e-01
0.000000e+00
1.000000e+00
5.693235e-01
5.652595e-01
5.608824e-01
5.564069e-01
5.521643e-01
5.486014e-01
5.462043e-01
5.453610e-01
5.462212e-01
5.486291e-01
5.522066e-01
5.564544e-01
5.609258e-01
5.653130e-01
5.691689e-01
0.000000e+00
1.000000e+00
5.682937e-01
5.631111e-01
5.575202e-01
5.518033e-01
5.463842e-01
5.418339e-01
5.387727e-01
5.376962e-01
5.387949e-01
5.418708e-01
5.464340e-01
5.518650e-01
5.575714e-01
5.631703e-01
5.681583e-01
0.000000e+00
1.000000e+00
5.672656e-01
5.609716e-01
5.541725e-01
5.472198e-01
5.406298e-01
5.350969e-01
5.313752e-01
5.300667e-01
5.314028e-01
5.351457e-01
5.406862e-01
5.472973e-01
5.542310e-01
5.610355e-01
5.671477e-01
0.000000e+00
1.000000e+00
5.663076e-01
5.589580e-01
5.510223e-01
5.429067e-01
5.352153e-01
5.287580e-01
5.244148e-01
5.228881e-01
5.244473e-01
5.288187e-01
5.352784e-01
5.429993e-01
5.510884e-01
5.590266e-01
5.661981e-01
0.000000e+00
1.000000e+00
5.654547e-01
5.571791e-01
5.482391e-01
5.390964e-01
5.304320e-01
5.231582e-01
5.182657e-01
5.165459e-01
5.183020e-01
5.232278e-01
5.305025e-01
5.392029e-01
5.483133e-01
5.572520e-01
5.653576e-01
0.000000e+00
1.000000e+00
5.647536e-01
5.557229e-01
5.459606e-01
5.359771e-01
5.265161e-01
5.185734e-01
5.132309e-01
5.113526e-01
5.132698e-01
5.186484e-01
5.265930e-01
5.360939e-01
5.460432e-01
5.558017e-01
5.646674e-01
0.000000e+00
1.000000e+00
5.642337e-01
5.546480e-01
5.442779e-01
5.336736e-01
5.236240e-01
5.151870e-01
5.095116e-01
5.075160e-01
5.095519e-01
5.152640e-01
5.237067e-01
5.337944e-01
5.443670e-01
5.547389e-01
5.641555e-01
0.000000e+00
1.000000e+00
5.639077e-01
5.539800e-01
5.432309e-01
5.322404e-01
5.218245e-01
5.130794e-01
5.071964e-01
5.051275e-01
5.072370e-01
5.131559e-01
5.219129e-01
5.323575e-01
5.433209e-01
5.540960e-01
5.638150e-01
0.000000e+00
1.000000e+00
5.637726e-01
5.537135e-01
5.428115e-01
5.316666e-01
5.211036e-01
5.122346e-01
5.062679e-01
5.041691e-01
5.063080e-01
5.123089e-01
5.211971e-01
5.317716e-01
5.428954e-01
5.538400e-01
5.636666e-01
0.000000e+00
1.000000e+00
5.638128e-01
5.538187e-01
5.429728e-01
5.318875e-01
5.213808e-01
5.125586e-01
5.066230e-01
5.045349e-01
5.066624e-01
5.126304e-01
5.214737e-01
5.319871e-01
5.430632e-01
5.539227e-01
5.637473e-01
0.000000e+00
1.000000e+00
5.640696e-01
5.542426e-01
5.436424e-01
5.328052e-01
5.225333e-01
5.139081e-01
5.081047e-01
5.060622e-01
5.081413e-01
5.139758e-01
5.226230e-01
5.329088e-01
5.437340e-01
5.543141e-01
5.639586e-01
0.000000e+00
1.000000e+00
5.737322e-01
5.744009e-01
5.752003e-01
5.760113e-01
5.767804e-01
5.774266e-01
5.778618e-01
5.780155e-01
5.778603e-01
5.774237e-01
5.767776e-01
5.760155e-01
5.752203e-01
5.744232e-01
5.735926e-01
0.000000e+00
1.000000e+00
5.732857e-01
5.734985e-01
5.737840e-01
5.740719e-01
5.743448e-01
5.745741e-01
5.747284e-01
5.747824e-01
5.747263e-01
5.745704e-01
5.743418e-01
5.740790e-01
5.737966e-01
5.735241e-01
5.730867e-01
0.000000e+00
1.000000e+00
5.726881e-01
5.722623e-01
5.718442e-01
5.714161e-01
5.710100e-01
5.706686e-01
5.704384e-01
5.703564e-01
5.704373e-01
5.706672e-01
5.710129e-01
5.714397e-01
5.718597e-01
5.722909e-01
5.724966e-01
0.000000e+00
1.000000e+00
5.719060e-01
5.706841e-01
5.693711e-01
5.680295e-01
5.667573e-01
5.656883e-01
5.649683e-01
5.647139e-01
5.649708e-01
5.656938e-01
5.667728e-01
5.680604e-01
5.693970e-01
5.707092e-01
5.717938e-01
0.000000e+00
1.000000e+00
5.709851e-01
5.687833e-01
5.663961e-01
5.639556e-01
5.616415e-01
5.596975e-01
5.583889e-01
5.579278e-01
5.583971e-01
5.597121e-01
5.616690e-01
5.639900e-01
5.664304e-01
5.688131e-01
5.708598e-01
0.000000e+00
1.000000e+00
5.699572e-01
5.666121e-01
5.630002e-01
5.593060e-01
5.558038e-01
5.528627e-01
5.508839e-01
5.501882e-01
5.508991e-01
5.528864e-01
5.558429e-01
5.593487e-01
5.630406e-01
5.666516e-01
5.698162e-01
0.000000e+00
1.000000e+00
5.688488e-01
5.642586e-01
5.593175e-01
5.542641e-01
5.494741e-01
5.454522e-01
5.427469e-01
5.417961e-01
5.427680e-01
5.454834e-01
5.495229e-01
5.543187e-01
5.593640e-01
5.643081e-01
5.686910e-01
0.000000e+00
1.000000e+00
5.676996e-01
5.618356e-01
5.555253e-01
5.490723e-01
5.429563e-01
5.378214e-01
5.343674e-01
5.331530e-01
5.343929e-01
5.378594e-01
5.430132e-01
5.491412e-01
5.555766e-01
5.618926e-01
5.675501e-01
0.000000e+00
1.000000e+00
5.665720e-01
5.594730e-01
5.518279e-01
5.440103e-01
5.366013e-01
5.303810e-01
5.261969e-01
5.247257e-01
5.262273e-01
5.304296e-01
5.366664e-01
5.440954e-01
5.518851e-01
5.595361e-01
5.664343e-01
0.000000e+00
1.000000e+00
5.655348e-01
5.573033e-01
5.484339e-01
5.393642e-01
5.307694e-01
5.235537e-01
5.186999e-01
5.169931e-01
5.187347e-01
5.236138e-01
5.308414e-01
5.394658e-01
5.485005e-01
5.573741e-01
5.654094e-01
0.000000e+00
1.000000e+00
5.646581e-01
5.554474e-01
5.455313e-01
5.353914e-01
5.257829e-01
5.177159e-01
5.122892e-01
5.103808e-01
5.123274e-01
5.177856e-01
5.258598e-01
5.355070e-01
5.456092e-01
5.555254e-01
5.645287e-01
0.000000e+00
1.000000e+00
5.639607e-01
5.539974e-01
5.432638e-01
5.322876e-01
5.218865e-01
5.131540e-01
5.072794e-01
5.052132e-01
5.073201e-01
5.132305e-01
5.219675e-01
5.324107e-01
5.433543e-01
5.540827e-01
5.638363e-01
0.000000e+00
1.000000e+00
5.634763e-01
5.530079e-01
5.417158e-01
5.301682e-01
5.192252e-01
5.100376e-01
5.038567e-01
5.016826e-01
5.038989e-01
5.101176e-01
5.193116e-01
5.302883e-01
5.418176e-01
5.531009e-01
5.633507e-01
0.000000e+00
1.000000e+00
5.632162e-01
5.524939e-01
5.409097e-01
5.290640e-01
5.178379e-01
5.084124e-01
5.020713e-01
4.998407e-01
5.021140e-01
5.084928e-01
5.179315e-01
5.291719e-01
5.410135e-01
5.525949e-01
5.631015e-01
0.000000e+00
1.000000e+00
5.631703e-01
5.524340e-01
5.408124e-01
5.289302e-01
5.176689e-01
5.082136e-01
5.018524e-01
4.996147e-01
5.018950e-01
5.082926e-01
5.177680e-01
5.290279e-01
5.409089e-01
5.525306e-01
5.630680e-01
0.000000e+00
1.000000e+00
5.633297e-01
5.527803e-01
5.413501e-01
5.296659e-01
5.185918e-01
5.092936e-01
5.030379e-01
5.008375e-01
5.030801e-01
5.093705e-01
5.186889e-01
5.297692e-01
5.414507e-01
5.528657e-01
5.632489e-01
0.000000e+00
1.000000e+00
5.637028e-01
5.534631e-01
5.424236e-01
5.311366e-01
5.204389e-01
5.114564e-01
5.054130e-01
5.032869e-01
5.054532e-01
5.115298e-01
5.205339e-01
5.312541e-01
5.425187e-01
5.535335e-01
5.635860e-01
0.000000e+00
1.000000e+00
5.742097e-01
5.753706e-01
5.767206e-01
5.780931e-01
5.793946e-01
5.804884e-01
5.812252e-01
5.814857e-01
5.812238e-01
5.804857e-01
5.793936e-01
5.781081e-01
5.767585e-01
5.754039e-01
5.740828e-01
0.000000e+00
1.000000e+00
5.736561e-01
5.742523e-01
5.749651e-01
5.756893e-01
5.763759e-01
5.769529e-01
5.773414e-01
5.774783e-01
5.773389e-01
5.769482e-01
5.763716e-01
5.756983e-01
5.749937e-01
5.742863e-01
5.735072e-01
0.000000e+00
1.000000e+00
5.729284e-01
5.727676e-01
5.726355e-01
5.724994e-01
5.723703e-01
5.722617e-01
5.721883e-01
5.721618e-01
5.721866e-01
5.722587e-01
5.723722e-01
5.725249e-01
5.726594e-01
5.728001e-01
5.728163e-01
0.000000e+00
1.000000e+00
5.720246e-01
5.709134e-01
5.697295e-01
5.685205e-01
5.673740e-01
5.664106e-01
5.657619e-01
5.655325e-01
5.657634e-01
5.664151e-01
5.673912e-01
5.685601e-01
5.697614e-01
5.709402e-01
5.719737e-01
0.000000e+00
1.000000e+00
5.709501e-01
5.687182e-01
5.662915e-01
5.638125e-01
5.614618e-01
5.594873e-01
5.581584e-01
5.576907e-01
5.581670e-01
5.595038e-01
5.614931e-01
5.638548e-01
5.663342e-01
5.687447e-01
5.709191e-01
0.000000e+00
1.000000e+00
5.697663e-01
5.662450e-01
5.624238e-01
5.585163e-01
5.548117e-01
5.517009e-01
5.496083e-01
5.488733e-01
5.496251e-01
5.517283e-01
5.548553e-01
5.585659e-01
5.624702e-01
5.662770e-01
5.697182e-01
0.000000e+00
1.000000e+00
5.685188e-01
5.635996e-01
5.582870e-01
5.528524e-01
5.477016e-01
5.433774e-01
5.404697e-01
5.394487e-01
5.404935e-01
5.434121e-01
5.477570e-01
5.529160e-01
5.583388e-01
5.636423e-01
5.684262e-01
0.000000e+00
1.000000e+00
5.672658e-01
5.609182e-01
5.540911e-01
5.471089e-01
5.404924e-01
5.349381e-01
5.312027e-01
5.298897e-01
5.312300e-01
5.349766e-01
5.405576e-01
5.471892e-01
5.541483e-01
5.609707e-01
5.671337e-01
0.000000e+00
1.000000e+00
5.660626e-01
5.583518e-01
5.500736e-01
5.416100e-01
5.335897e-01
5.268563e-01
5.223267e-01
5.207330e-01
5.223570e-01
5.269014e-01
5.336624e-01
5.417073e-01
5.501364e-01
5.584133e-01
5.659003e-01
0.000000e+00
1.000000e+00
5.649687e-01
5.560482e-01
5.464681e-01
5.366752e-01
5.273950e-01
5.196034e-01
5.143614e-01
5.125172e-01
5.143964e-01
5.196596e-01
5.274739e-01
5.367895e-01
5.465393e-01
5.561172e-01
5.648044e-01
0.000000e+00
1.000000e+00
5.640678e-01
5.541372e-01
5.434784e-01
5.325841e-01
5.222597e-01
5.135907e-01
5.077581e-01
5.057061e-01
5.077965e-01
5.136563e-01
5.223416e-01
5.327110e-01
5.435615e-01
5.542098e-01
5.638989e-01
0.000000e+00
1.000000e+00
5.633997e-01
5.527128e-01
5.412509e-01
5.295356e-01
5.184327e-01
5.091096e-01
5.028369e-01
5.006297e-01
5.028776e-01
5.091826e-01
5.185174e-01
5.296666e-01
5.413511e-01
5.527875e-01
5.632198e-01
0.000000e+00
1.000000e+00
5.629481e-01
5.518215e-01
5.398608e-01
5.276315e-01
5.160415e-01
5.063095e-01
4.997617e-01
4.974578e-01
4.998042e-01
5.063878e-01
5.161320e-01
5.277536e-01
5.399784e-01
5.519031e-01
5.627983e-01
0.000000e+00
1.000000e+00
5.627445e-01
5.514697e-01
5.393100e-01
5.268755e-01
5.150912e-01
5.051964e-01
4.985391e-01
4.961968e-01
4.985826e-01
5.052776e-01
5.151896e-01
5.269809e-01
5.394287e-01
5.515651e-01
5.626279e-01
0.000000e+00
1.000000e+00
5.628001e-01
5.516184e-01
5.395393e-01
5.271879e-01
5.154822e-01
5.056537e-01
4.990414e-01
4.967153e-01
4.990855e-01
5.057361e-01
5.155841e-01
5.272897e-01
5.396515e-01
5.517142e-01
5.627004e-01
0.000000e+00
1.000000e+00
5.630648e-01
5.522015e-01
5.404475e-01
5.284305e-01
5.170416e-01
5.074793e-01
5.010463e-01
4.987838e-01
5.010905e-01
5.075608e-01
5.171396e-01
5.285482e-01
5.405574e-01
5.522820e-01
5.629872e-01
0.000000e+00
1.000000e+00
5.635582e-01
5.531348e-01
5.419104e-01
5.304340e-01
5.195573e-01
5.104248e-01
5.042810e-01
5.021204e-01
5.043240e-01
5.105034e-01
5.196550e-01
5.305669e-01
5.419970e-01
5.532108e-01
5.634093e-01
0.000000e+00
1.000000e+00
5.748056e-01
5.765817e-01
5.786199e-01
5.806938e-01
5.826606e-01
5.843134e-01
5.854271e-01
5.858216e-01
5.854269e-01
5.843137e-01
5.826686e-01
5.807283e-01
5.786721e-01
5.766266e-01
5.746544e-01
0.000000e+00
1.000000e+00
5.741562e-01
5.752685e-01
5.765580e-01
5.778705e-01
5.791152e-01
5.801612e-01
5.808658e-01
5.811147e-01
5.808635e-01
5.801568e-01
5.791128e-01
5.778901e-01
5.766082e-01
5.753155e-01
5.739813e-01
0.000000e+00
1.000000e+00
5.733122e-01
5.735588e-01
5.738749e-01
5.741965e-01
5.745016e-01
5.747580e-01
5.749305e-01
5.749909e-01
5.749280e-01
5.747531e-01
5.745015e-01
5.742219e-01
5.739143e-01
5.736029e-01
5.731959e-01
0.000000e+00
1.000000e+00
5.722915e-01
5.714539e-01
5.705761e-01
5.696797e-01
5.688298e-01
5.681156e-01
5.676345e-01
5.674643e-01
5.676353e-01
5.681185e-01
5.688489e-01
5.697273e-01
5.706147e-01
5.714902e-01
5.722204e-01
0.000000e+00
1.000000e+00
5.710900e-01
5.689922e-01
5.667197e-01
5.643991e-01
5.621989e-01
5.603506e-01
5.591065e-01
5.586688e-01
5.591145e-01
5.603671e-01
5.622352e-01
5.644477e-01
5.667717e-01
5.690275e-01
5.710591e-01
0.000000e+00
1.000000e+00
5.697618e-01
5.662499e-01
5.624280e-01
5.585219e-01
5.548185e-01
5.517086e-01
5.496173e-01
5.488834e-01
5.496347e-01
5.517381e-01
5.548690e-01
5.585752e-01
5.624822e-01
5.662841e-01
5.697510e-01
0.000000e+00
1.000000e+00
5.683807e-01
5.633457e-01
5.578880e-01
5.523054e-01
5.470143e-01
5.425727e-01
5.395868e-01
5.385390e-01
5.396111e-01
5.426096e-01
5.470787e-01
5.523724e-01
5.579448e-01
5.633872e-01
5.683497e-01
0.000000e+00
1.000000e+00
5.670176e-01
5.604368e-01
5.533392e-01
5.460790e-01
5.391998e-01
5.334260e-01
5.295437e-01
5.281794e-01
5.295707e-01
5.334658e-01
5.392751e-01
5.461656e-01
5.533994e-01
5.604865e-01
5.669433e-01
0.000000e+00
1.000000e+00
5.657543e-01
5.576964e-01
5.490493e-01
5.402095e-01
5.318337e-01
5.248019e-01
5.200712e-01
5.184059e-01
5.200989e-01
5.248452e-01
5.319146e-01
5.403158e-01
5.491154e-01
5.577563e-01
5.656028e-01
0.000000e+00
1.000000e+00
5.646518e-01
5.552917e-01
5.452789e-01
5.350501e-01
5.253558e-01
5.172149e-01
5.117372e-01
5.098090e-01
5.117694e-01
5.172673e-01
5.254401e-01
5.351719e-01
5.453516e-01
5.553550e-01
5.644430e-01
0.000000e+00
1.000000e+00
5.637610e-01
5.533589e-01
5.422412e-01
5.308918e-01
5.201344e-01
5.111007e-01
5.050224e-01
5.028833e-01
5.050592e-01
5.111631e-01
5.202223e-01
5.310251e-01
5.423250e-01
5.534134e-01
5.635289e-01
0.000000e+00
1.000000e+00
5.631639e-01
5.519835e-01
5.400824e-01
5.279360e-01
5.164226e-01
5.067544e-01
5.002490e-01
4.979591e-01
5.002883e-01
5.068248e-01
5.165132e-01
5.280716e-01
5.401832e-01
5.520300e-01
5.628750e-01
0.000000e+00
1.000000e+00
5.626912e-01
5.511896e-01
5.388626e-01
5.262654e-01
5.143253e-01
5.042990e-01
4.975527e-01
4.951784e-01
4.975949e-01
5.043768e-01
5.144228e-01
5.263928e-01
5.389797e-01
5.512569e-01
5.625062e-01
0.000000e+00
1.000000e+00
5.625449e-01
5.509933e-01
5.385651e-01
5.258567e-01
5.138122e-01
5.036988e-01
4.968942e-01
4.944999e-01
4.969384e-01
5.037818e-01
5.139164e-01
5.259725e-01
5.386845e-01
5.510822e-01
5.624088e-01
0.000000e+00
1.000000e+00
5.626809e-01
5.513394e-01
5.391063e-01
5.265965e-01
5.147409e-01
5.047866e-01
4.980896e-01
4.957337e-01
4.981344e-01
5.048715e-01
5.148440e-01
5.267151e-01
5.392258e-01
5.514281e-01
5.625800e-01
0.000000e+00
1.000000e+00
5.630633e-01
5.521436e-01
5.403601e-01
5.283113e-01
5.168928e-01
5.073059e-01
5.008567e-01
4.985888e-01
5.009019e-01
5.073907e-01
5.169900e-01
5.284432e-01
5.404677e-01
5.522255e-01
5.629791e-01
0.000000e+00
1.000000e+00
5.636414e-01
5.533046e-01
5.421762e-01
5.307978e-01
5.200143e-01
5.109607e-01
5.048704e-01
5.027294e-01
5.049151e-01
5.110436e-01
5.201127e-01
5.309383e-01
5.422608e-01
5.533973e-01
5.634370e-01
0.000000e+00
1.000000e+00
5.755024e-01
5.779958e-01
5.808385e-01
5.837317e-01
5.864754e-01
5.887814e-01
5.903357e-01
5.908869e-01
5.903382e-01
5.887889e-01
5.865006e-01
5.837859e-01
5.809020e-01
5.780502e-01
5.753398e-01
0.000000e+00
1.000000e+00
5.747701e-01
5.765154e-01
5.785133e-01
5.805480e-01
5.824775e-01
5.840993e-01
5.851921e-01
5.855791e-01
5.851915e-01
5.840982e-01
5.824859e-01
5.805902e-01
5.785835e-01
5.765741e-01
5.745801e-01
0.000000e+00
1.000000e+00
5.738290e-01
5.746139e-01
5.755280e-01
5.764602e-01
5.773443e-01
5.780874e-01
5.785879e-01
5.787644e-01
5.785854e-01
5.780820e-01
5.773432e-01
5.764890e-01
5.755916e-01
5.746711e-01
5.737192e-01
0.000000e+00
1.000000e+00
5.726939e-01
5.722957e-01
5.718943e-01
5.714847e-01
5.710965e-01
5.707707e-01
5.705515e-01
5.704739e-01
5.705515e-01
5.707716e-01
5.711148e-01
5.715342e-01
5.719441e-01
5.723419e-01
5.726226e-01
0.000000e+00
1.000000e+00
5.713957e-01
5.696087e-01
5.676855e-01
5.657220e-01
5.638604e-01
5.622968e-01
5.612443e-01
5.608735e-01
5.612510e-01
5.623121e-01
5.639030e-01
5.657765e-01
5.677468e-01
5.696549e-01
5.713284e-01
0.000000e+00
1.000000e+00
5.699547e-01
5.666433e-01
5.630421e-01
5.593634e-01
5.558757e-01
5.529470e-01
5.509770e-01
5.502856e-01
5.509938e-01
5.529757e-01
5.559328e-01
5.594193e-01
5.631071e-01
5.666848e-01
5.699167e-01
0.000000e+00
1.000000e+00
5.684613e-01
5.635313e-01
5.581747e-01
5.526978e-01
5.475064e-01
5.431486e-01
5.402195e-01
5.391918e-01
5.402442e-01
5.431863e-01
5.475781e-01
5.527647e-01
5.582378e-01
5.635745e-01
5.684357e-01
0.000000e+00
1.000000e+00
5.670000e-01
5.604432e-01
5.533480e-01
5.460902e-01
5.392135e-01
5.334423e-01
5.295621e-01
5.281981e-01
5.295883e-01
5.334835e-01
5.392974e-01
5.461756e-01
5.534112e-01
5.604916e-01
5.669549e-01
0.000000e+00
1.000000e+00
5.656653e-01
5.575690e-01
5.488536e-01
5.399420e-01
5.314989e-01
5.244109e-01
5.196424e-01
5.179627e-01
5.196674e-01
5.244553e-01
5.315894e-01
5.400473e-01
5.489215e-01
5.576293e-01
5.655450e-01
0.000000e+00
1.000000e+00
5.645698e-01
5.550991e-01
5.449746e-01
5.346352e-01
5.248353e-01
5.166053e-01
5.110665e-01
5.091152e-01
5.110956e-01
5.166567e-01
5.249275e-01
5.347540e-01
5.450457e-01
5.551587e-01
5.643378e-01
0.000000e+00
1.000000e+00
5.638582e-01
5.531847e-01
5.419329e-01
5.304677e-01
5.195999e-01
5.104738e-01
5.043324e-01
5.021703e-01
5.043682e-01
5.105365e-01
5.196963e-01
5.305966e-01
5.420075e-01
5.532127e-01
5.634248e-01
0.000000e+00
1.000000e+00
5.633350e-01
5.518704e-01
5.398641e-01
5.276343e-01
5.160424e-01
5.063086e-01
4.997588e-01
4.974532e-01
4.997983e-01
5.063808e-01
5.161430e-01
5.277681e-01
5.399495e-01
5.518887e-01
5.628019e-01
0.000000e+00
1.000000e+00
5.627719e-01
5.511760e-01
5.388184e-01
5.262041e-01
5.142476e-01
5.042076e-01
4.974521e-01
4.950746e-01
4.974945e-01
5.042870e-01
5.143533e-01
5.263312e-01
5.389186e-01
5.512307e-01
5.624936e-01
0.000000e+00
1.000000e+00
5.626298e-01
5.511196e-01
5.387595e-01
5.261243e-01
5.141488e-01
5.040929e-01
4.973269e-01
4.949462e-01
4.973707e-01
5.041764e-01
5.142558e-01
5.262475e-01
5.388683e-01
5.512040e-01
5.624480e-01
0.000000e+00
1.000000e+00
5.628610e-01
5.516431e-01
5.395821e-01
5.272489e-01
5.155610e-01
5.057474e-01
4.991451e-01
4.968226e-01
4.991896e-01
5.058329e-01
5.156633e-01
5.273820e-01
5.396940e-01
5.517279e-01
5.627070e-01
0.000000e+00
1.000000e+00
5.633111e-01
5.526384e-01
5.411360e-01
5.293738e-01
5.182273e-01
5.088692e-01
5.025742e-01
5.003609e-01
5.026195e-01
5.089552e-01
5.183236e-01
5.295120e-01
5.412362e-01
5.527328e-01
5.632012e-01
0.000000e+00
1.000000e+00
5.639562e-01
5.539911e-01
5.432505e-01
5.322681e-01
5.218603e-01
5.131226e-01
5.072455e-01
5.051802e-01
5.072909e-01
5.132080e-01
5.219582e-01
5.324096e-01
5.433350e-01
5.540994e-01
5.636750e-01
0.000000e+00
1.000000e+00
5.762709e-01
5.795543e-01
5.832851e-01
5.870817e-01
5.906823e-01
5.937088e-01
5.957491e-01
5.964737e-01
5.957559e-01
5.937274e-01
5.907280e-01
5.871508e-01
5.833572e-01
5.796210e-01
5.760777e-01
0.000000e+00
1.000000e+00
5.754724e-01
5.779385e-01
5.807461e-01
5.836052e-01
5.863168e-01
5.885960e-01
5.901324e-01
5.906773e-01
5.901345e-01
5.886025e-01
5.863463e-01
5.836722e-01
5.808289e-01
5.780086e-01
5.752572e-01
0.000000e+00
1.000000e+00
5.744546e-01
5.758844e-01
5.775197e-01
5.791875e-01
5.807693e-01
5.820988e-01
5.829946e-01
5.833115e-01
5.829931e-01
5.820951e-01
5.807765e-01
5.792342e-01
5.776092e-01
5.759565e-01
5.743188e-01
0.000000e+00
1.000000e+00
5.732310e-01
5.734006e-01
5.736245e-01
5.738540e-01
5.740719e-01
5.742554e-01
5.743792e-01
5.744228e-01
5.743781e-01
5.742534e-01
5.740862e-01
5.738981e-01
5.736924e-01
5.734597e-01
5.731604e-01
0.000000e+00
1.000000e+00
5.718442e-01
5.705411e-01
5.691458e-01
5.677214e-01
5.663713e-01
5.652376e-01
5.644751e-01
5.642068e-01
5.644810e-01
5.652511e-01
5.664182e-01
5.677817e-01
5.692157e-01
5.705976e-01
5.717791e-01
0.000000e+00
1.000000e+00
5.703320e-01
5.674095e-01
5.642422e-01
5.610071e-01
5.579403e-01
5.553651e-01
5.536328e-01
5.530245e-01
5.536488e-01
5.553936e-01
5.580026e-01
5.610659e-01
5.643203e-01
5.674625e-01
5.702855e-01
0.000000e+00
1.000000e+00
5.687600e-01
5.641515e-01
5.591429e-01
5.540242e-01
5.491723e-01
5.450992e-01
5.423610e-01
5.414002e-01
5.423856e-01
5.451361e-01
5.492470e-01
5.540894e-01
5.592150e-01
5.641967e-01
5.687530e-01
0.000000e+00
1.000000e+00
5.672310e-01
5.609471e-01
5.541323e-01
5.471638e-01
5.405607e-01
5.350189e-01
5.312930e-01
5.299838e-01
5.313197e-01
5.350611e-01
5.406488e-01
5.472420e-01
5.542000e-01
5.609916e-01
5.672311e-01
0.000000e+00
1.000000e+00
5.658401e-01
5.579942e-01
5.495186e-01
5.408512e-01
5.326396e-01
5.257456e-01
5.211077e-01
5.194749e-01
5.211333e-01
5.257921e-01
5.327369e-01
5.409457e-01
5.495869e-01
5.580469e-01
5.657835e-01
0.000000e+00
1.000000e+00
5.646907e-01
5.554904e-01
5.455957e-01
5.354847e-01
5.259015e-01
5.178539e-01
5.124377e-01
5.105294e-01
5.124665e-01
5.179072e-01
5.260022e-01
5.355920e-01
5.456649e-01
5.555466e-01
5.645399e-01
0.000000e+00
1.000000e+00
5.640714e-01
5.536039e-01
5.425908e-01
5.313680e-01
5.207299e-01
5.117968e-01
5.057854e-01
5.036687e-01
5.058210e-01
5.118612e-01
5.208346e-01
5.314846e-01
5.426598e-01
5.536276e-01
5.636272e-01
0.000000e+00
1.000000e+00
5.637016e-01
5.523729e-01
5.406326e-01
5.286864e-01
5.173631e-01
5.078547e-01
5.014570e-01
4.992052e-01
5.014965e-01
5.079279e-01
5.174708e-01
5.288075e-01
5.407072e-01
5.523771e-01
5.630330e-01
0.000000e+00
1.000000e+00
5.631515e-01
5.517899e-01
5.397588e-01
5.274915e-01
5.158638e-01
5.060998e-01
4.995299e-01
4.972176e-01
4.995711e-01
5.061779e-01
5.159722e-01
5.276106e-01
5.398439e-01
5.518223e-01
5.627774e-01
0.000000e+00
1.000000e+00
5.630196e-01
5.518600e-01
5.399116e-01
5.277025e-01
5.161307e-01
5.064138e-01
4.998759e-01
4.975753e-01
4.999183e-01
5.064956e-01
5.162364e-01
5.278279e-01
5.400110e-01
5.519345e-01
5.627832e-01
0.000000e+00
1.000000e+00
5.632834e-01
5.525308e-01
5.409701e-01
5.291492e-01
5.179470e-01
5.085416e-01
5.022142e-01
4.999887e-01
5.022577e-01
5.086258e-01
5.180472e-01
5.292852e-01
5.410678e-01
5.526158e-01
5.631054e-01
0.000000e+00
1.000000e+00
5.637988e-01
5.536787e-01
5.427643e-01
5.316027e-01
5.210257e-01
5.121460e-01
5.061733e-01