<?xml version="1.0"?>
<VTKFile type="StructuredGrid" version="0.1">
  <StructuredGrid WholeExtent="0 180 0 16 0 0">
    <Piece Extent="0 180 0 16 0 0">
      <PointData Scalars="temperature" Vectors="velocity">
        <DataArray type="Float32" Name="density" NumberOfComponents="4" format="ascii">
1.7077e+00 3.0356e-02 3.0356e-02 0.0000e+00
1.7074e+00 3.0396e-02 3.0396e-02 0.0000e+00
1.7071e+00 3.0439e-02 3.0439e-02 0.0000e+00
1.7068e+00 3.0483e-02 3.0483e-02 0.0000e+00
1.7065e+00 3.0528e-02 3.0528e-02 0.0000e+00
1.7062e+00 3.0576e-02 3.0576e-02 0.0000e+00
1.7059e+00 3.0625e-02 3.0625e-02 0.0000e+00
1.7056e+00 3.0675e-02 3.0675e-02 0.0000e+00
1.7052e+00 3.0726e-02 3.0726e-02 0.0000e+00
1.7049e+00 3.0779e-02 3.0779e-02 0.0000e+00
1.7045e+00 3.0833e-02 3.0833e-02 0.0000e+00
1.7042e+00 3.0887e-02 3.0887e-02 0.0000e+00
1.7038e+00 3.0943e-02 3.0943e-02 0.0000e+00
1.7035e+00 3.1000e-02 3.1000e-02 0.0000e+00
1.7031e+00 3.1057e-02 3.1057e-02 0.0000e+00
1.7027e+00 3.1115e-02 3.1115e-02 0.0000e+00
1.7024e+00 3.1175e-02 3.1175e-02 0.0000e+00
1.7020e+00 3.1234e-02 3.1234e-02 0.0000e+00
1.7016e+00 3.1295e-02 3.1295e-02 0.0000e+00
1.7012e+00 3.1355e-02 3.1355e-02 0.0000e+00
1.7008e+00 3.1417e-02 3.1417e-02 0.0000e+00
1.7004e+00 3.1479e-02 3.1479e-02 0.0000e+00
1.7000e+00 3.1542e-02 3.1542e-02 0.0000e+00
1.6996e+00 3.1604e-02 3.1604e-02 0.0000e+00
1.6992e+00 3.1668e-02 3.1668e-02 0.0000e+00
1.6988e+00 3.1732e-02 3.1732e-02 0.0000e+00
1.6984e+00 3.1796e-02 3.1796e-02 0.0000e+00
1.6980e+00 3.1861e-02 3.1861e-02 0.0000e+00
1.6976e+00 3.1926e-02 3.1926e-02 0.0000e+00
1.6972e+00 3.1992e-02 3.1992e-02 0.0000e+00
1.6968e+00 3.2057e-02 3.2057e-02 0.0000e+00
1.6964e+00 3.2123e-02 3.2123e-02 0.0000e+00
1.6960e+00 3.2190e-02 3.2190e-02 0.0000e+00
1.6955e+00 3.2256e-02 3.2256e-02 0.0000e+00
1.6951e+00 3.2323e-02 3.2323e-02 0.0000e+00
1.6947e+00 3.2390e-02 3.2390e-02 0.0000e+00
1.6943e+00 3.2458e-02 3.2458e-02 0.0000e+00
1.6939e+00 3.2526e-02 3.2526e-02 0.0000e+00
1.6934e+00 3.2594e-02 3.2594e-02 0.0000e+00
1.6930e+00 3.2662e-02 3.2662e-02 0.0000e+00
1.6926e+00 3.2731e-02 3.2731e-02 0.0000e+00
1.6922e+00 3.2799e-02 3.2799e-02 0.0000e+00
1.6917e+00 3.2868e-02 3.2868e-02 0.0000e+00
1.6913e+00 3.2937e-02 3.2937e-02 0.0000e+00
1.6909e+00 3.3006e-02 3.3006e-02 0.0000e+00
1.6904e+00 3.3076e-02 3.3076e-02 0.0000e+00
1.6900e+00 3.3146e-02 3.3146e-02 0.0000e+00
1.6896e+00 3.3215e-02 3.3215e-02 0.0000e+00
1.6891e+00 3.3285e-02 3.3285e-02 0.0000e+00
1.6887e+00 3.3355e-02 3.3355e-02 0.0000e+00
1.6883e+00 3.3425e-02 3.3425e-02 0.0000e+00
1.6878e+00 3.3496e-02 3.3496e-02 0.0000e+00
1.6874e+00 3.3566e-02 3.3566e-02 0.0000e+00
1.6870e+00 3.3637e-02 3.3637e-02 0.0000e+00
1.6865e+00 3.3708e-02 3.3708e-02 0.0000e+00
1.6861e+00 3.3779e-02 3.3779e-02 0.0000e+00
1.6857e+00 3.3850e-02 3.3850e-02 0.0000e+00
1.6852e+00 3.3921e-02 3.3921e-02 0.0000e+00
1.6848e+00 3.3993e-02 3.3993e-02 0.0000e+00
1.6843e+00 3.4064e-02 3.4064e-02 0.0000e+00
1.6839e+00 3.4136e-02 3.4136e-02 0.0000e+00
1.6834e+00 3.4207e-02 3.4207e-02 0.0000e+00
1.6830e+00 3.4280e-02 3.4280e-02 0.0000e+00
1.6826e+00 3.4351e-02 3.4351e-02 0.0000e+00
1.6821e+00 3.4424e-02 3.4424e-02 0.0000e+00
1.6817e+00 3.4496e-02 3.4496e-02 0.0000e+00
1.6812e+00 3.4568e-02 3.4568e-02 0.0000e+00
1.6808e+00 3.4640e-02 3.4640e-02 0.0000e+00
1.6803e+00 3.4713e-02 3.4713e-02 0.0000e+00
1.6799e+00 3.4786e-02 3.4786e-02 0.0000e+00
1.6794e+00 3.4858e-02 3.4858e-02 0.0000e+00
1.6790e+00 3.4931e-02 3.4931e-02 0.0000e+00
1.6781e+00 3.5451e-02 3.5451e-02 0.0000e+00
1.6776e+00 3.5524e-02 3.5524e-02 0.0000e+00
1.6772e+00 3.5597e-02 3.5597e-02 0.0000e+00
1.6767e+00 3.5670e-02 3.5670e-02 0.0000e+00
1.6763e+00 3.5743e-02 3.5743e-02 0.0000e+00
1.6758e+00 3.5816e-02 3.5816e-02 0.0000e+00
1.6754e+00 3.5889e-02 3.5889e-02 0.0000e+00
1.6749e+00 3.5963e-02 3.5963e-02 0.0000e+00
1.6745e+00 3.6036e-02 3.6036e-02 0.0000e+00
1.6740e+00 3.6109e-02 3.6109e-02 0.0000e+00
1.6736e+00 3.6183e-02 3.6183e-02 0.0000e+00
1.6731e+00 3.6256e-02 3.6256e-02 0.0000e+00
1.6727e+00 3.6330e-02 3.6330e-02 0.0000e+00
1.6722e+00 3.6404e-02 3.6404e-02 0.0000e+00
1.6718e+00 3.6478e-02 3.6478e-02 0.0000e+00
1.6713e+00 3.6552e-02 3.6552e-02 0.0000e+00
1.6708e+00 3.6626e-02 3.6626e-02 0.0000e+00
1.6704e+00 3.6700e-02 3.6700e-02 0.0000e+00
1.6699e+00 3.6774e-02 3.6774e-02 0.0000e+00
1.6695e+00 3.6848e-02 3.6848e-02 0.0000e+00
1.6690e+00 3.6922e-02 3.6922e-02 0.0000e+00
1.6686e+00 3.6997e-02 3.6997e-02 0.0000e+00
1.6681e+00 3.7071e-02 3.7071e-02 0.0000e+00
1.6676e+00 3.7146e-02 3.7146e-02 0.0000e+00
1.6672e+00 3.7221e-02 3.7221e-02 0.0000e+00
1.6667e+00 3.7295e-02 3.7295e-02 0.0000e+00
1.6663e+00 3.7370e-02 3.7370e-02 0.0000e+00
1.6658e+00 3.7445e-02 3.7445e-02 0.0000e+00
1.6653e+00 3.7520e-02 3.7520e-02 0.0000e+00
1.6649e+00 3.7595e-02 3.7595e-02 0.0000e+00
1.6644e+00 3.7670e-02 3.7670e-02 0.0000e+00
1.6640e+00 3.7745e-02 3.7745e-02 0.0000e+00
1.6635e+00 3.7820e-02 3.7820e-02 0.0000e+00
1.6630e+00 3.7896e-02 3.7896e-02 0.0000e+00
1.6626e+00 3.7971e-02 3.7971e-02 0.0000e+00
1.6621e+00 3.8046e-02 3.8046e-02 0.0000e+00
1.6616e+00 3.8122e-02 3.8122e-02 0.0000e+00
1.6612e+00 3.8197e-02 3.8197e-02 0.0000e+00
1.6607e+00 3.8273e-02 3.8273e-02 0.0000e+00
1.6603e+00 3.8349e-02 3.8349e-02 0.0000e+00
1.6598e+00 3.8424e-02 3.8424e-02 0.0000e+00
1.6593e+00 3.8500e-02 3.8500e-02 0.0000e+00
1.6589e+00 3.8576e-02 3.8576e-02 0.0000e+00
1.6584e+00 3.8652e-02 3.8652e-02 0.0000e+00
1.6579e+00 3.8728e-02 3.8728e-02 0.0000e+00
1.6575e+00 3.8804e-02 3.8804e-02 0.0000e+00
1.6570e+00 3.8880e-02 3.8880e-02 0.0000e+00
1.6565e+00 3.8956e-02 3.8956e-02 0.0000e+00
1.6561e+00 3.9033e-02 3.9033e-02 0.0000e+00
1.6556e+00 3.9109e-02 3.9109e-02 0.0000e+00
1.6551e+00 3.9186e-02 3.9186e-02 0.0000e+00
1.6546e+00 3.9262e-02 3.9262e-02 0.0000e+00
1.6542e+00 3.9339e-02 3.9339e-02 0.0000e+00
1.6537e+00 3.9415e-02 3.9415e-02 0.0000e+00
1.6532e+00 3.9492e-02 3.9492e-02 0.0000e+00
1.6528e+00 3.9569e-02 3.9569e-02 0.0000e+00
1.6523e+00 3.9645e-02 3.9645e-02 0.0000e+00
1.6518e+00 3.9722e-02 3.9722e-02 0.0000e+00
1.6514e+00 3.9799e-02 3.9799e-02 0.0000e+00
1.6509e+00 3.9876e-02 3.9876e-02 0.0000e+00
1.6504e+00 3.9953e-02 3.9953e-02 0.0000e+00
1.6499e+00 4.0030e-02 4.0030e-02 0.0000e+00
1.6495e+00 4.0107e-02 4.0107e-02 0.0000e+00
1.6490e+00 4.0185e-02 4.0185e-02 0.0000e+00
1.6485e+00 4.0262e-02 4.0262e-02 0.0000e+00
1.6481e+00 3.4977e-02 3.4977e-02 0.0000e+00
1.6476e+00 3.5087e-02 3.5087e-02 0.0000e+00
1.6471e+00 3.5197e-02 3.5197e-02 0.0000e+00
1.6466e+00 3.5307e-02 3.5307e-02 0.0000e+00
1.6462e+00 3.5417e-02 3.5417e-02 0.0000e+00
1.6457e+00 3.5527e-02 3.5527e-02 0.0000e+00
1.6452e+00 3.5637e-02 3.5637e-02 0.0000e+00
1.6447e+00 3.5747e-02 3.5747e-02 0.0000e+00
1.6443e+00 3.5857e-02 3.5857e-02 0.0000e+00
1.6438e+00 3.5968e-02 3.5968e-02 0.0000e+00
1.6433e+00 3.6078e-02 3.6078e-02 0.0000e+00
1.6428e+00 3.6189e-02 3.6189e-02 0.0000e+00
1.6423e+00 3.6300e-02 3.6300e-02 0.0000e+00
1.6288e+00 4.7261e-02 4.7261e-02 0.0000e+00
1.6285e+00 4.7296e-02 4.7296e-02 0.0000e+00
1.6281e+00 4.7331e-02 4.7331e-02 0.0000e+00
1.6277e+00 4.7365e-02 4.7365e-02 0.0000e+00
1.6273e+00 4.7400e-02 4.7400e-02 0.0000e+00
1.6269e+00 4.7435e-02 4.7435e-02 0.0000e+00
1.6265e+00 4.7469e-02 4.7469e-02 0.0000e+00
1.6261e+00 4.7504e-02 4.7504e-02 0.0000e+00
1.6257e+00 4.7539e-02 4.7539e-02 0.0000e+00
1.6254e+00 4.7573e-02 4.7573e-02 0.0000e+00
1.6250e+00 4.7607e-02 4.7607e-02 0.0000e+00
1.6246e+00 4.7642e-02 4.7642e-02 0.0000e+00
1.6242e+00 4.2284e-02 4.2284e-02 0.0000e+00
1.6238e+00 4.2318e-02 4.2318e-02 0.0000e+00
1.6234e+00 4.2353e-02 4.2353e-02 0.0000e+00
1.6230e+00 4.2387e-02 4.2387e-02 0.0000e+00
1.6226e+00 4.2422e-02 4.2422e-02 0.0000e+00
1.6222e+00 4.2457e-02 4.2457e-02 0.0000e+00
1.6219e+00 4.2491e-02 4.2491e-02 0.0000e+00
1.6215e+00 4.2526e-02 4.2526e-02 0.0000e+00
1.6211e+00 4.2560e-02 4.2560e-02 0.0000e+00
1.6207e+00 4.2595e-02 4.2595e-02 0.0000e+00
1.6203e+00 4.2630e-02 4.2630e-02 0.0000e+00
1.6199e+00 4.2664e-02 4.2664e-02 0.0000e+00
1.6195e+00 4.2699e-02 4.2699e-02 0.0000e+00
1.6191e+00 4.2733e-02 4.2733e-02 0.0000e+00
1.6187e+00 4.2768e-02 4.2768e-02 0.0000e+00
1.6183e+00 4.2802e-02 4.2802e-02 0.0000e+00
1.6179e+00 4.2837e-02 4.2837e-02 0.0000e+00
1.6175e+00 4.2872e-02 4.2872e-02 0.0000e+00
1.6172e+00 4.2906e-02 4.2906e-02 0.0000e+00
1.6894e+00 3.0793e-02 3.0793e-02 0.0000e+00
1.6891e+00 3.0834e-02 3.0834e-02 0.0000e+00
1.6888e+00 3.0878e-02 3.0878e-02 0.0000e+00
1.6885e+00 3.0924e-02 3.0924e-02 0.0000e+00
1.6882e+00 3.0971e-02 3.0971e-02 0.0000e+00
1.6879e+00 3.1020e-02 3.1020e-02 0.0000e+00
1.6876e+00 3.1071e-02 3.1071e-02 0.0000e+00
1.6872e+00 3.1122e-02 3.1122e-02 0.0000e+00
1.6869e+00 3.1175e-02 3.1175e-02 0.0000e+00
1.6865e+00 3.1230e-02 3.1230e-02 0.0000e+00
1.6862e+00 3.1285e-02 3.1285e-02 0.0000e+00
1.6858e+00 3.1341e-02 3.1341e-02 0.0000e+00
1.6854e+00 3.1399e-02 3.1399e-02 0.0000e+00
1.6851e+00 3.1457e-02 3.1457e-02 0.0000e+00
1.6847e+00 3.1516e-02 3.1516e-02 0.0000e+00
1.6843e+00 3.1575e-02 3.1575e-02 0.0000e+00
1.6839e+00 3.1636e-02 3.1636e-02 0.0000e+00
1.6835e+00 3.1697e-02 3.1697e-02 0.0000e+00
1.6831e+00 3.1759e-02 3.1759e-02 0.0000e+00
1.6827e+00 3.1821e-02 3.1821e-02 0.0000e+00
1.6823e+00 3.1884e-02 3.1884e-02 0.0000e+00
1.6819e+00 3.1948e-02 3.1948e-02 0.0000e+00
1.6815e+00 3.2012e-02 3.2012e-02 0.0000e+00
1.6811e+00 3.2076e-02 3.2076e-02 0.0000e+00
1.6807e+00 3.2141e-02 3.2141e-02 0.0000e+00
1.6803e+00 3.2207e-02 3.2207e-02 0.0000e+00
1.6799e+00 3.2272e-02 3.2272e-02 0.0000e+00
1.6795e+00 3.2339e-02 3.2339e-02 0.0000e+00
1.6790e+00 3.2405e-02 3.2405e-02 0.0000e+00
1.6786e+00 3.2472e-02 3.2472e-02 0.0000e+00
1.6782e+00 3.2539e-02 3.2539e-02 0.0000e+00
1.6778e+00 3.2607e-02 3.2607e-02 0.0000e+00
1.6774e+00 3.2675e-02 3.2675e-02 0.0000e+00
1.6769e+00 3.2743e-02 3.2743e-02 0.0000e+00
1.6765e+00 3.2811e-02 3.2811e-02 0.0000e+00
1.6761e+00 3.2880e-02 3.2880e-02 0.0000e+00
1.6756e+00 3.2949e-02 3.2949e-02 0.0000e+00
1.6752e+00 3.3018e-02 3.3018e-02 0.0000e+00
1.6748e+00 3.3088e-02 3.3088e-02 0.0000e+00
1.6743e+00 3.3157e-02 3.3157e-02 0.0000e+00
1.6739e+00 3.3227e-02 3.3227e-02 0.0000e+00
1.6735e+00 3.3297e-02 3.3297e-02 0.0000e+00
1.6730e+00 3.3368e-02 3.3368e-02 0.0000e+00
1.6726e+00 3.3438e-02 3.3438e-02 0.0000e+00
1.6721e+00 3.3509e-02 3.3509e-02 0.0000e+00
1.6717e+00 3.3580e-02 3.3580e-02 0.0000e+00
1.6713e+00 3.3651e-02 3.3651e-02 0.0000e+00
1.6708e+00 3.3722e-02 3.3722e-02 0.0000e+00
1.6704e+00 3.3794e-02 3.3794e-02 0.0000e+00
1.6699e+00 3.3865e-02 3.3865e-02 0.0000e+00
1.6695e+00 3.3937e-02 3.3937e-02 0.0000e+00
1.6690e+00 3.4009e-02 3.4009e-02 0.0000e+00
1.6686e+00 3.4081e-02 3.4081e-02 0.0000e+00
1.6681e+00 3.4153e-02 3.4153e-02 0.0000e+00
1.6677e+00 3.4225e-02 3.4225e-02 0.0000e+00
1.6672e+00 3.4298e-02 3.4298e-02 0.0000e+00
1.6668e+00 3.4370e-02 3.4370e-02 0.0000e+00
1.6663e+00 3.4443e-02 3.4443e-02 0.0000e+00
1.6659e+00 3.4516e-02 3.4516e-02 0.0000e+00
1.6654e+00 3.4589e-02 3.4589e-02 0.0000e+00
1.6650e+00 3.4662e-02 3.4662e-02 0.0000e+00
1.6645e+00 3.4735e-02 3.4735e-02 0.0000e+00
1.6641e+00 3.4809e-02 3.4809e-02 0.0000e+00
1.6636e+00 3.4882e-02 3.4882e-02 0.0000e+00
1.6627e+00 3.5381e-02 3.5381e-02 0.0000e+00
1.6623e+00 3.5454e-02 3.5454e-02 0.0000e+00
1.6618e+00 3.5528e-02 3.5528e-02 0.0000e+00
1.6614e+00 3.5601e-02 3.5601e-02 0.0000e+00
1.6609e+00 3.5675e-02 3.5675e-02 0.0000e+00
1.6605e+00 3.5749e-02 3.5749e-02 0.0000e+00
1.6600e+00 3.5823e-02 3.5823e-02 0.0000e+00
1.6595e+00 3.5897e-02 3.5897e-02 0.0000e+00
1.6591e+00 3.5971e-02 3.5971e-02 0.0000e+00
1.6586e+00 3.6046e-02 3.6046e-02 0.0000e+00
1.6582e+00 3.6120e-02 3.6120e-02 0.0000e+00
1.6577e+00 3.6194e-02 3.6194e-02 0.0000e+00
1.6572e+00 3.6269e-02 3.6269e-02 0.0000e+00
1.6568e+00 3.6344e-02 3.6344e-02 0.0000e+00
1.6563e+00 3.6418e-02 3.6418e-02 0.0000e+00
1.6559e+00 3.6493e-02 3.6493e-02 0.0000e+00
1.6554e+00 3.6568e-02 3.6568e-02 0.0000e+00
1.6549e+00 3.6643e-02 3.6643e-02 0.0000e+00
1.6545e+00 3.6718e-02 3.6718e-02 0.0000e+00
1.6540e+00 3.6793e-02 3.6793e-02 0.0000e+00
1.6535e+00 3.6869e-02 3.6869e-02 0.0000e+00
1.6531e+00 3.6944e-02 3.6944e-02 0.0000e+00
1.6526e+00 3.7019e-02 3.7019e-02 0.0000e+00
1.6521e+00 3.7095e-02 3.7095e-02 0.0000e+00
1.6517e+00 3.7171e-02 3.7171e-02 0.0000e+00
1.6512e+00 3.7246e-02 3.7246e-02 0.0000e+00
1.6507e+00 3.7322e-02 3.7322e-02 0.0000e+00
1.6503e+00 3.7398e-02 3.7398e-02 0.0000e+00
1.6498e+00 3.7474e-02 3.7474e-02 0.0000e+00
1.6493e+00 3.7550e-02 3.7550e-02 0.0000e+00
1.6489e+00 3.7626e-02 3.7626e-02 0.0000e+00
1.6484e+00 3.7702e-02 3.7702e-02 0.0000e+00
1.6479e+00 3.7778e-02 3.7778e-02 0.0000e+00
1.6474e+00 3.7854e-02 3.7854e-02 0.0000e+00
1.6470e+00 3.7931e-02 3.7931e-02 0.0000e+00
1.6465e+00 3.8007e-02 3.8007e-02 0.0000e+00
1.6460e+00 3.8084e-02 3.8084e-02 0.0000e+00
1.6456e+00 3.8160e-02 3.8160e-02 0.0000e+00
1.6451e+00 3.8237e-02 3.8237e-02 0.0000e+00
1.6446e+00 3.8314e-02 3.8314e-02 0.0000e+00
1.6441e+00 3.8391e-02 3.8391e-02 0.0000e+00
1.6437e+00 3.8468e-02 3.8468e-02 0.0000e+00
1.6432e+00 3.8545e-02 3.8545e-02 0.0000e+00
1.6427e+00 3.8622e-02 3.8622e-02 0.0000e+00
1.6422e+00 3.8699e-02 3.8699e-02 0.0000e+00
1.6418e+00 3.8776e-02 3.8776e-02 0.0000e+00
1.6413e+00 3.8854e-02 3.8854e-02 0.0000e+00
1.6408e+00 3.8931e-02 3.8931e-02 0.0000e+00
1.6403e+00 3.9008e-02 3.9008e-02 0.0000e+00
1.6399e+00 3.9086e-02 3.9086e-02 0.0000e+00
1.6394e+00 3.9163e-02 3.9163e-02 0.0000e+00
1.6389e+00 3.9241e-02 3.9241e-02 0.0000e+00
1.6384e+00 3.9319e-02 3.9319e-02 0.0000e+00
1.6380e+00 3.9397e-02 3.9397e-02 0.0000e+00
1.6375e+00 3.9475e-02 3.9475e-02 0.0000e+00
1.6370e+00 3.9552e-02 3.9552e-02 0.0000e+00
1.6365e+00 3.9630e-02 3.9630e-02 0.0000e+00
1.6360e+00 3.9708e-02 3.9708e-02 0.0000e+00
1.6356e+00 3.9787e-02 3.9787e-02 0.0000e+00
1.6351e+00 3.9865e-02 3.9865e-02 0.0000e+00
1.6346e+00 3.9943e-02 3.9943e-02 0.0000e+00
1.6341e+00 4.0022e-02 4.0022e-02 0.0000e+00
1.6336e+00 4.0100e-02 4.0100e-02 0.0000e+00
1.6331e+00 3.6032e-02 3.6032e-02 0.0000e+00
1.6327e+00 3.6111e-02 3.6111e-02 0.0000e+00
1.6185e+00 4.0898e-02 4.0898e-02 0.0000e+00
1.6181e+00 4.0932e-02 4.0932e-02 0.0000e+00
1.6177e+00 4.0967e-02 4.0967e-02 0.0000e+00
1.6174e+00 4.1002e-02 4.1002e-02 0.0000e+00
1.6170e+00 4.1037e-02 4.1037e-02 0.0000e+00
1.6166e+00 4.1072e-02 4.1072e-02 0.0000e+00
1.6162e+00 4.1107e-02 4.1107e-02 0.0000e+00
1.6158e+00 4.1142e-02 4.1142e-02 0.0000e+00
1.6154e+00 4.1177e-02 4.1177e-02 0.0000e+00
1.6150e+00 4.1212e-02 4.1212e-02 0.0000e+00
1.6146e+00 4.1247e-02 4.1247e-02 0.0000e+00
1.6142e+00 4.1282e-02 4.1282e-02 0.0000e+00
1.6138e+00 4.1317e-02 4.1317e-02 0.0000e+00
1.6134e+00 4.1351e-02 4.1351e-02 0.0000e+00
1.6130e+00 4.1386e-02 4.1386e-02 0.0000e+00
1.6126e+00 4.1421e-02 4.1421e-02 0.0000e+00
1.6122e+00 4.1456e-02 4.1456e-02 0.0000e+00
1.6118e+00 4.1491e-02 4.1491e-02 0.0000e+00
1.6114e+00 4.1526e-02 4.1526e-02 0.0000e+00
1.6111e+00 4.1560e-02 4.1560e-02 0.0000e+00
1.6107e+00 4.1596e-02 4.1596e-02 0.0000e+00
1.6103e+00 4.1631e-02 4.1631e-02 0.0000e+00
1.6099e+00 4.1665e-02 4.1665e-02 0.0000e+00
1.6095e+00 4.1700e-02 4.1700e-02 0.0000e+00
1.6091e+00 4.1735e-02 4.1735e-02 0.0000e+00
1.6087e+00 4.1770e-02 4.1770e-02 0.0000e+00
1.6083e+00 4.1804e-02 4.1804e-02 0.0000e+00
1.6079e+00 4.1839e-02 4.1839e-02 0.0000e+00
1.6075e+00 4.1874e-02 4.1874e-02 0.0000e+00
1.6071e+00 4.1909e-02 4.1909e-02 0.0000e+00
1.6067e+00 4.1944e-02 4.1944e-02 0.0000e+00
1.6063e+00 4.1978e-02 4.1978e-02 0.0000e+00
1.6059e+00 4.2013e-02 4.2013e-02 0.0000e+00
1.6055e+00 4.2048e-02 4.2048e-02 0.0000e+00
1.6051e+00 4.2083e-02 4.2083e-02 0.0000e+00
1.6047e+00 4.2117e-02 4.2117e-02 0.0000e+00
1.6043e+00 4.2152e-02 4.2152e-02 0.0000e+00
1.6039e+00 4.2187e-02 4.2187e-02 0.0000e+00
1.6035e+00 4.2222e-02 4.2222e-02 0.0000e+00
1.6031e+00 4.2257e-02 4.2257e-02 0.0000e+00
1.6027e+00 4.2291e-02 4.2291e-02 0.0000e+00
1.6023e+00 4.2326e-02 4.2326e-02 0.0000e+00
1.6019e+00 4.2361e-02 4.2361e-02 0.0000e+00
1.6015e+00 4.2395e-02 4.2395e-02 0.0000e+00
1.6011e+00 4.2430e-02 4.2430e-02 0.0000e+00
1.6007e+00 4.2465e-02 4.2465e-02 0.0000e+00
1.6003e+00 4.2500e-02 4.2500e-02 0.0000e+00
1.5999e+00 4.2534e-02 4.2534e-02 0.0000e+00
1.5995e+00 4.2569e-02 4.2569e-02 0.0000e+00
1.5991e+00 4.2604e-02 4.2604e-02 0.0000e+00
1.5987e+00 4.2638e-02 4.2638e-02 0.0000e+00
1.5983e+00 4.2673e-02 4.2673e-02 0.0000e+00
1.6679e+00 3.1316e-02 3.1316e-02 0.0000e+00
1.6676e+00 3.1360e-02 3.1360e-02 0.0000e+00
1.6673e+00 3.1405e-02 3.1405e-02 0.0000e+00
1.6670e+00 3.1453e-02 3.1453e-02 0.0000e+00
1.6667e+00 3.1502e-02 3.1502e-02 0.0000e+00
1.6664e+00 3.1553e-02 3.1553e-02 0.0000e+00
1.6660e+00 3.1605e-02 3.1605e-02 0.0000e+00
1.6657e+00 3.1659e-02 3.1659e-02 0.0000e+00
1.6653e+00 3.1714e-02 3.1714e-02 0.0000e+00
1.6650e+00 3.1770e-02 3.1770e-02 0.0000e+00
1.6646e+00 3.1828e-02 3.1828e-02 0.0000e+00
1.6642e+00 3.1886e-02 3.1886e-02 0.0000e+00
1.6638e+00 3.1945e-02 3.1945e-02 0.0000e+00
1.6634e+00 3.2005e-02 3.2005e-02 0.0000e+00
1.6631e+00 3.2066e-02 3.2066e-02 0.0000e+00
1.6627e+00 3.2127e-02 3.2127e-02 0.0000e+00
1.6623e+00 3.2190e-02 3.2190e-02 0.0000e+00
1.6619e+00 3.2253e-02 3.2253e-02 0.0000e+00
1.6615e+00 3.2316e-02 3.2316e-02 0.0000e+00
1.6610e+00 3.2381e-02 3.2381e-02 0.0000e+00
1.6606e+00 3.2446e-02 3.2446e-02 0.0000e+00
1.6602e+00 3.2511e-02 3.2511e-02 0.0000e+00
1.6598e+00 3.2577e-02 3.2577e-02 0.0000e+00
1.6594e+00 3.2643e-02 3.2643e-02 0.0000e+00
1.6590e+00 3.2710e-02 3.2710e-02 0.0000e+00
1.6585e+00 3.2777e-02 3.2777e-02 0.0000e+00
1.6581e+00 3.2845e-02 3.2845e-02 0.0000e+00
1.6577e+00 3.2913e-02 3.2913e-02 0.0000e+00
1.6572e+00 3.2981e-02 3.2981e-02 0.0000e+00
1.6568e+00 3.3050e-02 3.3050e-02 0.0000e+00
1.6564e+00 3.3119e-02 3.3119e-02 0.0000e+00
1.6559e+00 3.3189e-02 3.3189e-02 0.0000e+00
1.6555e+00 3.3258e-02 3.3258e-02 0.0000e+00
1.6551e+00 3.3328e-02 3.3328e-02 0.0000e+00
1.6546e+00 3.3398e-02 3.3398e-02 0.0000e+00
1.6542e+00 3.3469e-02 3.3469e-02 0.0000e+00
1.6537e+00 3.3540e-02 3.3540e-02 0.0000e+00
1.6533e+00 3.3611e-02 3.3611e-02 0.0000e+00
1.6528e+00 3.3682e-02 3.3682e-02 0.0000e+00
1.6524e+00 3.3754e-02 3.3754e-02 0.0000e+00
1.6520e+00 3.3825e-02 3.3825e-02 0.0000e+00
1.6515e+00 3.3897e-02 3.3897e-02 0.0000e+00
1.6510e+00 3.3969e-02 3.3969e-02 0.0000e+00
1.6506e+00 3.4042e-02 3.4042e-02 0.0000e+00
1.6501e+00 3.4114e-02 3.4114e-02 0.0000e+00
1.6497e+00 3.4187e-02 3.4187e-02 0.0000e+00
1.6492e+00 3.4260e-02 3.4260e-02 0.0000e+00
1.6488e+00 3.4333e-02 3.4333e-02 0.0000e+00
1.6483e+00 3.4406e-02 3.4406e-02 0.0000e+00
1.6479e+00 3.4480e-02 3.4480e-02 0.0000e+00
1.6474e+00 3.4553e-02 3.4553e-02 0.0000e+00
1.6469e+00 3.4627e-02 3.4627e-02 0.0000e+00
1.6465e+00 3.4701e-02 3.4701e-02 0.0000e+00
1.6460e+00 3.4775e-02 3.4775e-02 0.0000e+00
1.6456e+00 3.4849e-02 3.4849e-02 0.0000e+00
1.6447e+00 3.5322e-02 3.5322e-02 0.0000e+00
1.6442e+00 3.5397e-02 3.5397e-02 0.0000e+00
1.6438e+00 3.5471e-02 3.5471e-02 0.0000e+00
1.6433e+00 3.5546e-02 3.5546e-02 0.0000e+00
1.6428e+00 3.5620e-02 3.5620e-02 0.0000e+00
1.6424e+00 3.5695e-02 3.5695e-02 0.0000e+00
1.6419e+00 3.5770e-02 3.5770e-02 0.0000e+00
1.6414e+00 3.5845e-02 3.5845e-02 0.0000e+00
1.6410e+00 3.5920e-02 3.5920e-02 0.0000e+00
1.6405e+00 3.5995e-02 3.5995e-02 0.0000e+00
1.6400e+00 3.6070e-02 3.6070e-02 0.0000e+00
1.6396e+00 3.6146e-02 3.6146e-02 0.0000e+00
1.6391e+00 3.6221e-02 3.6221e-02 0.0000e+00
1.6386e+00 3.6297e-02 3.6297e-02 0.0000e+00
1.6382e+00 3.6373e-02 3.6373e-02 0.0000e+00
1.6377e+00 3.6449e-02 3.6449e-02 0.0000e+00
1.6372e+00 3.6525e-02 3.6525e-02 0.0000e+00
1.6367e+00 3.6601e-02 3.6601e-02 0.0000e+00
1.6363e+00 3.6677e-02 3.6677e-02 0.0000e+00
1.6358e+00 3.6753e-02 3.6753e-02 0.0000e+00
1.6353e+00 3.6829e-02 3.6829e-02 0.0000e+00
1.6348e+00 3.6906e-02 3.6906e-02 0.0000e+00
1.6344e+00 3.6983e-02 3.6983e-02 0.0000e+00
1.6339e+00 3.7059e-02 3.7059e-02 0.0000e+00
1.6334e+00 3.7136e-02 3.7136e-02 0.0000e+00
1.6329e+00 3.7213e-02 3.7213e-02 0.0000e+00
1.6325e+00 3.7290e-02 3.7290e-02 0.0000e+00
1.6320e+00 3.7367e-02 3.7367e-02 0.0000e+00
1.6315e+00 3.7444e-02 3.7444e-02 0.0000e+00
1.6310e+00 3.7522e-02 3.7522e-02 0.0000e+00
1.6305e+00 3.7599e-02 3.7599e-02 0.0000e+00
1.6301e+00 3.3357e-02 3.3357e-02 0.0000e+00
1.6296e+00 3.3435e-02 3.3435e-02 0.0000e+00
1.6291e+00 3.3513e-02 3.3513e-02 0.0000e+00
1.6286e+00 3.3591e-02 3.3591e-02 0.0000e+00
1.6281e+00 3.3669e-02 3.3669e-02 0.0000e+00
1.6277e+00 3.3747e-02 3.3747e-02 0.0000e+00
1.6272e+00 3.3825e-02 3.3825e-02 0.0000e+00
1.6267e+00 3.3903e-02 3.3903e-02 0.0000e+00
1.6262e+00 3.3982e-02 3.3982e-02 0.0000e+00
1.6257e+00 3.4060e-02 3.4060e-02 0.0000e+00
1.6252e+00 3.4139e-02 3.4139e-02 0.0000e+00
1.6248e+00 3.4218e-02 3.4218e-02 0.0000e+00
1.6243e+00 3.4296e-02 3.4296e-02 0.0000e+00
1.6238e+00 3.4375e-02 3.4375e-02 0.0000e+00
1.6233e+00 3.4454e-02 3.4454e-02 0.0000e+00
1.6228e+00 3.4533e-02 3.4533e-02 0.0000e+00
1.6223e+00 3.4612e-02 3.4612e-02 0.0000e+00
1.6218e+00 3.4691e-02 3.4691e-02 0.0000e+00
1.6069e+00 4.4388e-02 4.4388e-02 0.0000e+00
1.6065e+00 4.4407e-02 4.4407e-02 0.0000e+00
1.6061e+00 4.4425e-02 4.4425e-02 0.0000e+00
1.6057e+00 4.4443e-02 4.4443e-02 0.0000e+00
1.6053e+00 4.4462e-02 4.4462e-02 0.0000e+00
1.6049e+00 4.4480e-02 4.4480e-02 0.0000e+00
1.6045e+00 4.4498e-02 4.4498e-02 0.0000e+00
1.6041e+00 4.4516e-02 4.4516e-02 0.0000e+00
1.6037e+00 4.4535e-02 4.4535e-02 0.0000e+00
1.6033e+00 4.4553e-02 4.4553e-02 0.0000e+00
1.6029e+00 4.4571e-02 4.4571e-02 0.0000e+00
1.6025e+00 4.4589e-02 4.4589e-02 0.0000e+00
1.6021e+00 4.4607e-02 4.4607e-02 0.0000e+00
1.6017e+00 4.4625e-02 4.4625e-02 0.0000e+00
1.6013e+00 4.4644e-02 4.4644e-02 0.0000e+00
1.6009e+00 4.4662e-02 4.4662e-02 0.0000e+00
1.6005e+00 4.0323e-02 4.0323e-02 0.0000e+00
1.6001e+00 4.0358e-02 4.0358e-02 0.0000e+00
1.5997e+00 4.0393e-02 4.0393e-02 0.0000e+00
1.5993e+00 4.0428e-02 4.0428e-02 0.0000e+00
1.5989e+00 4.0464e-02 4.0464e-02 0.0000e+00
1.5985e+00 4.0499e-02 4.0499e-02 0.0000e+00
1.5981e+00 4.0534e-02 4.0534e-02 0.0000e+00
1.5977e+00 4.0569e-02 4.0569e-02 0.0000e+00
1.5973e+00 4.0604e-02 4.0604e-02 0.0000e+00
1.5969e+00 4.0640e-02 4.0640e-02 0.0000e+00
1.5965e+00 4.0675e-02 4.0675e-02 0.0000e+00
1.5961e+00 4.0710e-02 4.0710e-02 0.0000e+00
1.5957e+00 4.0745e-02 4.0745e-02 0.0000e+00
1.5953e+00 4.0780e-02 4.0780e-02 0.0000e+00
1.5949e+00 4.0815e-02 4.0815e-02 0.0000e+00
1.5944e+00 4.0850e-02 4.0850e-02 0.0000e+00
1.5940e+00 4.0885e-02 4.0885e-02 0.0000e+00
1.5936e+00 4.0920e-02 4.0920e-02 0.0000e+00
1.5932e+00 4.0955e-02 4.0955e-02 0.0000e+00
1.5928e+00 4.0991e-02 4.0991e-02 0.0000e+00
1.5924e+00 4.1025e-02 4.1025e-02 0.0000e+00
1.5920e+00 4.1061e-02 4.1061e-02 0.0000e+00
1.5916e+00 4.1096e-02 4.1096e-02 0.0000e+00
1.5912e+00 4.1131e-02 4.1131e-02 0.0000e+00
1.5908e+00 4.1166e-02 4.1166e-02 0.0000e+00
1.5904e+00 4.1201e-02 4.1201e-02 0.0000e+00
1.5900e+00 4.1236e-02 4.1236e-02 0.0000e+00
1.5896e+00 4.1271e-02 4.1271e-02 0.0000e+00
1.5892e+00 4.1306e-02 4.1306e-02 0.0000e+00
1.5888e+00 4.1341e-02 4.1341e-02 0.0000e+00
1.5884e+00 4.1376e-02 4.1376e-02 0.0000e+00
1.5879e+00 4.1411e-02 4.1411e-02 0.0000e+00
1.5875e+00 4.1446e-02 4.1446e-02 0.0000e+00
1.5871e+00 4.1481e-02 4.1481e-02 0.0000e+00
1.5867e+00 4.1516e-02 4.1516e-02 0.0000e+00
1.5863e+00 4.1551e-02 4.1551e-02 0.0000e+00
1.5859e+00 4.1587e-02 4.1587e-02 0.0000e+00
1.5855e+00 4.1621e-02 4.1621e-02 0.0000e+00
1.5851e+00 4.1656e-02 4.1656e-02 0.0000e+00
1.5847e+00 4.1691e-02 4.1691e-02 0.0000e+00
1.5843e+00 4.1726e-02 4.1726e-02 0.0000e+00
1.5839e+00 4.1761e-02 4.1761e-02 0.0000e+00
1.5834e+00 4.1796e-02 4.1796e-02 0.0000e+00
1.5830e+00 4.1831e-02 4.1831e-02 0.0000e+00
1.5826e+00 4.1866e-02 4.1866e-02 0.0000e+00
1.5822e+00 4.1901e-02 4.1901e-02 0.0000e+00
1.5818e+00 4.1936e-02 4.1936e-02 0.0000e+00
1.5814e+00 4.1971e-02 4.1971e-02 0.0000e+00
1.5810e+00 4.2006e-02 4.2006e-02 0.0000e+00
1.5806e+00 4.2041e-02 4.2041e-02 0.0000e+00
1.5801e+00 4.2076e-02 4.2076e-02 0.0000e+00
1.5797e+00 4.2110e-02 4.2110e-02 0.0000e+00
1.5793e+00 4.2146e-02 4.2146e-02 0.0000e+00
1.5789e+00 4.2180e-02 4.2180e-02 0.0000e+00
1.5785e+00 4.2215e-02 4.2215e-02 0.0000e+00
1.5781e+00 4.2250e-02 4.2250e-02 0.0000e+00
1.5777e+00 4.2285e-02 4.2285e-02 0.0000e+00
1.5773e+00 4.2320e-02 4.2320e-02 0.0000e+00
1.5768e+00 4.2355e-02 4.2355e-02 0.0000e+00
1.5764e+00 4.2390e-02 4.2390e-02 0.0000e+00
1.5760e+00 4.2424e-02 4.2424e-02 0.0000e+00
1.6458e+00 3.1868e-02 3.1868e-02 0.0000e+00
1.6455e+00 3.1914e-02 3.1914e-02 0.0000e+00
1.6452e+00 3.1962e-02 3.1962e-02 0.0000e+00
1.6449e+00 3.2012e-02 3.2012e-02 0.0000e+00
1.6445e+00 3.2063e-02 3.2063e-02 0.0000e+00
1.6442e+00 3.2116e-02 3.2116e-02 0.0000e+00
1.6438e+00 3.2170e-02 3.2170e-02 0.0000e+00
1.6435e+00 3.2226e-02 3.2226e-02 0.0000e+00
1.6431e+00 3.2283e-02 3.2283e-02 0.0000e+00
1.6427e+00 3.2341e-02 3.2341e-02 0.0000e+00
1.6423e+00 3.2401e-02 3.2401e-02 0.0000e+00
1.6420e+00 3.2461e-02 3.2461e-02 0.0000e+00
1.6416e+00 3.2522e-02 3.2522e-02 0.0000e+00
1.6412e+00 3.2585e-02 3.2585e-02 0.0000e+00
1.6408e+00 3.2647e-02 3.2647e-02 0.0000e+00
1.6404e+00 3.2711e-02 3.2711e-02 0.0000e+00
1.6399e+00 3.2775e-02 3.2775e-02 0.0000e+00
1.6395e+00 3.2841e-02 3.2841e-02 0.0000e+00
1.6391e+00 3.2906e-02 3.2906e-02 0.0000e+00
1.6387e+00 3.2973e-02 3.2973e-02 0.0000e+00
1.6383e+00 3.3040e-02 3.3040e-02 0.0000e+00
1.6378e+00 3.3107e-02 3.3107e-02 0.0000e+00
1.6374e+00 3.3175e-02 3.3175e-02 0.0000e+00
1.6370e+00 3.3243e-02 3.3243e-02 0.0000e+00
1.6365e+00 3.3312e-02 3.3312e-02 0.0000e+00
1.6361e+00 3.3381e-02 3.3381e-02 0.0000e+00
1.6357e+00 3.3451e-02 3.3451e-02 0.0000e+00
1.6352e+00 3.3521e-02 3.3521e-02 0.0000e+00
1.6348e+00 3.3591e-02 3.3591e-02 0.0000e+00
1.6343e+00 3.3662e-02 3.3662e-02 0.0000e+00
1.6339e+00 3.3733e-02 3.3733e-02 0.0000e+00
1.6334e+00 3.3804e-02 3.3804e-02 0.0000e+00
1.6330e+00 3.3876e-02 3.3876e-02 0.0000e+00
1.6325e+00 3.3949e-02 3.3949e-02 0.0000e+00
1.6321e+00 3.4021e-02 3.4021e-02 0.0000e+00
1.6316e+00 3.4093e-02 3.4093e-02 0.0000e+00
1.6311e+00 3.4166e-02 3.4166e-02 0.0000e+00
1.6307e+00 3.4239e-02 3.4239e-02 0.0000e+00
1.6302e+00 3.4313e-02 3.4313e-02 0.0000e+00
1.6298e+00 3.4386e-02 3.4386e-02 0.0000e+00
1.6293e+00 3.4460e-02 3.4460e-02 0.0000e+00
1.6288e+00 3.4534e-02 3.4534e-02 0.0000e+00
1.6284e+00 3.4608e-02 3.4608e-02 0.0000e+00
1.6279e+00 3.0191e-02 3.0191e-02 0.0000e+00
1.6274e+00 3.0266e-02 3.0266e-02 0.0000e+00
1.6270e+00 3.0340e-02 3.0340e-02 0.0000e+00
1.6265e+00 3.0416e-02 3.0416e-02 0.0000e+00
1.6257e+00 3.0863e-02 3.0863e-02 0.0000e+00
1.6252e+00 3.0939e-02 3.0939e-02 0.0000e+00
1.6247e+00 3.1014e-02 3.1014e-02 0.0000e+00
1.6242e+00 3.1090e-02 3.1090e-02 0.0000e+00
1.6238e+00 3.1166e-02 3.1166e-02 0.0000e+00
1.6233e+00 3.1242e-02 3.1242e-02 0.0000e+00
1.6228e+00 3.1318e-02 3.1318e-02 0.0000e+00
1.6223e+00 3.1394e-02 3.1394e-02 0.0000e+00
1.6219e+00 3.1470e-02 3.1470e-02 0.0000e+00
1.6214e+00 3.1547e-02 3.1547e-02 0.0000e+00
1.6209e+00 3.1624e-02 3.1624e-02 0.0000e+00
1.6204e+00 3.1700e-02 3.1700e-02 0.0000e+00
1.6200e+00 3.1777e-02 3.1777e-02 0.0000e+00
1.6195e+00 3.1854e-02 3.1854e-02 0.0000e+00
1.6190e+00 3.1931e-02 3.1931e-02 0.0000e+00
1.6185e+00 3.2009e-02 3.2009e-02 0.0000e+00
1.6180e+00 3.2087e-02 3.2087e-02 0.0000e+00
1.6176e+00 3.2164e-02 3.2164e-02 0.0000e+00
1.6171e+00 3.2242e-02 3.2242e-02 0.0000e+00
1.6166e+00 3.2319e-02 3.2319e-02 0.0000e+00
1.6161e+00 3.2398e-02 3.2398e-02 0.0000e+00
1.6156e+00 3.2476e-02 3.2476e-02 0.0000e+00
1.6151e+00 3.2554e-02 3.2554e-02 0.0000e+00
1.6146e+00 3.2632e-02 3.2632e-02 0.0000e+00
1.6142e+00 3.2710e-02 3.2710e-02 0.0000e+00
1.6137e+00 3.2789e-02 3.2789e-02 0.0000e+00
1.6132e+00 3.2868e-02 3.2868e-02 0.0000e+00
1.6127e+00 3.2947e-02 3.2947e-02 0.0000e+00
1.6122e+00 3.3025e-02 3.3025e-02 0.0000e+00
1.5961e+00 4.3476e-02 4.3476e-02 0.0000e+00
1.5957e+00 4.3495e-02 4.3495e-02 0.0000e+00
1.5953e+00 4.3513e-02 4.3513e-02 0.0000e+00
1.5949e+00 4.3532e-02 4.3532e-02 0.0000e+00
1.5945e+00 4.3551e-02 4.3551e-02 0.0000e+00
1.5941e+00 4.3569e-02 4.3569e-02 0.0000e+00
1.5937e+00 4.3588e-02 4.3588e-02 0.0000e+00
1.5933e+00 4.3607e-02 4.3607e-02 0.0000e+00
1.5929e+00 4.3625e-02 4.3625e-02 0.0000e+00
1.5925e+00 4.3644e-02 4.3644e-02 0.0000e+00
1.5921e+00 4.3663e-02 4.3663e-02 0.0000e+00
1.5917e+00 4.3681e-02 4.3681e-02 0.0000e+00
1.5913e+00 4.3700e-02 4.3700e-02 0.0000e+00
1.5909e+00 4.3718e-02 4.3718e-02 0.0000e+00
1.5905e+00 4.3737e-02 4.3737e-02 0.0000e+00
1.5901e+00 4.3755e-02 4.3755e-02 0.0000e+00
1.5897e+00 4.3774e-02 4.3774e-02 0.0000e+00
1.5893e+00 4.3793e-02 4.3793e-02 0.0000e+00
1.5888e+00 4.3811e-02 4.3811e-02 0.0000e+00
1.5884e+00 4.3830e-02 4.3830e-02 0.0000e+00
1.5880e+00 4.3848e-02 4.3848e-02 0.0000e+00
1.5876e+00 4.3867e-02 4.3867e-02 0.0000e+00
1.5872e+00 4.3885e-02 4.3885e-02 0.0000e+00
1.5868e+00 4.3904e-02 4.3904e-02 0.0000e+00
1.5864e+00 4.3922e-02 4.3922e-02 0.0000e+00
1.5860e+00 4.3940e-02 4.3940e-02 0.0000e+00
1.5856e+00 4.3959e-02 4.3959e-02 0.0000e+00
1.5852e+00 4.3977e-02 4.3977e-02 0.0000e+00
1.5848e+00 4.3996e-02 4.3996e-02 0.0000e+00
1.5844e+00 4.4014e-02 4.4014e-02 0.0000e+00
1.5840e+00 4.4033e-02 4.4033e-02 0.0000e+00
1.5835e+00 4.4051e-02 4.4051e-02 0.0000e+00
1.5831e+00 4.4069e-02 4.4069e-02 0.0000e+00
1.5827e+00 4.4088e-02 4.4088e-02 0.0000e+00
1.5823e+00 3.9729e-02 3.9729e-02 0.0000e+00
1.5819e+00 3.9764e-02 3.9764e-02 0.0000e+00
1.5815e+00 3.9800e-02 3.9800e-02 0.0000e+00
1.5811e+00 3.9835e-02 3.9835e-02 0.0000e+00
1.5807e+00 3.9871e-02 3.9871e-02 0.0000e+00
1.5803e+00 3.9906e-02 3.9906e-02 0.0000e+00
1.5798e+00 3.9941e-02 3.9941e-02 0.0000e+00
1.5794e+00 3.9977e-02 3.9977e-02 0.0000e+00
1.5790e+00 4.0012e-02 4.0012e-02 0.0000e+00
1.5786e+00 4.0048e-02 4.0048e-02 0.0000e+00
1.5782e+00 4.0083e-02 4.0083e-02 0.0000e+00
1.5778e+00 4.0119e-02 4.0119e-02 0.0000e+00
1.5774e+00 4.0154e-02 4.0154e-02 0.0000e+00
1.5770e+00 4.0190e-02 4.0190e-02 0.0000e+00
1.5765e+00 4.0225e-02 4.0225e-02 0.0000e+00
1.5761e+00 4.0260e-02 4.0260e-02 0.0000e+00
1.5757e+00 4.0296e-02 4.0296e-02 0.0000e+00
1.5753e+00 4.0331e-02 4.0331e-02 0.0000e+00
1.5749e+00 4.0366e-02 4.0366e-02 0.0000e+00
1.5745e+00 4.0402e-02 4.0402e-02 0.0000e+00
1.5740e+00 4.0437e-02 4.0437e-02 0.0000e+00
1.5736e+00 4.0472e-02 4.0472e-02 0.0000e+00