<?xml version="1.0"?>
<VTKFile type="StructuredGrid" version="0.1">
  <StructuredGrid WholeExtent="0 16 0 16 0 16">
    <Piece Extent="0 16 0 16 0 16">
      <PointData Scalars="temperature" Vectors="velocity">
        <DataArray type="Float32" Name="temperature" format="ascii">
1.000000e+00
5.807609e-01
5.884303e-01
5.973072e-01
6.062814e-01
6.147950e-01
6.219546e-01
6.267897e-01
6.285217e-01
6.268414e-01
6.220556e-01
6.149308e-01
6.064079e-01
5.974027e-01
5.885987e-01
5.801158e-01
0.000000e+00
1.000000e+00
5.798521e-01
5.866124e-01
5.944317e-01
6.023436e-01
6.098490e-01
6.161602e-01
6.204211e-01
6.219462e-01
6.204651e-01
6.162470e-01
6.099729e-01
6.024622e-01
5.945265e-01
5.867597e-01
5.793060e-01
0.000000e+00
1.000000e+00
5.788096e-01
5.845712e-01
5.911991e-01
5.979166e-01
6.042885e-01
6.096458e-01
6.132609e-01
6.145527e-01
6.132962e-01
6.097124e-01
6.043842e-01
5.980049e-01
5.912739e-01
5.846820e-01
5.783494e-01
0.000000e+00
1.000000e+00
5.776847e-01
5.823506e-01
5.876927e-01
5.931152e-01
5.982584e-01
6.025818e-01
6.054977e-01
6.065370e-01
6.055231e-01
6.026305e-01
5.983311e-01
5.931855e-01
5.877605e-01
5.824389e-01
5.773072e-01
0.000000e+00
1.000000e+00
5.765197e-01
5.800267e-01
5.840324e-01
5.881037e-01
5.919650e-01
5.952103e-01
5.973979e-01
5.981748e-01
5.974105e-01
5.952417e-01
5.920165e-01
5.881587e-01
5.840953e-01
5.800983e-01
5.762021e-01
0.000000e+00
1.000000e+00
5.753580e-01
5.776980e-01
5.803701e-01
5.830896e-01
5.856687e-01
5.878361e-01
5.892964e-01
5.898131e-01
5.892974e-01
5.878479e-01
5.856978e-01
5.831275e-01
5.804272e-01
5.777568e-01
5.750982e-01
0.000000e+00
1.000000e+00
5.742576e-01
5.754740e-01
5.768779e-01
5.783085e-01
5.796651e-01
5.808052e-01
5.815731e-01
5.818440e-01
5.815701e-01
5.808030e-01
5.796728e-01
5.783276e-01
5.769257e-01
5.755246e-01
5.740355e-01
0.000000e+00
1.000000e+00
5.732820e-01
5.734694e-01
5.737353e-01
5.740056e-01
5.742622e-01
5.744779e-01
5.746231e-01
5.746736e-01
5.746201e-01
5.744726e-01
5.742627e-01
5.740152e-01
5.737682e-01
5.735144e-01
5.730787e-01
0.000000e+00
1.000000e+00
5.724628e-01
5.717910e-01
5.711079e-01
5.704076e-01
5.697438e-01
5.691862e-01
5.688107e-01
5.686774e-01
5.688098e-01
5.691852e-01
5.697506e-01
5.704165e-01
5.711345e-01
5.718370e-01
5.722632e-01
0.000000e+00
1.000000e+00
5.718531e-01
5.705242e-01
5.691248e-01
5.676924e-01
5.663346e-01
5.651940e-01
5.644261e-01
5.641549e-01
5.644286e-01
5.652003e-01
5.663467e-01
5.677054e-01
5.691500e-01
5.705635e-01
5.716773e-01
0.000000e+00
1.000000e+00
5.714641e-01
5.697235e-01
5.678717e-01
5.659768e-01
5.641802e-01
5.626711e-01
5.616550e-01
5.612966e-01
5.616599e-01
5.626821e-01
5.641961e-01
5.659945e-01
5.678945e-01
5.697432e-01
5.714190e-01
0.000000e+00
1.000000e+00
5.713034e-01
5.694080e-01
5.673775e-01
5.653002e-01
5.633307e-01
5.616763e-01
5.605624e-01
5.601696e-01
5.605681e-01
5.616889e-01
5.633485e-01
5.653216e-01
5.674001e-01
5.694261e-01
5.712785e-01
0.000000e+00
1.000000e+00
5.713720e-01
5.695621e-01
5.676175e-01
5.656289e-01
5.637436e-01
5.621598e-01
5.610935e-01
5.607176e-01
5.610991e-01
5.621724e-01
5.637622e-01
5.656541e-01
5.676433e-01
5.695853e-01
5.712654e-01
0.000000e+00
1.000000e+00
5.716484e-01
5.701395e-01
5.685204e-01
5.668652e-01
5.652960e-01
5.639779e-01
5.630904e-01
5.627775e-01
5.630950e-01
5.639888e-01
5.653149e-01
5.668957e-01
5.685520e-01
5.701661e-01
5.715820e-01
0.000000e+00
1.000000e+00
5.720986e-01
5.710732e-01
5.699816e-01
5.688660e-01
5.678085e-01
5.669202e-01
5.663221e-01
5.661110e-01
5.663247e-01
5.669273e-01
5.678248e-01
5.689032e-01
5.700203e-01
5.711086e-01
5.720256e-01
0.000000e+00
1.000000e+00
5.726864e-01
5.722850e-01
5.718790e-01
5.714640e-01
5.710707e-01
5.707405e-01
5.705182e-01
5.704396e-01
5.705184e-01
5.707421e-01
5.710797e-01
5.715027e-01
5.719220e-01
5.723313e-01
5.725770e-01
0.000000e+00
1.000000e+00
5.733759e-01
5.736940e-01
5.740864e-01
5.744865e-01
5.748660e-01
5.751852e-01
5.754003e-01
5.754760e-01
5.753986e-01
5.751822e-01
5.748662e-01
5.745171e-01
5.741379e-01
5.737529e-01
5.731767e-01
0.000000e+00
1.000000e+00
5.815360e-01
5.898406e-01
5.996025e-01
6.094266e-01
6.187467e-01
6.265855e-01
6.318804e-01
6.337778e-01
6.319334e-01
6.266971e-01
6.188955e-01
6.095582e-01
5.996921e-01
5.900489e-01
5.808814e-01
0.000000e+00
1.000000e+00
5.806893e-01
5.881135e-01
5.968896e-01
6.057118e-01
6.140809e-01
6.211196e-01
6.258733e-01
6.275758e-01
6.259165e-01
6.212180e-01
6.142264e-01
6.058506e-01
5.970002e-01
5.883272e-01
5.800974e-01
0.000000e+00
1.000000e+00
5.796936e-01
5.861507e-01
5.937731e-01
6.014435e-01
6.087197e-01
6.148384e-01
6.189693e-01
6.204473e-01
6.190061e-01
6.149197e-01
6.088399e-01
6.015554e-01
5.938689e-01
5.863288e-01
5.791402e-01
0.000000e+00
1.000000e+00
5.785742e-01
5.839897e-01
5.903309e-01
5.967292e-01
6.027984e-01
6.079015e-01
6.113454e-01
6.125760e-01
6.113756e-01
6.079645e-01
6.028936e-01
5.968196e-01
5.904151e-01
5.841255e-01
5.781018e-01
0.000000e+00
1.000000e+00
5.773958e-01
5.816896e-01
5.866823e-01
5.917326e-01
5.965228e-01
6.005499e-01
6.032664e-01
6.042354e-01
6.032877e-01
6.005957e-01
5.965946e-01
5.918052e-01
5.867588e-01
5.817919e-01
5.769925e-01
0.000000e+00
1.000000e+00
5.762088e-01
5.793496e-01
5.829835e-01
5.866677e-01
5.901619e-01
5.930989e-01
5.950791e-01
5.957836e-01
5.950911e-01
5.931281e-01
5.902104e-01
5.867226e-01
5.830512e-01
5.794250e-01
5.758748e-01
0.000000e+00
1.000000e+00
5.750684e-01
5.770867e-01
5.794163e-01
5.817837e-01
5.840288e-01
5.859157e-01
5.871874e-01
5.876388e-01
5.871921e-01
5.859276e-01
5.840550e-01
5.818199e-01
5.794762e-01
5.771437e-01
5.747929e-01
0.000000e+00
1.000000e+00
5.740477e-01
5.750227e-01
5.761745e-01
5.773453e-01
5.784557e-01
5.793890e-01
5.800179e-01
5.802405e-01
5.800176e-01
5.793891e-01
5.784623e-01
5.773607e-01
5.762183e-01
5.750682e-01
5.738112e-01
0.000000e+00
1.000000e+00
5.731942e-01
5.732791e-01
5.734409e-01
5.736022e-01
5.737553e-01
5.738840e-01
5.739707e-01
5.740009e-01
5.739688e-01
5.738805e-01
5.737539e-01
5.736065e-01
5.734661e-01
5.733173e-01
5.729643e-01
0.000000e+00
1.000000e+00
5.725530e-01
5.719511e-01
5.713613e-01
5.707549e-01
5.701800e-01
5.696971e-01
5.693719e-01
5.692567e-01
5.693715e-01
5.696971e-01
5.701832e-01
5.707597e-01
5.713778e-01
5.719863e-01
5.723480e-01
0.000000e+00
1.000000e+00
5.721260e-01
5.711014e-01
5.700311e-01
5.689333e-01
5.678925e-01
5.670181e-01
5.664293e-01
5.662215e-01
5.664316e-01
5.670235e-01
5.679020e-01
5.689429e-01
5.700445e-01
5.711223e-01
5.720772e-01
0.000000e+00
1.000000e+00
5.719513e-01
5.707535e-01
5.694852e-01
5.681861e-01
5.669544e-01
5.659197e-01
5.652229e-01
5.649771e-01
5.652262e-01
5.659274e-01
5.669670e-01
5.682007e-01
5.695002e-01
5.707729e-01
5.719206e-01
0.000000e+00
1.000000e+00
5.720142e-01
5.708913e-01
5.696996e-01
5.684797e-01
5.673232e-01
5.663516e-01
5.656973e-01
5.654664e-01
5.657003e-01
5.663589e-01
5.673361e-01
5.684995e-01
5.697192e-01
5.709151e-01
5.719104e-01
0.000000e+00
1.000000e+00
5.722909e-01
5.714656e-01
5.705978e-01
5.697096e-01
5.688676e-01
5.681602e-01
5.676838e-01
5.675156e-01
5.676856e-01
5.681651e-01
5.688788e-01
5.697349e-01
5.706236e-01
5.714936e-01
5.722214e-01
0.000000e+00
1.000000e+00
5.727467e-01
5.724045e-01
5.720679e-01
5.717225e-01
5.713951e-01
5.711201e-01
5.709350e-01
5.708693e-01
5.709349e-01
5.711211e-01
5.714014e-01
5.717500e-01
5.721003e-01
5.724405e-01
5.726579e-01
0.000000e+00
1.000000e+00
5.733416e-01
5.736247e-01
5.739792e-01
5.743395e-01
5.746814e-01
5.749687e-01
5.751623e-01
5.752304e-01
5.751608e-01
5.749662e-01
5.746818e-01
5.743617e-01
5.740207e-01
5.736699e-01
5.732360e-01
0.000000e+00
1.000000e+00
5.740372e-01
5.750405e-01
5.761982e-01
5.773781e-01
5.784971e-01
5.794374e-01
5.800710e-01
5.802949e-01
5.800695e-01
5.794346e-01
5.784959e-01
5.773992e-01
5.762554e-01
5.750985e-01
5.738317e-01
0.000000e+00
1.000000e+00
5.821259e-01
5.909352e-01
6.014257e-01
6.119243e-01
6.218829e-01
6.302594e-01
6.359181e-01
6.379428e-01
6.359731e-01
6.303851e-01
6.220479e-01
6.120654e-01
6.015131e-01
5.912050e-01
5.814457e-01
0.000000e+00
1.000000e+00
5.813171e-01
5.893172e-01
5.988853e-01
6.084446e-01
6.175124e-01
6.251393e-01
6.302907e-01
6.321322e-01
6.303340e-01
6.252545e-01
6.176730e-01
6.085919e-01
5.989942e-01
5.895991e-01
5.807135e-01
0.000000e+00
1.000000e+00
5.803581e-01
5.874259e-01
5.958955e-01
6.043504e-01
6.123703e-01
6.191152e-01
6.236699e-01
6.252971e-01
6.237056e-01
6.192158e-01
6.125079e-01
6.044752e-01
5.959929e-01
5.876831e-01
5.797927e-01
0.000000e+00
1.000000e+00
5.792932e-01
5.853098e-01
5.925300e-01
5.997414e-01
6.065817e-01
6.123338e-01
6.162173e-01
6.176037e-01
6.162461e-01
6.124167e-01
6.066925e-01
5.998428e-01
5.926146e-01
5.855288e-01
5.787716e-01
0.000000e+00
1.000000e+00
5.781326e-01
5.830407e-01
5.889060e-01
5.947785e-01
6.003486e-01
6.050320e-01
6.081931e-01
6.093204e-01
6.082155e-01
6.050960e-01
6.004348e-01
5.948611e-01
5.889824e-01
5.832115e-01
5.776696e-01
0.000000e+00
1.000000e+00
5.769399e-01
5.807032e-01
5.851833e-01
5.896806e-01
5.939462e-01
5.975323e-01
5.999519e-01
6.008133e-01
5.999678e-01
5.975767e-01
5.940093e-01
5.897445e-01
5.852492e-01
5.808288e-01
5.765428e-01
0.000000e+00
1.000000e+00
5.757582e-01
5.784234e-01
5.815545e-01
5.847116e-01
5.877059e-01
5.902229e-01
5.919202e-01
5.925231e-01
5.919290e-01
5.902471e-01
5.877468e-01
5.847565e-01
5.816096e-01
5.785056e-01
5.754395e-01
0.000000e+00
1.000000e+00
5.746981e-01
5.763180e-01
5.782243e-01
5.801521e-01
5.819805e-01
5.835173e-01
5.845533e-01
5.849211e-01
5.845573e-01
5.835277e-01
5.820012e-01
5.801776e-01
5.782699e-01
5.763754e-01
5.744346e-01
0.000000e+00
1.000000e+00
5.738038e-01
5.745174e-01
5.753950e-01
5.762777e-01
5.771150e-01
5.778187e-01
5.782928e-01
5.784604e-01
5.782918e-01
5.778181e-01
5.771158e-01
5.762821e-01
5.754196e-01
5.745606e-01
5.735654e-01
0.000000e+00
1.000000e+00
5.731155e-01
5.731366e-01
5.732257e-01
5.733073e-01
5.733847e-01
5.734497e-01
5.734934e-01
5.735085e-01
5.734917e-01
5.734464e-01
5.733803e-01
5.733049e-01
5.732360e-01
5.731690e-01
5.729188e-01
0.000000e+00
1.000000e+00
5.726742e-01
5.722434e-01
5.718230e-01
5.713868e-01
5.709734e-01
5.706259e-01
5.703919e-01
5.703092e-01
5.703923e-01
5.706271e-01
5.709758e-01
5.713890e-01
5.718287e-01
5.722649e-01
5.726019e-01
0.000000e+00
1.000000e+00
5.724884e-01
5.718667e-01
5.712305e-01
5.705758e-01
5.699550e-01
5.694335e-01
5.690823e-01
5.689584e-01
5.690837e-01
5.694371e-01
5.699619e-01
5.705834e-01
5.712363e-01
5.718862e-01
5.724221e-01
0.000000e+00
1.000000e+00
5.725465e-01
5.719909e-01
5.714230e-01
5.708394e-01
5.702861e-01
5.698213e-01
5.695083e-01
5.693977e-01
5.695094e-01
5.698244e-01
5.702930e-01
5.708524e-01
5.714336e-01
5.720132e-01
5.724315e-01
0.000000e+00
1.000000e+00
5.728246e-01
5.725641e-01
5.723195e-01
5.720670e-01
5.718276e-01
5.716264e-01
5.714910e-01
5.714429e-01
5.714909e-01
5.716272e-01
5.718316e-01
5.720818e-01
5.723359e-01
5.725909e-01
5.727133e-01
0.000000e+00
1.000000e+00
5.732861e-01
5.735098e-01
5.738007e-01
5.740950e-01
5.743742e-01
5.746088e-01
5.747668e-01
5.748224e-01
5.747655e-01
5.746067e-01
5.743740e-01
5.741079e-01
5.738275e-01
5.735445e-01
5.731432e-01
0.000000e+00
1.000000e+00
5.738879e-01
5.747396e-01
5.757278e-01
5.767339e-01
5.776879e-01
5.784896e-01
5.790297e-01
5.792206e-01
5.790283e-01
5.784869e-01
5.776860e-01
5.767480e-01
5.757727e-01
5.747856e-01
5.737359e-01
0.000000e+00
1.000000e+00
5.745900e-01
5.761637e-01
5.779605e-01
5.797911e-01
5.815270e-01
5.829859e-01
5.839690e-01
5.843170e-01
5.839686e-01
5.829853e-01
5.815307e-01
5.798199e-01
5.780205e-01
5.762213e-01
5.743697e-01
0.000000e+00
1.000000e+00
5.825489e-01
5.916898e-01
6.026542e-01
6.136069e-01
6.239960e-01
6.327347e-01
6.386371e-01
6.407462e-01
6.386974e-01
6.328710e-01
6.241765e-01
6.137587e-01
6.027419e-01
5.919796e-01
5.818204e-01
0.000000e+00
1.000000e+00
5.817890e-01
5.901708e-01
6.002803e-01
6.103546e-01
6.199108e-01
6.279484e-01
6.333769e-01
6.353138e-01
6.334261e-01
6.280759e-01
6.200819e-01
6.105070e-01
6.003864e-01
5.904783e-01
5.811330e-01
0.000000e+00
1.000000e+00
5.808660e-01
5.883561e-01
5.974178e-01
6.064345e-01
6.149868e-01
6.221801e-01
6.270379e-01
6.287698e-01
6.270779e-01
6.222939e-01
6.151367e-01
6.065685e-01
5.975175e-01
5.886500e-01
5.802554e-01
0.000000e+00
1.000000e+00
5.798303e-01
5.862887e-01
5.941331e-01
6.019362e-01
6.093372e-01
6.155619e-01
6.197650e-01
6.212627e-01
6.197969e-01
6.156580e-01
6.094593e-01
6.020448e-01
5.942177e-01
5.865458e-01
5.792549e-01
0.000000e+00
1.000000e+00
5.786700e-01
5.840472e-01
5.905407e-01
5.970169e-01
6.031593e-01
6.083248e-01
6.118118e-01
6.130535e-01
6.118367e-01
6.084014e-01
6.032550e-01
5.971057e-01
5.906174e-01
5.842495e-01
5.781659e-01
0.000000e+00
1.000000e+00
5.774759e-01
5.817038e-01
5.868032e-01
5.918991e-01
5.967324e-01
6.007960e-01
6.035381e-01
6.045140e-01
6.035569e-01
6.008523e-01
5.968035e-01
5.919685e-01
5.868694e-01
5.818578e-01
5.770345e-01
0.000000e+00
1.000000e+00
5.762779e-01
5.793976e-01
5.831219e-01
5.868580e-01
5.904016e-01
5.933804e-01
5.953893e-01
5.961034e-01
5.954017e-01
5.934163e-01
5.904505e-01
5.869084e-01
5.831761e-01
5.795007e-01
5.759136e-01
0.000000e+00
1.000000e+00
5.751823e-01
5.772538e-01
5.797153e-01
5.821934e-01
5.845438e-01
5.865193e-01
5.878512e-01
5.883247e-01
5.878587e-01
5.865386e-01
5.845736e-01
5.822258e-01
5.797591e-01
5.773195e-01
5.748868e-01
0.000000e+00
1.000000e+00
5.742455e-01
5.754057e-01
5.768003e-01
5.782019e-01
5.795310e-01
5.806480e-01
5.814006e-01
5.816673e-01
5.814017e-01
5.806519e-01
5.795396e-01
5.782120e-01
5.768273e-01
5.754514e-01
5.740035e-01
0.000000e+00
1.000000e+00
5.735311e-01
5.739793e-01
5.745512e-01
5.751222e-01
5.756637e-01
5.761186e-01
5.764250e-01
5.765332e-01
5.764238e-01
5.761163e-01
5.756602e-01
5.751193e-01
5.745605e-01
5.740092e-01
5.733361e-01
0.000000e+00
1.000000e+00
5.730698e-01
5.730489e-01
5.730875e-01
5.731183e-01
5.731474e-01
5.731719e-01
5.731883e-01
5.731940e-01
5.731878e-01
5.731708e-01
5.731453e-01
5.731156e-01
5.730888e-01
5.730678e-01
5.729742e-01
0.000000e+00
1.000000e+00
5.728706e-01
5.726491e-01
5.724578e-01
5.722562e-01
5.720650e-01
5.719044e-01
5.717963e-01
5.717581e-01
5.717967e-01
5.719055e-01
5.720669e-01
5.722573e-01
5.724568e-01
5.726648e-01
5.727641e-01
0.000000e+00
1.000000e+00
5.729242e-01
5.727653e-01
5.726373e-01
5.725020e-01
5.723737e-01
5.722660e-01
5.721934e-01
5.721677e-01
5.721936e-01
5.722667e-01
5.723761e-01
5.725061e-01
5.726394e-01
5.727818e-01
5.728013e-01
0.000000e+00
1.000000e+00
5.732051e-01
5.733429e-01
5.735407e-01
5.737390e-01
5.739270e-01
5.740850e-01
5.741913e-01
5.742288e-01
5.741905e-01
5.740837e-01
5.739268e-01
5.737436e-01
5.735508e-01
5.733654e-01
5.730573e-01
0.000000e+00
1.000000e+00
5.736738e-01
5.743009e-01
5.750414e-01
5.757938e-01
5.765073e-01
5.771069e-01
5.775107e-01
5.776534e-01
5.775094e-01
5.771041e-01
5.765042e-01
5.757994e-01
5.750678e-01
5.743327e-01
5.735098e-01
0.000000e+00
1.000000e+00
5.742845e-01
5.755460e-01
5.769929e-01
5.784661e-01
5.798630e-01
5.810370e-01
5.818280e-01
5.821079e-01
5.818272e-01
5.810353e-01
5.798620e-01
5.784841e-01
5.770391e-01
5.755900e-01
5.741083e-01
0.000000e+00
1.000000e+00
5.749952e-01
5.769842e-01
5.792483e-01
5.815543e-01
5.837410e-01
5.855788e-01
5.868174e-01
5.872563e-01
5.868182e-01
5.855811e-01
5.837522e-01
5.815924e-01
5.793034e-01
5.770382e-01
5.747564e-01
0.000000e+00
1.000000e+00
5.826583e-01
5.920896e-01
6.031821e-01
6.143302e-01
6.249063e-01
6.338021e-01
6.398109e-01
6.419594e-01
6.398732e-01
6.339451e-01
6.251007e-01
6.144948e-01
6.032748e-01
5.923158e-01
5.819827e-01
0.000000e+00
1.000000e+00
5.820074e-01
5.906165e-01
6.009507e-01
6.112759e-01
6.210704e-01
6.293081e-01
6.348713e-01
6.368586e-01
6.349253e-01
6.294437e-01
6.212512e-01
6.114357e-01
6.010606e-01
5.909031e-01
5.813314e-01
0.000000e+00
1.000000e+00
5.811318e-01
5.888646e-01
5.982016e-01
6.075107e-01
6.163405e-01
6.237666e-01
6.287812e-01
6.305712e-01
6.288265e-01
6.238881e-01
6.164999e-01
6.076542e-01
5.983089e-01
5.891513e-01
5.804891e-01
0.000000e+00
1.000000e+00
5.800879e-01
5.868622e-01
5.949908e-01
6.031128e-01
6.108164e-01
6.172950e-01
6.216693e-01
6.232297e-01
6.217072e-01
6.173981e-01
6.109467e-01
6.032288e-01
5.950803e-01
5.870925e-01
5.795128e-01
0.000000e+00
1.000000e+00
5.789339e-01
5.846418e-01
5.914291e-01
5.982346e-01
6.046895e-01
6.101176e-01
6.137816e-01
6.150884e-01
6.138134e-01
6.102002e-01
6.047925e-01
5.983298e-01
5.915097e-01
5.848152e-01
5.784353e-01
0.000000e+00
1.000000e+00
5.777364e-01
5.822892e-01
5.876808e-01
5.931011e-01
5.982424e-01
6.025653e-01
6.054824e-01
6.065229e-01
6.055077e-01
6.026267e-01
5.983204e-01
5.931761e-01
5.877497e-01
5.824160e-01
5.772959e-01
0.000000e+00
1.000000e+00
5.765443e-01
5.799439e-01
5.839549e-01
5.879985e-01
5.918338e-01
5.950582e-01
5.972333e-01
5.980090e-01
5.972507e-01
5.950983e-01
5.918885e-01
5.880534e-01
5.840112e-01
5.800310e-01
5.761623e-01
0.000000e+00
1.000000e+00
5.754279e-01
5.777511e-01
5.804814e-01
5.832427e-01
5.858615e-01
5.880631e-01
5.895481e-01
5.900770e-01
5.895573e-01
5.880847e-01
5.858966e-01
5.832798e-01
5.805259e-01
5.778059e-01
5.751367e-01
0.000000e+00
1.000000e+00
5.744722e-01
5.758538e-01
5.774919e-01
5.791490e-01
5.807206e-01
5.820415e-01
5.829320e-01
5.832480e-01
5.829343e-01
5.820484e-01
5.807360e-01
5.791669e-01
5.775242e-01
5.758896e-01
5.742565e-01
0.000000e+00
1.000000e+00
5.737376e-01
5.743817e-01
5.751777e-01
5.759800e-01
5.767409e-01
5.773803e-01
5.778110e-01
5.779632e-01
5.778102e-01
5.773796e-01
5.767411e-01
5.759804e-01
5.751900e-01
5.744031e-01
5.735645e-01
0.000000e+00
1.000000e+00
5.732601e-01
5.734204e-01
5.736679e-01
5.739128e-01
5.741450e-01
5.743400e-01
5.744714e-01
5.745177e-01
5.744706e-01
5.743385e-01
5.741419e-01
5.739092e-01
5.736689e-01
5.734305e-01
5.731496e-01
0.000000e+00
1.000000e+00
5.730486e-01
5.730056e-01
5.730159e-01
5.730202e-01
5.730242e-01
5.730276e-01
5.730299e-01
5.730308e-01
5.730300e-01
5.730277e-01
5.730237e-01
5.730186e-01
5.730134e-01
5.730158e-01
5.729553e-01
0.000000e+00
1.000000e+00
5.731000e-01
5.731225e-01
5.731970e-01
5.732682e-01
5.733358e-01
5.733925e-01
5.734307e-01
5.734442e-01
5.734306e-01
5.733924e-01
5.733357e-01
5.732677e-01
5.731963e-01
5.731339e-01
5.729990e-01
0.000000e+00
1.000000e+00
5.733868e-01
5.737138e-01
5.741220e-01
5.745348e-01
5.749262e-01
5.752551e-01
5.754766e-01
5.755547e-01
5.754756e-01
5.752533e-01
5.749241e-01
5.745337e-01
5.741313e-01
5.737340e-01
5.732189e-01
0.000000e+00
1.000000e+00
5.738664e-01
5.746938e-01
5.756572e-01
5.766370e-01
5.775661e-01
5.783468e-01
5.788728e-01
5.790587e-01
5.788714e-01
5.783438e-01
5.775614e-01
5.766410e-01
5.756861e-01
5.747254e-01
5.736771e-01
0.000000e+00
1.000000e+00
5.744901e-01
5.759643e-01
5.776489e-01
5.793641e-01
5.809907e-01
5.823576e-01
5.832785e-01
5.836046e-01
5.832780e-01
5.823562e-01
5.809903e-01
5.793871e-01
5.776978e-01
5.760068e-01
5.742888e-01
0.000000e+00
1.000000e+00
5.752136e-01
5.774272e-01
5.799434e-01
5.825060e-01
5.849361e-01
5.869784e-01
5.883549e-01
5.888430e-01
5.883568e-01
5.869832e-01
5.849517e-01
5.825492e-01
5.799980e-01
5.774783e-01
5.749648e-01
0.000000e+00
1.000000e+00
5.825394e-01
5.919875e-01
6.029416e-01
6.139992e-01
6.244913e-01
6.333171e-01
6.392800e-01
6.414158e-01
6.393426e-01
6.334604e-01
6.246906e-01
6.141662e-01
6.030353e-01
5.921781e-01
5.819219e-01
0.000000e+00
1.000000e+00
5.819306e-01
5.906086e-01
6.008198e-01
6.110951e-01
6.208440e-01
6.290437e-01
6.345821e-01
6.365653e-01
6.346403e-01
6.291807e-01
6.210274e-01
6.112553e-01
6.009290e-01
5.908301e-01
5.812934e-01
0.000000e+00
1.000000e+00
5.810876e-01
5.889172e-01
5.981542e-01
6.074444e-01
6.162583e-01
6.236711e-01
6.286769e-01
6.304691e-01
6.287288e-01
6.237951e-01
6.164234e-01
6.075941e-01
5.982655e-01
5.891299e-01
5.804793e-01
0.000000e+00
1.000000e+00
5.800685e-01
5.869332e-01
5.949959e-01
6.031183e-01
6.108241e-01
6.173045e-01
6.216798e-01
6.232456e-01
6.217255e-01
6.174096e-01
6.109600e-01
6.032401e-01
5.950896e-01
5.871040e-01
5.795184e-01
0.000000e+00
1.000000e+00
5.789251e-01
5.847047e-01
5.914522e-01
5.982647e-01
6.047275e-01
6.101621e-01
6.138303e-01
6.151427e-01
6.138696e-01
6.102461e-01
6.048357e-01
5.983651e-01
5.915372e-01
5.848376e-01
5.784439e-01
0.000000e+00
1.000000e+00
5.777169e-01
5.823295e-01
5.876889e-01
5.931109e-01
5.982540e-01
6.025782e-01
6.054963e-01
6.065399e-01
6.055277e-01
6.026401e-01
5.983362e-01
5.931899e-01
5.877617e-01
5.824286e-01
5.772971e-01
0.000000e+00
1.000000e+00
5.765097e-01
5.799437e-01
5.839199e-01
5.879502e-01
5.917727e-01
5.949859e-01
5.971536e-01
5.979281e-01
5.971747e-01
5.950262e-01
5.918306e-01
5.880090e-01
5.839808e-01
5.800170e-01
5.761507e-01
0.000000e+00
1.000000e+00
5.753831e-01
5.777024e-01
5.803877e-01
5.831144e-01
5.857003e-01
5.878740e-01
5.893402e-01
5.898630e-01
5.893514e-01
5.878962e-01
5.857369e-01
5.831551e-01
5.804378e-01
5.777554e-01
5.751238e-01
0.000000e+00
1.000000e+00
5.744203e-01
5.757611e-01
5.773376e-01
5.789378e-01
5.804555e-01
5.817312e-01
5.825913e-01
5.828968e-01
5.825943e-01
5.817381e-01
5.804703e-01
5.789578e-01
5.773747e-01
5.757980e-01
5.742562e-01
0.000000e+00
1.000000e+00
5.736736e-01
5.742545e-01
5.749741e-01
5.757013e-01
5.763909e-01
5.769704e-01
5.773607e-01
5.774986e-01
5.773597e-01
5.769691e-01
5.763907e-01
5.757036e-01
5.749898e-01
5.742740e-01
5.735521e-01
0.000000e+00
1.000000e+00
5.731886e-01
5.732738e-01
5.734352e-01
5.735941e-01
5.737448e-01
5.738714e-01
5.739566e-01
5.739865e-01
5.739556e-01
5.738693e-01
5.737417e-01
5.735927e-01
5.734392e-01
5.732798e-01
5.730771e-01
0.000000e+00
1.000000e+00
5.729794e-01
5.728562e-01
5.727797e-01
5.726967e-01
5.726180e-01
5.725518e-01
5.725073e-01
5.724914e-01
5.725071e-01
5.725512e-01
5.726166e-01
5.726966e-01
5.727798e-01
5.728498e-01
5.729049e-01
0.000000e+00
1.000000e+00
5.730347e-01
5.729863e-01
5.729823e-01
5.729741e-01
5.729663e-01
5.729597e-01
5.729552e-01
5.729535e-01
5.729548e-01
5.729588e-01
5.729648e-01
5.729743e-01
5.729840e-01
5.729863e-01
5.729488e-01
0.000000e+00
1.000000e+00
5.733329e-01
5.736039e-01
5.739487e-01
5.742975e-01
5.746281e-01
5.749059e-01
5.750929e-01
5.751588e-01
5.750917e-01
5.749034e-01
5.746242e-01
5.742924e-01
5.739677e-01
5.736170e-01
5.732181e-01
0.000000e+00
1.000000e+00
5.738289e-01
5.746191e-01
5.755390e-01
5.764752e-01
5.773628e-01
5.781087e-01
5.786111e-01
5.787886e-01
5.786095e-01
5.781050e-01
5.773564e-01
5.764699e-01
5.755666e-01
5.746449e-01
5.736663e-01
0.000000e+00
1.000000e+00
5.744718e-01
5.759289e-01
5.775922e-01
5.792865e-01
5.808931e-01
5.822433e-01
5.831529e-01
5.834749e-01
5.831521e-01
5.822413e-01
5.808903e-01
5.793024e-01
5.776448e-01
5.759644e-01
5.742720e-01
0.000000e+00
1.000000e+00
5.752145e-01
5.774309e-01
5.799484e-01
5.825129e-01
5.849447e-01
5.869885e-01
5.883659e-01
5.888543e-01
5.883677e-01
5.869931e-01
5.849582e-01
5.825534e-01
5.800073e-01
5.774772e-01
5.749626e-01
0.000000e+00
1.000000e+00
5.821895e-01
5.913593e-01
6.019071e-01
6.125792e-01
6.227056e-01
6.312246e-01
6.369806e-01
6.390450e-01
6.370452e-01
6.313601e-01
6.228999e-01
6.127397e-01
6.019987e-01
5.915164e-01
5.816094e-01
0.000000e+00
1.000000e+00
5.815662e-01
5.900424e-01
5.998489e-01
6.097614e-01
6.191666e-01
6.270778e-01
6.324216e-01
6.343374e-01
6.324841e-01
6.272090e-01
6.193453e-01
6.099157e-01
5.999554e-01
5.902111e-01
5.809916e-01
0.000000e+00
1.000000e+00
5.807353e-01
5.883813e-01
5.972275e-01
6.061716e-01
6.146575e-01
6.217946e-01
6.266145e-01
6.283424e-01
6.266723e-01
6.219145e-01
6.148203e-01
6.063185e-01
5.973376e-01
5.885423e-01
5.801968e-01
0.000000e+00
1.000000e+00
5.797305e-01
5.863991e-01
5.940903e-01
6.018754e-01
6.092611e-01
6.154721e-01
6.196652e-01
6.211677e-01
6.197163e-01
6.155730e-01
6.093957e-01
6.019967e-01
5.941865e-01
5.865331e-01
5.792429e-01
0.000000e+00
1.000000e+00
5.785977e-01
5.841546e-01
5.905429e-01
5.970179e-01
6.031601e-01
6.083244e-01
6.118096e-01
6.130574e-01
6.118520e-01
6.084036e-01
6.032674e-01
5.971190e-01
5.906317e-01
5.842646e-01
5.781671e-01
0.000000e+00
1.000000e+00
5.773910e-01
5.817517e-01
5.867526e-01
5.918284e-01
5.966425e-01
6.006895e-01
6.034194e-01
6.043953e-01
6.034503e-01
6.007464e-01
5.967234e-01
5.919092e-01
5.868314e-01
5.818396e-01
5.770146e-01
0.000000e+00
1.000000e+00
5.761793e-01
5.793306e-01
5.829397e-01
5.866082e-01
5.900872e-01
5.930113e-01
5.949830e-01
5.956862e-01
5.950010e-01
5.930472e-01
5.901431e-01
5.866699e-01
5.830081e-01
5.793996e-01
5.758543e-01
0.000000e+00
1.000000e+00
5.750459e-01
5.770516e-01
5.793573e-01
5.817033e-01
5.839282e-01
5.857982e-01
5.870591e-01
5.875076e-01
5.870664e-01
5.858151e-01
5.839595e-01
5.817441e-01
5.794161e-01
5.771058e-01
5.748097e-01
0.000000e+00
1.000000e+00
5.740753e-01
5.750779e-01
5.762601e-01
5.774625e-01
5.786029e-01
5.795614e-01
5.802075e-01
5.804366e-01
5.802084e-01
5.795645e-01
5.786118e-01
5.774794e-01
5.763001e-01
5.751147e-01
5.739365e-01
0.000000e+00
1.000000e+00
5.733251e-01
5.735493e-01
5.738646e-01
5.741821e-01
5.744833e-01
5.747364e-01
5.749068e-01
5.749667e-01
5.749051e-01
5.747335e-01
5.744813e-01
5.741877e-01
5.738846e-01
5.735703e-01
5.732235e-01
0.000000e+00
1.000000e+00
5.728363e-01
5.725614e-01
5.723165e-01
5.720624e-01
5.718215e-01
5.716189e-01
5.714823e-01
5.714336e-01
5.714812e-01
5.716166e-01
5.718199e-01
5.720679e-01
5.723271e-01
5.725732e-01
5.727325e-01
0.000000e+00
1.000000e+00
5.726362e-01
5.721541e-01
5.716777e-01
5.711878e-01
5.707233e-01
5.703329e-01
5.700698e-01
5.699766e-01
5.700696e-01
5.703324e-01
5.707236e-01
5.711951e-01
5.716841e-01
5.721552e-01
5.725419e-01
0.000000e+00
1.000000e+00
5.727059e-01
5.723109e-01
5.719225e-01
5.715231e-01
5.711442e-01
5.708259e-01
5.706113e-01
5.705352e-01
5.706109e-01
5.708250e-01
5.711435e-01
5.715305e-01
5.719305e-01
5.723157e-01
5.725820e-01
0.000000e+00
1.000000e+00
5.730218e-01
5.729688e-01
5.729522e-01
5.729329e-01
5.729147e-01
5.728992e-01
5.728886e-01
5.728844e-01
5.728872e-01
5.728963e-01
5.729101e-01
5.729347e-01
5.729745e-01
5.729759e-01
5.729430e-01
0.000000e+00
1.000000e+00
5.735407e-01
5.740338e-01
5.746202e-01
5.752170e-01
5.757828e-01
5.762583e-01
5.765783e-01
5.766911e-01
5.765762e-01
5.762537e-01
5.757752e-01
5.752084e-01
5.746471e-01
5.740545e-01
5.734427e-01
0.000000e+00
1.000000e+00
5.742099e-01
5.753983e-01
5.767586e-01
5.781452e-01
5.794600e-01
5.805649e-01
5.813092e-01
5.815724e-01
5.813076e-01
5.805614e-01
5.794536e-01
5.781474e-01
5.768097e-01
5.754304e-01
5.740687e-01
0.000000e+00
1.000000e+00
5.749787e-01
5.769561e-01
5.792022e-01
5.814911e-01
5.836617e-01
5.854858e-01
5.867151e-01
5.871506e-01
5.867155e-01
5.854871e-01
5.836668e-01
5.815210e-01
5.792673e-01
5.769989e-01
5.747581e-01
0.000000e+00
1.000000e+00
5.815930e-01
5.902313e-01
6.001013e-01
6.101049e-01
6.195956e-01
6.275786e-01
6.329714e-01
6.349052e-01
6.330349e-01
6.276988e-01
6.197716e-01
6.102484e-01
6.001893e-01
5.903647e-01
5.810638e-01
0.000000e+00
1.000000e+00
5.809591e-01
5.889291e-01
5.980546e-01
6.073027e-01
6.160760e-01
6.234546e-01
6.284371e-01
6.302230e-01
6.284978e-01
6.235706e-01
6.162387e-01
6.074443e-01
5.981584e-01
5.890667e-01
5.804471e-01
0.000000e+00
1.000000e+00
5.801293e-01
5.872658e-01
5.954325e-01
6.037124e-01
6.115667e-01
6.181716e-01
6.226302e-01
6.242278e-01
6.226864e-01
6.182782e-01
6.117176e-01
6.038504e-01
5.955415e-01
5.873955e-01
5.796512e-01
0.000000e+00
1.000000e+00
5.791268e-01
5.852680e-01
5.922808e-01
5.993971e-01
6.061472e-01
6.118225e-01
6.156522e-01
6.170227e-01
6.156994e-01
6.119110e-01
6.062721e-01
5.995137e-01
5.923807e-01
5.853792e-01
5.786930e-01
0.000000e+00
1.000000e+00
5.779937e-01
5.829991e-01
5.887053e-01
5.945018e-01
5.999996e-01
6.046212e-01
6.077384e-01
6.088517e-01
6.077737e-01
6.046890e-01
6.000986e-01
5.946012e-01
5.888003e-01
5.830954e-01
5.776085e-01
0.000000e+00
1.000000e+00
5.767814e-01
5.805660e-01
5.848758e-01
5.892589e-01
5.934158e-01
5.969096e-01
5.992652e-01
6.001042e-01
5.992861e-01
5.969552e-01
5.934883e-01
5.893400e-01
5.849634e-01
5.806469e-01
5.764461e-01
0.000000e+00
1.000000e+00
5.755611e-01
5.781122e-01
5.810182e-01
5.839773e-01
5.867837e-01
5.891423e-01
5.907320e-01
5.912967e-01
5.907404e-01
5.891655e-01
5.868285e-01
5.840376e-01
5.810976e-01
5.781795e-01
5.752736e-01
0.000000e+00
1.000000e+00
5.744208e-01
5.758026e-01
5.773931e-01
5.790139e-01
5.805511e-01
5.818432e-01
5.827140e-01
5.830228e-01
5.827157e-01
5.818497e-01
5.805693e-01
5.790480e-01
5.774602e-01
5.758587e-01
5.742120e-01
0.000000e+00
1.000000e+00
5.734451e-01
5.738059e-01
5.742631e-01
5.747282e-01
5.751694e-01
5.755403e-01
5.757904e-01
5.758787e-01
5.757897e-01
5.755398e-01
5.751732e-01
5.747466e-01
5.743056e-01
5.738435e-01
5.733216e-01
0.000000e+00
1.000000e+00
5.726959e-01
5.722668e-01
5.718526e-01
5.714275e-01
5.710244e-01
5.706858e-01
5.704577e-01
5.703767e-01
5.704571e-01
5.706851e-01
5.710283e-01
5.714455e-01
5.718820e-01
5.722919e-01
5.725996e-01
0.000000e+00
1.000000e+00
5.722127e-01
5.712844e-01
5.703143e-01
5.693210e-01
5.683791e-01
5.675877e-01
5.670546e-01
5.668659e-01
5.670551e-01
5.675890e-01
5.683857e-01
5.693397e-01
5.703367e-01
5.713012e-01
5.721384e-01
0.000000e+00
1.000000e+00
5.720221e-01
5.708995e-01
5.697112e-01
5.684953e-01
5.673423e-01
5.663736e-01
5.657210e-01
5.654903e-01
5.657222e-01
5.663761e-01
5.673492e-01
5.685134e-01
5.697270e-01
5.709094e-01
5.719047e-01
0.000000e+00
1.000000e+00
5.721155e-01
5.710948e-01
5.700165e-01
5.689134e-01
5.678674e-01
5.669885e-01
5.663964e-01
5.661870e-01
5.663973e-01
5.669904e-01
5.678723e-01
5.689318e-01
5.700335e-01
5.711076e-01
5.719771e-01
0.000000e+00
1.000000e+00
5.724540e-01
5.718048e-01
5.711277e-01
5.704349e-01
5.697780e-01
5.692260e-01
5.688540e-01
5.687222e-01
5.688536e-01
5.692255e-01
5.697778e-01
5.704546e-01
5.711517e-01
5.718177e-01
5.723653e-01
0.000000e+00
1.000000e+00
5.730004e-01
5.729322e-01
5.728928e-01
5.728518e-01
5.728128e-01
5.727801e-01
5.727578e-01
5.727493e-01
5.727558e-01
5.727763e-01
5.728066e-01
5.728623e-01
5.729245e-01
5.729523e-01
5.729427e-01
0.000000e+00
1.000000e+00
5.737009e-01
5.743651e-01
5.751377e-01
5.759257e-01
5.766729e-01
5.773008e-01
5.777236e-01