<?xml version="1.0"?>
<VTKFile type="StructuredGrid" version="0.1">
  <StructuredGrid WholeExtent="0 16 0 16 0 16">
    <Piece Extent="0 16 0 16 0 16">
      <PointData Scalars="temperature" Vectors="velocity">
        <DataArray type="Float32" Name="temperature" format="ascii">
1.000000e+00
5.733329e-01
5.737023e-01
5.740991e-01
5.745049e-01
5.748897e-01
5.752130e-01
5.754309e-01
5.755081e-01
5.754309e-01
5.752130e-01
5.748897e-01
5.745049e-01
5.740991e-01
5.737023e-01
5.733329e-01
0.000000e+00
1.000000e+00
5.741018e-01
5.753242e-01
5.766373e-01
5.779803e-01
5.792538e-01
5.803239e-01
5.810450e-01
5.813004e-01
5.810450e-01
5.803239e-01
5.792538e-01
5.779803e-01
5.766373e-01
5.753242e-01
5.741018e-01
0.000000e+00
1.000000e+00
5.749926e-01
5.772032e-01
5.795779e-01
5.820067e-01
5.843098e-01
5.862451e-01
5.875493e-01
5.880111e-01
5.875493e-01
5.862451e-01
5.843098e-01
5.820067e-01
5.795779e-01
5.772032e-01
5.749926e-01
0.000000e+00
1.000000e+00
5.759855e-01
5.792975e-01
5.828556e-01
5.864946e-01
5.899453e-01
5.928450e-01
5.947989e-01
5.954910e-01
5.947989e-01
5.928450e-01
5.899453e-01
5.864946e-01
5.828556e-01
5.792976e-01
5.759855e-01
0.000000e+00
1.000000e+00
5.770490e-01
5.815409e-01
5.863664e-01
5.913017e-01
5.959815e-01
5.999142e-01
6.025642e-01
6.035027e-01
6.025642e-01
5.999142e-01
5.959815e-01
5.913017e-01
5.863664e-01
5.815409e-01
5.770490e-01
0.000000e+00
1.000000e+00
5.781403e-01
5.838430e-01
5.899691e-01
5.962347e-01
6.021760e-01
6.071687e-01
6.105329e-01
6.117245e-01
6.105329e-01
6.071687e-01
6.021760e-01
5.962347e-01
5.899691e-01
5.838430e-01
5.781403e-01
0.000000e+00
1.000000e+00
5.792078e-01
5.860947e-01
5.934931e-01
6.010598e-01
6.082349e-01
6.142644e-01
6.183273e-01
6.197662e-01
6.183273e-01
6.142644e-01
6.082349e-01
6.010598e-01
5.934931e-01
5.860947e-01
5.792078e-01
0.000000e+00
1.000000e+00
5.801948e-01
5.881767e-01
5.967513e-01
6.055212e-01
6.138370e-01
6.208252e-01
6.255341e-01
6.272018e-01
6.255341e-01
6.208252e-01
6.138370e-01
6.055212e-01
5.967513e-01
5.881767e-01
5.801948e-01
0.000000e+00
1.000000e+00
5.810455e-01
5.899713e-01
5.995598e-01
6.093667e-01
6.186658e-01
6.264803e-01
6.317460e-01
6.336109e-01
6.317460e-01
6.264803e-01
6.186658e-01
6.093667e-01
5.995598e-01
5.899713e-01
5.810456e-01
0.000000e+00
1.000000e+00
5.817112e-01
5.913754e-01
6.017574e-01
6.123756e-01
6.224442e-01
6.309052e-01
6.366066e-01
6.386258e-01
6.366066e-01
6.309052e-01
6.224442e-01
6.123756e-01
6.017574e-01
5.913755e-01
5.817113e-01
0.000000e+00
1.000000e+00
5.821555e-01
5.923125e-01
6.032239e-01
6.143836e-01
6.249656e-01
6.338581e-01
6.398502e-01
6.419725e-01
6.398502e-01
6.338581e-01
6.249656e-01
6.143836e-01
6.032239e-01
5.923125e-01
5.821555e-01
0.000000e+00
1.000000e+00
5.823580e-01
5.927397e-01
6.038924e-01
6.152990e-01
6.261151e-01
6.352042e-01
6.413289e-01
6.434981e-01
6.413289e-01
6.352042e-01
6.261151e-01
6.152990e-01
6.038924e-01
5.927397e-01
5.823580e-01
0.000000e+00
1.000000e+00
5.823158e-01
5.926507e-01
6.037531e-01
6.151082e-01
6.258756e-01
6.349237e-01
6.410208e-01
6.431802e-01
6.410208e-01
6.349237e-01
6.258756e-01
6.151082e-01
6.037531e-01
5.926507e-01
5.823158e-01
0.000000e+00
1.000000e+00
5.820418e-01
5.920728e-01
6.028488e-01
6.138700e-01
6.243207e-01
6.331028e-01
6.390206e-01
6.411165e-01
6.390206e-01
6.331028e-01
6.243207e-01
6.138700e-01
6.028488e-01
5.920729e-01
5.820419e-01
0.000000e+00
1.000000e+00
5.815618e-01
5.910603e-01
6.012642e-01
6.117003e-01
6.215962e-01
6.299121e-01
6.355157e-01
6.375003e-01
6.355157e-01
6.299121e-01
6.215962e-01
6.117003e-01
6.012642e-01
5.910603e-01
5.815619e-01
0.000000e+00
1.000000e+00
5.809098e-01
5.896849e-01
5.991117e-01
6.087530e-01
6.178953e-01
6.255779e-01
6.307547e-01
6.325882e-01
6.307547e-01
6.255778e-01
6.178953e-01
6.087530e-01
5.991116e-01
5.896849e-01
5.809098e-01
0.000000e+00
1.000000e+00
5.801237e-01
5.880267e-01
5.965167e-01
6.051998e-01
6.134335e-01
6.203526e-01
6.250150e-01
6.266662e-01
6.250150e-01
6.203526e-01
6.134335e-01
6.051998e-01
5.965166e-01
5.880267e-01
5.801237e-01
0.000000e+00
1.000000e+00
5.739725e-01
5.750514e-01
5.762104e-01
5.773957e-01
5.785198e-01
5.794643e-01
5.801008e-01
5.803262e-01
5.801008e-01
5.794643e-01
5.785198e-01
5.773957e-01
5.762104e-01
5.750514e-01
5.739725e-01
0.000000e+00
1.000000e+00
5.747678e-01
5.767289e-01
5.788357e-01
5.809905e-01
5.830337e-01
5.847507e-01
5.859077e-01
5.863174e-01
5.859077e-01
5.847507e-01
5.830337e-01
5.809905e-01
5.788357e-01
5.767289e-01
5.747678e-01
0.000000e+00
1.000000e+00
5.756870e-01
5.786679e-01
5.818702e-01
5.851454e-01
5.882510e-01
5.908608e-01
5.926194e-01
5.932422e-01
5.926194e-01
5.908608e-01
5.882510e-01
5.851454e-01
5.818702e-01
5.786679e-01
5.756870e-01
0.000000e+00
1.000000e+00
5.767086e-01
5.808228e-01
5.852426e-01
5.897630e-01
5.940494e-01
5.976515e-01
6.000787e-01
6.009383e-01
6.000787e-01
5.976515e-01
5.940494e-01
5.897630e-01
5.852426e-01
5.808228e-01
5.767086e-01
0.000000e+00
1.000000e+00
5.777981e-01
5.831212e-01
5.888396e-01
5.946881e-01
6.002339e-01
6.048942e-01
6.080345e-01
6.091467e-01
6.080345e-01
6.048942e-01
6.002338e-01
5.946881e-01
5.888396e-01
5.831212e-01
5.777982e-01
0.000000e+00
1.000000e+00
5.789090e-01
5.854643e-01
5.925066e-01
5.997091e-01
6.065387e-01
6.122780e-01
6.161453e-01
6.175150e-01
6.161453e-01
6.122780e-01
6.065387e-01
5.997091e-01
5.925066e-01
5.854644e-01
5.789090e-01
0.000000e+00
1.000000e+00
5.799844e-01
5.877329e-01
5.960568e-01
6.045702e-01
6.126429e-01
6.194267e-01
6.239979e-01
6.256169e-01
6.239979e-01
6.194267e-01
6.126429e-01
6.045702e-01
5.960568e-01
5.877329e-01
5.799844e-01
0.000000e+00
1.000000e+00
5.809629e-01
5.897970e-01
5.992871e-01
6.089932e-01
6.181969e-01
6.259311e-01
6.311427e-01
6.329885e-01
6.311427e-01
6.259311e-01
6.181969e-01
6.089932e-01
5.992871e-01
5.897970e-01
5.809629e-01
0.000000e+00
1.000000e+00
5.817845e-01
5.915300e-01
6.019993e-01
6.127068e-01
6.228601e-01
6.313923e-01
6.371417e-01
6.391779e-01
6.371417e-01
6.313923e-01
6.228601e-01
6.127068e-01
6.019993e-01
5.915300e-01
5.817845e-01
0.000000e+00
1.000000e+00
5.823978e-01
5.928237e-01
6.040239e-01
6.154791e-01
6.263412e-01
6.354691e-01
6.416199e-01
6.437983e-01
6.416199e-01
6.354691e-01
6.263412e-01
6.154791e-01
6.040239e-01
5.928238e-01
5.823978e-01
0.000000e+00
1.000000e+00
5.827663e-01
5.936011e-01
6.052405e-01
6.171448e-01
6.284329e-01
6.379187e-01
6.443107e-01
6.465745e-01
6.443106e-01
6.379187e-01
6.284329e-01
6.171448e-01
6.052405e-01
5.936011e-01
5.827664e-01
0.000000e+00
1.000000e+00
5.828722e-01
5.938244e-01
6.055900e-01
6.176233e-01
6.290338e-01
6.386224e-01
6.450837e-01
6.473720e-01
6.450837e-01
6.386224e-01
6.290338e-01
6.176233e-01
6.055900e-01
5.938244e-01
5.828722e-01
0.000000e+00
1.000000e+00
5.827171e-01
5.934972e-01
6.050780e-01
6.169223e-01
6.281535e-01
6.375915e-01
6.439512e-01
6.462036e-01
6.439512e-01
6.375915e-01
6.281535e-01
6.169223e-01
6.050780e-01
5.934973e-01
5.827171e-01
0.000000e+00
1.000000e+00
5.823202e-01
5.926599e-01
6.037675e-01
6.151280e-01
6.259004e-01
6.349529e-01
6.410528e-01
6.432132e-01
6.410528e-01
6.349529e-01
6.259004e-01
6.151280e-01
6.037675e-01
5.926599e-01
5.823202e-01
0.000000e+00
1.000000e+00
5.817137e-01
5.913806e-01
6.017654e-01
6.123866e-01
6.224580e-01
6.309213e-01
6.366243e-01
6.386441e-01
6.366243e-01
6.309213e-01
6.224580e-01
6.123866e-01
6.017654e-01
5.913806e-01
5.817137e-01
0.000000e+00
1.000000e+00
5.809379e-01
5.897442e-01
5.992045e-01
6.088801e-01
6.180549e-01
6.257648e-01
6.309600e-01
6.328000e-01
6.309600e-01
6.257648e-01
6.180549e-01
6.088801e-01
5.992045e-01
5.897442e-01
5.809379e-01
0.000000e+00
1.000000e+00
5.800361e-01
5.878419e-01
5.962273e-01
6.048037e-01
6.129361e-01
6.197701e-01
6.243751e-01
6.260060e-01
6.243751e-01
6.197701e-01
6.129361e-01
6.048037e-01
5.962273e-01
5.878419e-01
5.800361e-01
0.000000e+00
1.000000e+00
5.745063e-01
5.761774e-01
5.779725e-01
5.798085e-01
5.815495e-01
5.830125e-01
5.839984e-01
5.843475e-01
5.839984e-01
5.830125e-01
5.815495e-01
5.798085e-01
5.779725e-01
5.761774e-01
5.745063e-01
0.000000e+00
1.000000e+00
5.753204e-01
5.778947e-01
5.806602e-01
5.834886e-01
5.861705e-01
5.884243e-01
5.899430e-01
5.904809e-01
5.899430e-01
5.884243e-01
5.861705e-01
5.834885e-01
5.806602e-01
5.778947e-01
5.753204e-01
0.000000e+00
1.000000e+00
5.762600e-01
5.798767e-01
5.837620e-01
5.877356e-01
5.915036e-01
5.946700e-01
5.968037e-01
5.975593e-01
5.968037e-01
5.946700e-01
5.915036e-01
5.877356e-01
5.837619e-01
5.798767e-01
5.762600e-01
0.000000e+00
1.000000e+00
5.773020e-01
5.820747e-01
5.872018e-01
5.924456e-01
5.974179e-01
6.015964e-01
6.044120e-01
6.054092e-01
6.044120e-01
6.015964e-01
5.974179e-01
5.924456e-01
5.872018e-01
5.820747e-01
5.773020e-01
0.000000e+00
1.000000e+00
5.784094e-01
5.844105e-01
5.908574e-01
5.974509e-01
6.037032e-01
6.089572e-01
6.124975e-01
6.137514e-01
6.124975e-01
6.089572e-01
6.037032e-01
5.974509e-01
5.908574e-01
5.844105e-01
5.784094e-01
0.000000e+00
1.000000e+00
5.795316e-01
5.867776e-01
5.945618e-01
6.025232e-01
6.100725e-01
6.164165e-01
6.206913e-01
6.222053e-01
6.206913e-01
6.164164e-01
6.100725e-01
6.025232e-01
5.945618e-01
5.867777e-01
5.795316e-01
0.000000e+00
1.000000e+00
5.806074e-01
5.890470e-01
5.981134e-01
6.073861e-01
6.161788e-01
6.235677e-01
6.285466e-01
6.303100e-01
6.285466e-01
6.235677e-01
6.161788e-01
6.073861e-01
5.981134e-01
5.890470e-01
5.806074e-01
0.000000e+00
1.000000e+00
5.815706e-01
5.910789e-01
6.012932e-01
6.117401e-01
6.216462e-01
6.299706e-01
6.355800e-01
6.375666e-01
6.355800e-01
6.299706e-01
6.216462e-01
6.117401e-01
6.012932e-01
5.910789e-01
5.815707e-01
0.000000e+00
1.000000e+00
5.823574e-01
5.927386e-01
6.038907e-01
6.152966e-01
6.261121e-01
6.352008e-01
6.413251e-01
6.434941e-01
6.413251e-01
6.352008e-01
6.261121e-01
6.152966e-01
6.038907e-01
5.927386e-01
5.823575e-01
0.000000e+00
1.000000e+00
5.829144e-01
5.939134e-01
6.057293e-01
6.178141e-01
6.292733e-01
6.389029e-01
6.453918e-01
6.476899e-01
6.453918e-01
6.389029e-01
6.292733e-01
6.178141e-01
6.057293e-01
5.939134e-01
5.829144e-01
0.000000e+00
1.000000e+00
5.832053e-01
5.945270e-01
6.066895e-01
6.191289e-01
6.309244e-01
6.408365e-01
6.475158e-01
6.498813e-01
6.475158e-01
6.408365e-01
6.309244e-01
6.191289e-01
6.066895e-01
5.945271e-01
5.832053e-01
0.000000e+00
1.000000e+00
5.832152e-01
5.945478e-01
6.067221e-01
6.191736e-01
6.309804e-01
6.409022e-01
6.475879e-01
6.499557e-01
6.475879e-01
6.409022e-01
6.309804e-01
6.191735e-01
6.067221e-01
5.945479e-01
5.832152e-01
0.000000e+00
1.000000e+00
5.829507e-01
5.939900e-01
6.058492e-01
6.179782e-01
6.294794e-01
6.391443e-01
6.456570e-01
6.479635e-01
6.456570e-01
6.391443e-01
6.294794e-01
6.179782e-01
6.058492e-01
5.939901e-01
5.829507e-01
0.000000e+00
1.000000e+00
5.824374e-01
5.929072e-01
6.041545e-01
6.156578e-01
6.265657e-01
6.357320e-01
6.419086e-01
6.440962e-01
6.419086e-01
6.357320e-01
6.265657e-01
6.156578e-01
6.041545e-01
5.929072e-01
5.824374e-01
0.000000e+00
1.000000e+00
5.817139e-01
5.913812e-01
6.017663e-01
6.123879e-01
6.224596e-01
6.309233e-01
6.366264e-01
6.386463e-01
6.366264e-01
6.309233e-01
6.224596e-01
6.123879e-01
6.017663e-01
5.913812e-01
5.817140e-01
0.000000e+00
1.000000e+00
5.808266e-01
5.895095e-01
5.988372e-01
6.083772e-01
6.174233e-01
6.250251e-01
6.301476e-01
6.319618e-01
6.301476e-01
6.250251e-01
6.174233e-01
6.083771e-01
5.988372e-01
5.895095e-01
5.808267e-01
0.000000e+00
1.000000e+00
5.798232e-01
5.873929e-01
5.955247e-01
6.038416e-01
6.117280e-01
6.183552e-01
6.228209e-01
6.244025e-01
6.228209e-01
6.183552e-01
6.117280e-01
6.038416e-01
5.955247e-01
5.873929e-01
5.798232e-01
0.000000e+00
1.000000e+00
5.748965e-01
5.770004e-01
5.792606e-01
5.815722e-01
5.837642e-01
5.856062e-01
5.868474e-01
5.872870e-01
5.868474e-01
5.856062e-01
5.837642e-01
5.815722e-01
5.792606e-01
5.770004e-01
5.748965e-01
0.000000e+00
1.000000e+00
5.757182e-01
5.787337e-01
5.819732e-01
5.852864e-01
5.884281e-01
5.910682e-01
5.928472e-01
5.934773e-01
5.928472e-01
5.910682e-01
5.884281e-01
5.852864e-01
5.819732e-01
5.787337e-01
5.757182e-01
0.000000e+00
1.000000e+00
5.766663e-01
5.807336e-01
5.851030e-01
5.895719e-01
5.938094e-01
5.973704e-01
5.997699e-01
6.006198e-01
5.997699e-01
5.973704e-01
5.938094e-01
5.895719e-01
5.851030e-01
5.807336e-01
5.766663e-01
0.000000e+00
1.000000e+00
5.777166e-01
5.829491e-01
5.885702e-01
5.943193e-01
5.997707e-01
6.043518e-01
6.074387e-01
6.085320e-01
6.074387e-01
6.043518e-01
5.997707e-01
5.943193e-01
5.885702e-01
5.829491e-01
5.777166e-01
0.000000e+00
1.000000e+00
5.788298e-01
5.852974e-01
5.922454e-01
5.993514e-01
6.060897e-01
6.117520e-01
6.155676e-01
6.169189e-01
6.155676e-01
6.117520e-01
6.060897e-01
5.993514e-01
5.922454e-01
5.852975e-01
5.788299e-01
0.000000e+00
1.000000e+00
5.799524e-01
5.876654e-01
5.959512e-01
6.044256e-01
6.124613e-01
6.192140e-01
6.237643e-01
6.253758e-01
6.237643e-01
6.192140e-01
6.124613e-01
6.044256e-01
5.959512e-01
5.876654e-01
5.799524e-01
0.000000e+00
1.000000e+00
5.810192e-01
5.899157e-01
5.994730e-01
6.092477e-01
6.185165e-01
6.263054e-01
6.315538e-01
6.334127e-01
6.315538e-01
6.263054e-01
6.185165e-01
6.092477e-01
5.994729e-01
5.899158e-01
5.810193e-01
0.000000e+00
1.000000e+00
5.819600e-01
5.919003e-01
6.025788e-01
6.135003e-01
6.238565e-01
6.325592e-01
6.384234e-01
6.405003e-01
6.384234e-01
6.325592e-01
6.238565e-01
6.135003e-01
6.025788e-01
5.919003e-01
5.819601e-01
0.000000e+00
1.000000e+00
5.827078e-01
5.934776e-01
6.050472e-01
6.168802e-01
6.281006e-01
6.375296e-01
6.438832e-01
6.461335e-01
6.438832e-01
6.375296e-01
6.281006e-01
6.168802e-01
6.050472e-01
5.934776e-01
5.827078e-01
0.000000e+00
1.000000e+00
5.832075e-01
5.945317e-01
6.066969e-01
6.191390e-01
6.309370e-01
6.408513e-01
6.475320e-01
6.498980e-01
6.475320e-01
6.408513e-01
6.309370e-01
6.191389e-01
6.066969e-01
5.945317e-01
5.832075e-01
0.000000e+00
1.000000e+00
5.834237e-01
5.949878e-01
6.074106e-01
6.201162e-01
6.321642e-01
6.422885e-01
6.491107e-01
6.515269e-01
6.491107e-01
6.422885e-01
6.321641e-01
6.201162e-01
6.074106e-01
5.949878e-01
5.834237e-01
0.000000e+00
1.000000e+00
5.833446e-01
5.948208e-01
6.071493e-01
6.197585e-01
6.317149e-01
6.417623e-01
6.485327e-01
6.509306e-01
6.485327e-01
6.417623e-01
6.317149e-01
6.197585e-01
6.071493e-01
5.948208e-01
5.833446e-01
0.000000e+00
1.000000e+00
5.829817e-01
5.940554e-01
6.059514e-01
6.181183e-01
6.296553e-01
6.393503e-01
6.458832e-01
6.481970e-01
6.458832e-01
6.393503e-01
6.296553e-01
6.181183e-01
6.059514e-01
5.940554e-01
5.829817e-01
0.000000e+00
1.000000e+00
5.823665e-01
5.927576e-01
6.039205e-01
6.153374e-01
6.261633e-01
6.352608e-01
6.413910e-01
6.435622e-01
6.413910e-01
6.352608e-01
6.261633e-01
6.153374e-01
6.039205e-01
5.927577e-01
5.823665e-01
0.000000e+00
1.000000e+00
5.815436e-01
5.910220e-01
6.012042e-01
6.116181e-01
6.214930e-01
6.297913e-01
6.353830e-01
6.373634e-01
6.353830e-01
6.297913e-01
6.214930e-01
6.116181e-01
6.012041e-01
5.910220e-01
5.815437e-01
0.000000e+00
1.000000e+00
5.805644e-01
5.889564e-01
5.979716e-01
6.071920e-01
6.159351e-01
6.232823e-01
6.282331e-01
6.299866e-01
6.282331e-01
6.232823e-01
6.159351e-01
6.071920e-01
5.979716e-01
5.889564e-01
5.805645e-01
0.000000e+00
1.000000e+00
5.794804e-01
5.866697e-01
5.943929e-01
6.022919e-01
6.097820e-01
6.160762e-01
6.203175e-01
6.218197e-01
6.203175e-01
6.160762e-01
6.097820e-01
6.022919e-01
5.943929e-01
5.866697e-01
5.794804e-01
0.000000e+00
1.000000e+00
5.751072e-01
5.774450e-01
5.799563e-01
5.825248e-01
5.849604e-01
5.870070e-01
5.883862e-01
5.888746e-01
5.883862e-01
5.870070e-01
5.849604e-01
5.825248e-01
5.799563e-01
5.774450e-01
5.751072e-01
0.000000e+00
1.000000e+00
5.759215e-01
5.791626e-01
5.826443e-01
5.862054e-01
5.895821e-01
5.924196e-01
5.943317e-01
5.950089e-01
5.943317e-01
5.924196e-01
5.895821e-01
5.862054e-01
5.826443e-01
5.791626e-01
5.759215e-01
0.000000e+00
1.000000e+00
5.768623e-01
5.811472e-01
5.857503e-01
5.904581e-01
5.949223e-01
5.986737e-01
6.012015e-01
6.020968e-01
6.012015e-01
5.986737e-01
5.949223e-01
5.904581e-01
5.857503e-01
5.811472e-01
5.768623e-01
0.000000e+00
1.000000e+00
5.779050e-01
5.833466e-01
5.891923e-01
5.951711e-01
6.008404e-01
6.056045e-01
6.088147e-01
6.099517e-01
6.088147e-01
6.056045e-01
6.008404e-01
5.951711e-01
5.891923e-01
5.833466e-01
5.779050e-01
0.000000e+00
1.000000e+00
5.790090e-01
5.856753e-01
5.928367e-01
6.001612e-01
6.071064e-01
6.129428e-01
6.168756e-01
6.182685e-01
6.168756e-01
6.129428e-01
6.071064e-01
6.001612e-01
5.928367e-01
5.856753e-01
5.790090e-01
0.000000e+00
1.000000e+00
5.801184e-01
5.880155e-01
5.964990e-01
6.051757e-01
6.134032e-01
6.203171e-01
6.249760e-01
6.266260e-01
6.249760e-01
6.203171e-01
6.134032e-01
6.051757e-01
5.964990e-01
5.880155e-01
5.801184e-01
0.000000e+00
1.000000e+00
5.811653e-01
5.902239e-01
5.999552e-01
6.099080e-01
6.193456e-01
6.272764e-01
6.326205e-01
6.345132e-01
6.326205e-01
6.272764e-01
6.193456e-01
6.099080e-01
5.999552e-01
5.902239e-01
5.811653e-01
0.000000e+00
1.000000e+00
5.820767e-01
5.921463e-01
6.029637e-01
6.140274e-01
6.245184e-01
6.333343e-01
6.392749e-01
6.413788e-01
6.392749e-01
6.333343e-01
6.245184e-01
6.140274e-01
6.029637e-01
5.921463e-01
5.820767e-01
0.000000e+00
1.000000e+00
5.827831e-01
5.936364e-01
6.052957e-01
6.172204e-01
6.285278e-01
6.380299e-01
6.444328e-01
6.467005e-01
6.444328e-01
6.380299e-01
6.285278e-01
6.172204e-01
6.052957e-01
5.936364e-01
5.827831e-01
0.000000e+00
1.000000e+00
5.832286e-01
5.945763e-01
6.067666e-01
6.192345e-01
6.310569e-01
6.409918e-01
6.476863e-01
6.500573e-01
6.476863e-01
6.409918e-01
6.310569e-01
6.192345e-01
6.067666e-01
5.945763e-01
5.832287e-01
0.000000e+00
1.000000e+00
5.833789e-01
5.948933e-01
6.072628e-01
6.199139e-01
6.319100e-01
6.419909e-01
6.487838e-01
6.511896e-01
6.487838e-01
6.419909e-01
6.319100e-01
6.199139e-01
6.072628e-01
5.948934e-01
5.833790e-01
0.000000e+00
1.000000e+00
5.832250e-01
5.945686e-01
6.067547e-01
6.192181e-01
6.310363e-01
6.409677e-01
6.476598e-01
6.500299e-01
6.476598e-01
6.409677e-01
6.310363e-01
6.192181e-01
6.067547e-01
5.945687e-01
5.832250e-01
0.000000e+00
1.000000e+00
5.827828e-01
5.936359e-01
6.052950e-01
6.172194e-01
6.285266e-01
6.380285e-01
6.444312e-01
6.466989e-01
6.444312e-01
6.380285e-01
6.285266e-01
6.172194e-01
6.052950e-01
5.936359e-01
5.827829e-01
0.000000e+00
1.000000e+00
5.820887e-01
5.921717e-01
6.030036e-01
6.140820e-01
6.245869e-01
6.334145e-01
6.393630e-01
6.414697e-01
6.393630e-01
6.334145e-01
6.245869e-01
6.140819e-01
6.030036e-01
5.921718e-01
5.820888e-01
0.000000e+00
1.000000e+00
5.811921e-01
5.902805e-01
6.000438e-01
6.100293e-01
6.194979e-01
6.274547e-01
6.328164e-01
6.347153e-01
6.328164e-01
6.274547e-01
6.194979e-01
6.100293e-01
6.000437e-01
5.902805e-01
5.811922e-01
0.000000e+00
1.000000e+00
5.801481e-01
5.880782e-01
5.965972e-01
6.053101e-01
6.135719e-01
6.205147e-01
6.251930e-01
6.268500e-01
6.251930e-01
6.205147e-01
6.135719e-01
6.053101e-01
5.965971e-01
5.880782e-01
5.801481e-01
0.000000e+00
1.000000e+00
5.790106e-01
5.856787e-01
5.928420e-01
6.001684e-01
6.071155e-01
6.129534e-01
6.168873e-01
6.182805e-01
6.168873e-01
6.129534e-01
6.071155e-01
6.001684e-01
5.928420e-01
5.856787e-01
5.790106e-01
0.000000e+00
1.000000e+00
5.751091e-01
5.774489e-01
5.799624e-01
5.825332e-01
5.849709e-01
5.870194e-01
5.883997e-01
5.888886e-01
5.883997e-01
5.870194e-01
5.849709e-01
5.825332e-01
5.799624e-01
5.774489e-01
5.751091e-01
0.000000e+00
1.000000e+00
5.758979e-01
5.791129e-01
5.825666e-01
5.860989e-01
5.894483e-01
5.922630e-01
5.941596e-01
5.948314e-01
5.941596e-01
5.922630e-01
5.894483e-01
5.860989e-01
5.825665e-01
5.791129e-01
5.758979e-01
0.000000e+00
1.000000e+00
5.768127e-01
5.810425e-01
5.855865e-01
5.902338e-01
5.946406e-01
5.983438e-01
6.008392e-01
6.017230e-01
6.008392e-01
5.983438e-01
5.946406e-01
5.902338e-01
5.855865e-01
5.810425e-01
5.768127e-01
0.000000e+00
1.000000e+00
5.778289e-01
5.831861e-01
5.889411e-01
5.948271e-01
6.004085e-01
6.050987e-01
6.082591e-01
6.093784e-01
6.082591e-01
6.050987e-01
6.004085e-01
5.948271e-01
5.889411e-01
5.831861e-01
5.778289e-01
0.000000e+00
1.000000e+00
5.789057e-01
5.854575e-01
5.924959e-01
5.996945e-01
6.065204e-01
6.122565e-01
6.161218e-01
6.174907e-01
6.161218e-01
6.122565e-01
6.065204e-01
5.996945e-01
5.924959e-01
5.854576e-01
5.789058e-01
0.000000e+00
1.000000e+00
5.799865e-01
5.877373e-01
5.960637e-01
6.045797e-01
6.126548e-01
6.194406e-01
6.240132e-01
6.256326e-01
6.240132e-01
6.194406e-01
6.126548e-01
6.045797e-01
5.960637e-01
5.877373e-01
5.799865e-01
0.000000e+00
1.000000e+00
5.810021e-01
5.898795e-01
5.994163e-01
6.091701e-01
6.184190e-01
6.261912e-01
6.314285e-01
6.332833e-01
6.314285e-01
6.261912e-01
6.184190e-01
6.091701e-01
5.994163e-01
5.898796e-01
5.810021e-01
0.000000e+00
1.000000e+00
5.818778e-01
5.917268e-01
6.023073e-01
6.131286e-01
6.233897e-01
6.320125e-01
6.378229e-01
6.398807e-01
6.378229e-01
6.320125e-01
6.233897e-01
6.131286e-01
6.023073e-01
5.917268e-01
5.818778e-01
0.000000e+00
1.000000e+00
5.825433e-01
5.931306e-01
6.045041e-01
6.161366e-01
6.271669e-01
6.364360e-01
6.426820e-01
6.448941e-01
6.426820e-01
6.364360e-01
6.271668e-01
6.161366e-01
6.045041e-01
5.931306e-01
5.825433e-01
0.000000e+00
1.000000e+00
5.829424e-01
5.939725e-01
6.058217e-01
6.179407e-01
6.294323e-01
6.390891e-01
6.455963e-01
6.479009e-01
6.455963e-01
6.390891e-01
6.294323e-01
6.179407e-01
6.058217e-01
5.939725e-01
5.829424e-01
0.000000e+00
1.000000e+00
5.830418e-01
5.941821e-01
6.061497e-01
6.183898e-01
6.299962e-01
6.397496e-01
6.463218e-01
6.486495e-01
6.463218e-01
6.397496e-01
6.299962e-01
6.183898e-01
6.061497e-01
5.941821e-01
5.830418e-01
0.000000e+00
1.000000e+00
5.828347e-01
5.937452e-01
6.054661e-01
6.174537e-01
6.288208e-01
6.383729e-01
6.448096e-01
6.470893e-01
6.448096e-01
6.383729e-01
6.288208e-01
6.174537e-01
6.054661e-01
5.937453e-01
5.828347e-01
0.000000e+00
1.000000e+00
5.823402e-01
5.927022e-01
6.038338e-01
6.152187e-01
6.260143e-01
6.350862e-01
6.411993e-01
6.433643e-01
6.411993e-01
6.350862e-01
6.260143e-01
6.152187e-01
6.038338e-01
5.927023e-01
5.823402e-01
0.000000e+00
1.000000e+00
5.815981e-01
5.911367e-01
6.013838e-01
6.118640e-01
6.218018e-01
6.301529e-01
6.357802e-01
6.377732e-01
6.357802e-01
6.301529e-01
6.218018e-01
6.118640e-01
6.013837e-01
5.911367e-01
5.815981e-01
0.000000e+00
1.000000e+00
5.806606e-01
5.891592e-01
5.982890e-01
6.076266e-01
6.164809e-01
6.239215e-01
6.289352e-01
6.307109e-01
6.289352e-01
6.239215e-01
6.164809e-01
6.076266e-01
5.982890e-01
5.891593e-01
5.806606e-01
0.000000e+00
1.000000e+00
5.795850e-01
5.868903e-01
5.947382e-01
6.027647e-01
6.103758e-01
6.167716e-01
6.210814e-01
6.226078e-01
6.210814e-01
6.167716e-01
6.103758e-01
6.027647e-01
5.947382e-01
5.868904e-01
5.795850e-01
0.000000e+00
1.000000e+00
5.784263e-01
5.844461e-01
5.909131e-01
5.975272e-01
6.037990e-01
6.090694e-01
6.126208e-01
6.138786e-01
6.126208e-01
6.090694e-01
6.037990e-01
5.975272e-01
5.909131e-01
5.844462e-01
5.784263e-01
0.000000e+00
1.000000e+00
5.748835e-01
5.769730e-01
5.792176e-01
5.815134e-01
5.836903e-01
5.855197e-01
5.867524e-01
5.871890e-01
5.867524e-01
5.855197e-01
5.836903e-01
5.815134e-01
5.792176e-01
5.769730e-01
5.748835e-01
0.000000e+00
1.000000e+00
5.756274e-01
5.785423e-01
5.816736e-01
5.848762e-01
5.879130e-01
5.904650e-01
5.921846e-01
5.927936e-01
5.921846e-01
5.904650e-01
5.879130e-01
5.848762e-01
5.816736e-01
5.785423e-01
5.756274e-01
0.000000e+00
1.000000e+00
5.764959e-01
5.803742e-01
5.845406e-01
5.888018e-01
5.928424e-01
5.962378e-01
5.985259e-01
5.993362e-01
5.985259e-01
5.962378e-01
5.928424e-01
5.888018e-01
5.845406e-01
5.803742e-01
5.764959e-01
0.000000e+00
1.000000e+00
5.774654e-01
5.824194e-01
5.877412e-01
5.931842e-01
5.983454e-01
6.026825e-01
6.056051e-01
6.066402e-01
6.056051e-01
6.026825e-01
5.983454e-01
5.931842e-01
5.877412e-01
5.824194e-01
5.774654e-01
0.000000e+00
1.000000e+00
5.784963e-01
5.845939e-01
5.911444e-01
5.978439e-01
6.041967e-01
6.095351e-01
6.131324e-01
6.144064e-01
6.131324e-01
6.095351e-01
6.041967e-01
5.978439e-01
5.911444e-01
5.845939e-01
5.784963e-01
0.000000e+00
1.000000e+00
5.795327e-01
5.867801e-01
5.945657e-01
6.025285e-01
6.100791e-01
6.164242e-01
6.206997e-01
6.222140e-01
6.206997e-01
6.164242e-01
6.100791e-01
6.025285e-01
5.945657e-01
5.867801e-01
5.795327e-01
0.000000e+00
1.000000e+00
5.805060e-01
5.888331e-01
5.977786e-01
6.069277e-01
6.156033e-01
6.228936e-01
6.278062e-01
6.295461e-01
6.278062e-01
6.228936e-01
6.156033e-01
6.069277e-01
5.977786e-01
5.888331e-01
5.805060e-01
0.000000e+00
1.000000e+00
5.813418e-01
5.905962e-01
6.005378e-01
6.107057e-01
6.203473e-01
6.284495e-01
6.339091e-01
6.358427e-01
6.339091e-01
6.284495e-01
6.203473e-01
6.107057e-01
6.005378e-01
5.905962e-01
5.813418e-01
0.000000e+00
1.000000e+00
5.819700e-01
5.919212e-01
6.026115e-01
6.135451e-01
6.239128e-01
6.326251e-01
6.384958e-01
6.405750e-01
6.384958e-01
6.326251e-01
6.239128e-01
6.135451e-01
6.026115e-01
5.919213e-01
5.819700e-01
0.000000e+00
1.000000e+00
5.823349e-01
5.926909e-01
6.038161e-01
6.151945e-01
6.259839e-01
6.350506e-01
6.411602e-01
6.433240e-01
6.411602e-01
6.350506e-01
6.259839e-01
6.151945e-01
6.038161e-01
5.926910e-01
5.823349e-01
0.000000e+00
1.000000e+00
5.824039e-01
5.928365e-01
6.040439e-01
6.155064e-01
6.263755e-01
6.355093e-01
6.416640e-01
6.438438e-01
6.416640e-01
6.355093e-01
6.263755e-01
6.155064e-01
6.040439e-01
5.928365e-01
5.824039e-01
0.000000e+00
1.000000e+00
5.821715e-01
5.923463e-01
6.032767e-01
6.144559e-01
6.250565e-01
6.339645e-01
6.399671e-01
6.420930e-01
6.399671e-01
6.339645e-01
6.250565e-01
6.144559e-01
6.032767e-01
5.923463e-01
5.821715e-01
0.000000e+00
1.000000e+00
5.816581e-01
5.912635e-01
6.015821e-01
6.121356e-01
6.221428e-01
6.305523e-01
6.362189e-01
6.382259e-01
6.362189e-01
6.305523e-01
6.221428e-01
6.121356e-01
6.015821e-01
5.912635e-01
5.816582e-01
0.000000e+00
1.000000e+00
5.809047e-01
5.896742e-01
5.990949e-01
6.087301e-01
6.178665e-01
6.255441e-01
6.307176e-01
6.325499e-01
6.307176e-01
6.255441e-01
6.178665e-01
6.087301e-01
5.990949e-01
5.896742e-01
5.809047e-01
0.000000e+00
1.000000e+00
5.799644e-01
5.876907e-01
5.959907e-01
6.044797e-01
6.125293e-01
6.192937e-01
6.238518e-01
6.254661e-01
6.238518e-01
6.192937e-01
6.125293e-01
6.044797e-01
5.959907e-01
5.876907e-01
5.799644e-01
0.000000e+00
1.000000e+00
5.788945e-01
5.854338e-01
5.924588e-01
5.996437e-01
6.064567e-01
6.121819e-01
6.160397e-01
6.174061e-01
6.160397e-01
6.121819e-01
6.064567e-01
5.996437e-01
5.924588e-01
5.854339e-01
5.788945e-01
0.000000e+00
1.000000e+00
5.777497e-01
5.830189e-01
5.886795e-01
5.944689e-01
5.999586e-01
6.045718e-01
6.076804e-01
6.087814e-01
6.076804e-01
6.045718e-01
5.999586e-01
5.944689e-01
5.886795e-01
5.830189e-01
5.777497e-01
0.000000e+00
1.000000e+00
5.744265e-01
5.760091e-01
5.777092e-01
5.794480e-01
5.810967e-01
5.824823e-01
5.834159e-01
5.837466e-01
5.834159e-01
5.824823e-01
5.810967e-01
5.794480e-01
5.777092e-01
5.760091e-01
5.744265e-01
0.000000e+00
1.000000e+00
5.751068e-01
5.774441e-01
5.799549e-01
5.825229e-01
5.849580e-01
5.870043e-01
5.883831e-01
5.888715e-01
5.883831e-01
5.870043e-01
5.849580e-01
5.825229e-01
5.799549e-01
5.774441e-01
5.751068e-01
0.000000e+00
1.000000e+00
5.759095e-01
5.791373e-01
5.826048e-01
5.861513e-01
5.895141e-01
5.923400e-01
5.942443e-01
5.949187e-01
5.942443e-01
5.923400e-01
5.895141e-01
5.861513e-01
5.826048e-01
5.791373e-01
5.759095e-01
0.000000e+00
1.000000e+00
5.768133e-01
5.810437e-01
5.855883e-01
5.902364e-01
5.946438e-01
5.983476e-01
6.008433e-01
6.017272e-01
6.008433e-01
5.983476e-01
5.946438e-01
5.902364e-01
5.855883e-01
5.810437e-01
5.768133e-01
0.000000e+00
1.000000e+00
5.777808e-01
5.830846e-01
5.887823e-01
5.946097e-01
6.001354e-01
6.047789e-01
6.079079e-01
6.090161e-01
6.079079e-01
6.047789e-01
6.001354e-01
5.946097e-01
5.887823e-01
5.830846e-01
5.777808e-01
0.000000e+00
1.000000e+00
5.787588e-01
5.851476e-01
5.920108e-01
5.990302e-01
6.056863e-01
6.112797e-01
6.150487e-01
6.163836e-01
6.150487e-01
6.112797e-01
6.056863e-01
5.990302e-01
5.920108e-01
5.851476e-01
5.787588e-01
0.000000e+00
1.000000e+00
5.796810e-01
5.870930e-01
5.950553e-01
6.031990e-01
6.109210e-01
6.174101e-01
6.217828e-01
6.233314e-01
6.217828e-01
6.174101e-01
6.109210e-01
6.031989e-01
5.950553e-01
5.870930e-01
5.796811e-01
0.000000e+00
1.000000e+00
5.804754e-01
5.887686e-01
5.976776e-01
6.067895e-01
6.154297e-01
6.226903e-01
6.275829e-01
6.293156e-01
6.275829e-01
6.226903e-01
6.154297e-01
6.067895e-01
5.976776e-01
5.887686e-01
5.804754e-01
0.000000e+00
1.000000e+00
5.810732e-01
5.900296e-01
5.996511e-01
6.094917e-01
6.188228e-01
6.266642e-01
6.319480e-01
6.338193e-01
6.319480e-01
6.266642e-01
6.188228e-01
6.094917e-01
5.996511e-01
5.900296e-01
5.810732e-01
0.000000e+00
1.000000e+00
5.814199e-01
5.907609e-01
6.007955e-01
6.110586e-01
6.207905e-01
6.289685e-01
6.344792e-01
6.364309e-01
6.344792e-01
6.289685e-01
6.207905e-01
6.110586e-01
6.007955e-01
5.907609e-01
5.814199e-01
0.000000e+00
1.000000e+00
5.814831e-01
5.908943e-01
6.010044e-01
6.113446e-01
6.211495e-01
6.293889e-01
6.349410e-01
6.369074e-01
6.349410e-01
6.293889e-01
6.211495e-01
6.113445e-01
6.010043e-01
5.908943e-01
5.814831e-01
0.000000e+00
1.000000e+00
5.812572e-01
5.904178e-01
6.002587e-01
6.103236e-01
6.198674e-01
6.278875e-01
6.332918e-01
6.352058e-01
6.332918e-01
6.278875e-01
6.198674e-01
6.103236e-01
6.002587e-01
5.904178e-01
5.812573e-01
0.000000e+00
1.000000e+00
5.807619e-01
5.893730e-01
5.986236e-01
6.080848e-01
6.170561e-01
6.245951e-01
6.296752e-01
6.314744e-01
6.296752e-01
6.245951e-01
6.170561e-01
6.080848e-01
5.986236e-01
5.893731e-01
5.807620e-01
0.000000e+00
1.000000e+00
5.800369e-01
5.878435e-01
5.962299e-01
6.048073e-01
6.129406e-01
6.197753e-01
6.243808e-01
6.260119e-01
6.243808e-01
6.197753e-01
6.129406e-01
6.048073e-01
5.962299e-01
5.878435e-01
5.800369e-01
0.000000e+00
1.000000e+00
5.791336e-01
5.859382e-01
5.932481e-01
6.007244e-01
6.078137e-01
6.137711e-01
6.177855e-01
6.192072e-01
6.177855e-01
6.137711e-01
6.078137e-01
6.007244e-01
5.932481e-01
5.859382e-01
5.791336e-01
0.000000e+00
1.000000e+00
5.781077e-01
5.837741e-01
5.898613e-01
5.960871e-01
6.019906e-01
6.069515e-01
6.102944e-01