<?xml version="1.0"?>
<VTKFile type="StructuredGrid" version="0.1">
  <StructuredGrid WholeExtent="0 16 0 16 0 16">
    <Piece Extent="0 16 0 16 0 16">
      <PointData Scalars="temperature" Vectors="velocity">
        <DataArray type="Float32" Name="temperature" format="ascii">
1.000000e+00
5.808180e-01
5.883985e-01
5.972919e-01
6.062629e-01
6.147742e-01
6.219328e-01
6.267671e-01
6.284984e-01
6.268261e-01
6.220472e-01
6.149475e-01
6.064226e-01
5.974299e-01
5.886322e-01
5.801224e-01
0.000000e+00
1.000000e+00
5.799160e-01
5.866427e-01
5.944954e-01
6.024322e-01
6.099617e-01
6.162936e-01
6.205675e-01
6.220952e-01
6.206133e-01
6.163908e-01
6.101108e-01
6.025699e-01
5.946284e-01
5.868468e-01
5.793349e-01
0.000000e+00
1.000000e+00
5.788766e-01
5.846323e-01
5.913046e-01
5.980624e-01
6.044730e-01
6.098630e-01
6.134994e-01
6.147959e-01
6.135294e-01
6.099397e-01
6.045914e-01
5.981727e-01
5.914251e-01
5.848038e-01
5.783452e-01
0.000000e+00
1.000000e+00
5.777284e-01
5.824162e-01
5.877983e-01
5.932610e-01
5.984427e-01
6.027989e-01
6.057366e-01
6.067812e-01
6.057522e-01
6.028507e-01
5.985322e-01
5.933535e-01
5.879146e-01
5.825609e-01
5.773344e-01
0.000000e+00
1.000000e+00
5.765353e-01
5.800651e-01
5.840918e-01
5.881861e-01
5.920696e-01
5.953342e-01
5.975349e-01
5.983155e-01
5.975398e-01
5.953594e-01
5.921288e-01
5.882619e-01
5.842020e-01
5.801887e-01
5.762114e-01
0.000000e+00
1.000000e+00
5.753370e-01
5.776776e-01
5.803345e-01
5.830418e-01
5.856094e-01
5.877671e-01
5.892207e-01
5.897350e-01
5.892200e-01
5.877724e-01
5.856380e-01
5.830982e-01
5.804372e-01
5.777859e-01
5.750714e-01
0.000000e+00
1.000000e+00
5.741777e-01
5.753648e-01
5.766999e-01
5.780648e-01
5.793590e-01
5.804467e-01
5.811802e-01
5.814400e-01
5.811794e-01
5.804459e-01
5.793700e-01
5.781005e-01
5.767859e-01
5.754571e-01
5.739916e-01
0.000000e+00
1.000000e+00
5.731172e-01
5.732414e-01
5.733710e-01
5.735065e-01
5.736358e-01
5.737457e-01
5.738209e-01
5.738477e-01
5.738208e-01
5.737450e-01
5.736442e-01
5.735378e-01
5.734354e-01
5.733146e-01
5.729628e-01
0.000000e+00
1.000000e+00
5.722198e-01
5.714166e-01
5.705206e-01
5.696039e-01
5.687358e-01
5.680073e-01
5.675174e-01
5.673446e-01
5.675196e-01
5.680116e-01
5.687540e-01
5.696352e-01
5.705767e-01
5.714908e-01
5.719516e-01
0.000000e+00
1.000000e+00
5.716496e-01
5.699960e-01
5.682913e-01
5.665522e-01
5.649042e-01
5.635206e-01
5.625900e-01
5.622626e-01
5.625962e-01
5.635341e-01
5.649320e-01
5.665865e-01
5.683448e-01
5.700713e-01
5.711667e-01
0.000000e+00
1.000000e+00
5.711461e-01
5.690294e-01
5.667832e-01
5.644870e-01
5.623110e-01
5.604843e-01
5.592556e-01
5.588236e-01
5.592645e-01
5.605023e-01
5.623417e-01
5.645246e-01
5.668309e-01
5.691072e-01
5.706591e-01
0.000000e+00
1.000000e+00
5.708450e-01
5.685496e-01
5.660377e-01
5.634658e-01
5.610285e-01
5.589824e-01
5.576066e-01
5.571236e-01
5.576191e-01
5.590050e-01
5.610596e-01
5.635061e-01
5.660820e-01
5.686431e-01
5.703209e-01
0.000000e+00
1.000000e+00
5.708435e-01
5.685557e-01
5.660413e-01
5.634708e-01
5.610345e-01
5.589893e-01
5.576141e-01
5.571318e-01
5.576282e-01
5.590162e-01
5.610670e-01
5.635146e-01
5.660856e-01
5.686559e-01
5.703663e-01
0.000000e+00
1.000000e+00
5.710536e-01
5.690008e-01
5.667339e-01
5.644191e-01
5.622251e-01
5.603831e-01
5.591445e-01
5.587101e-01
5.591577e-01
5.604101e-01
5.622595e-01
5.644663e-01
5.667805e-01
5.691049e-01
5.706405e-01
0.000000e+00
1.000000e+00
5.714421e-01
5.698230e-01
5.680183e-01
5.661779e-01
5.644334e-01
5.629687e-01
5.619837e-01
5.616379e-01
5.619937e-01
5.629909e-01
5.644672e-01
5.662328e-01
5.680706e-01
5.699112e-01
5.712910e-01
0.000000e+00
1.000000e+00
5.719809e-01
5.709483e-01
5.697768e-01
5.685858e-01
5.674568e-01
5.665089e-01
5.658712e-01
5.656468e-01
5.658762e-01
5.665213e-01
5.674816e-01
5.686526e-01
5.698367e-01
5.710920e-01
5.719767e-01
0.000000e+00
1.000000e+00
5.726477e-01
5.722951e-01
5.718846e-01
5.714718e-01
5.710807e-01
5.707526e-01
5.705317e-01
5.704534e-01
5.705314e-01
5.707534e-01
5.710875e-01
5.715420e-01
5.719508e-01
5.726601e-01
5.711848e-01
0.000000e+00
1.000000e+00
5.816876e-01
5.900096e-01
5.998767e-01
6.098033e-01
6.192218e-01
6.271446e-01
6.324975e-01
6.344196e-01
6.325739e-01
6.272744e-01
6.194189e-01
6.099916e-01
6.000188e-01
5.902739e-01
5.810398e-01
0.000000e+00
1.000000e+00
5.808180e-01
5.883856e-01
5.972724e-01
6.062340e-01
6.147366e-01
6.218881e-01
6.267177e-01
6.284499e-01
6.267844e-01
6.220003e-01
6.149165e-01
6.064051e-01
5.974132e-01
5.886113e-01
5.802174e-01
0.000000e+00
1.000000e+00
5.798093e-01
5.864751e-01
5.942247e-01
6.020595e-01
6.094921e-01
6.157426e-01
6.199614e-01
6.214707e-01
6.200105e-01
6.158363e-01
6.096424e-01
6.021950e-01
5.943486e-01
5.866602e-01
5.792858e-01
0.000000e+00
1.000000e+00
5.786949e-01
5.843158e-01
5.908032e-01
5.973746e-01
6.036081e-01
6.088491e-01
6.123848e-01
6.136456e-01
6.124157e-01
6.089214e-01
6.037259e-01
5.974859e-01
5.909211e-01
5.844723e-01
5.782762e-01
0.000000e+00
1.000000e+00
5.775145e-01
5.819835e-01
5.871216e-01
5.923342e-01
5.972782e-01
6.014343e-01
6.042369e-01
6.052334e-01
6.042525e-01
6.014823e-01
5.973645e-01
5.924257e-01
5.872324e-01
5.821173e-01
5.771582e-01
0.000000e+00
1.000000e+00
5.763066e-01
5.795794e-01
5.833329e-01
5.871470e-01
5.907644e-01
5.938049e-01
5.958543e-01
5.965812e-01
5.958596e-01
5.938292e-01
5.908201e-01
5.872204e-01
5.834363e-01
5.796939e-01
5.760088e-01
0.000000e+00
1.000000e+00
5.751098e-01
5.772221e-01
5.796203e-01
5.820636e-01
5.843806e-01
5.863279e-01
5.876402e-01
5.881052e-01
5.876409e-01
5.863355e-01
5.844085e-01
5.821165e-01
5.797137e-01
5.773190e-01
5.748815e-01
0.000000e+00
1.000000e+00
5.740016e-01
5.750329e-01
5.761810e-01
5.773543e-01
5.784673e-01
5.794031e-01
5.800341e-01
5.802574e-01
5.800333e-01
5.794036e-01
5.784771e-01
5.773852e-01
5.762519e-01
5.751103e-01
5.738708e-01
0.000000e+00
1.000000e+00
5.730392e-01
5.731315e-01
5.732057e-01
5.732802e-01
5.733514e-01
5.734115e-01
5.734522e-01
5.734663e-01
5.734509e-01
5.734089e-01
5.733573e-01
5.733006e-01
5.732518e-01
5.731923e-01
5.729819e-01
0.000000e+00
1.000000e+00
5.723976e-01
5.716305e-01
5.708517e-01
5.700574e-01
5.693048e-01
5.686729e-01
5.682479e-01
5.680979e-01
5.682492e-01
5.686764e-01
5.693200e-01
5.700782e-01
5.708901e-01
5.716803e-01
5.722463e-01
0.000000e+00
1.000000e+00
5.718942e-01
5.705954e-01
5.692336e-01
5.678418e-01
5.665229e-01
5.654154e-01
5.646702e-01
5.644079e-01
5.646745e-01
5.654243e-01
5.665423e-01
5.678658e-01
5.692684e-01
5.706378e-01
5.717938e-01
0.000000e+00
1.000000e+00
5.715665e-01
5.700596e-01
5.684012e-01
5.667019e-01
5.650914e-01
5.637392e-01
5.628297e-01
5.625102e-01
5.628370e-01
5.637525e-01
5.651119e-01
5.667298e-01
5.684338e-01
5.701160e-01
5.714456e-01
0.000000e+00
1.000000e+00
5.715476e-01
5.700254e-01
5.683423e-01
5.666216e-01
5.649908e-01
5.636216e-01
5.627008e-01
5.623777e-01
5.627101e-01
5.636399e-01
5.650138e-01
5.666554e-01
5.683775e-01
5.701045e-01
5.713773e-01
0.000000e+00
1.000000e+00
5.717444e-01
5.704454e-01
5.689954e-01
5.675158e-01
5.661134e-01
5.649359e-01
5.641439e-01
5.638659e-01
5.641520e-01
5.649535e-01
5.661382e-01
5.675559e-01
5.690369e-01
5.705508e-01
5.714666e-01
0.000000e+00
1.000000e+00
5.721337e-01
5.712532e-01
5.702569e-01
5.692430e-01
5.682820e-01
5.674750e-01
5.669321e-01
5.667412e-01
5.669367e-01
5.674862e-01
5.683030e-01
5.692924e-01
5.703047e-01
5.713640e-01
5.719771e-01
0.000000e+00
1.000000e+00
5.726788e-01
5.723687e-01
5.720013e-01
5.716314e-01
5.712809e-01
5.709866e-01
5.707885e-01
5.707184e-01
5.707885e-01
5.709880e-01
5.712888e-01
5.716870e-01
5.720545e-01
5.725640e-01
5.724255e-01
0.000000e+00
1.000000e+00
5.733444e-01
5.737063e-01
5.740967e-01
5.745005e-01
5.748836e-01
5.752056e-01
5.754223e-01
5.754980e-01
5.754188e-01
5.751991e-01
5.748768e-01
5.745433e-01
5.741515e-01
5.740038e-01
5.716001e-01
0.000000e+00
1.000000e+00
5.824029e-01
5.913557e-01
6.020166e-01
6.127334e-01
6.229022e-01
6.314576e-01
6.372405e-01
6.393226e-01
6.373353e-01
6.316053e-01
6.231234e-01
6.129517e-01
6.021609e-01
5.916373e-01
5.816799e-01
0.000000e+00
1.000000e+00
5.815744e-01
5.898669e-01
5.996162e-01
6.094431e-01
6.187674e-01
6.266117e-01
6.319122e-01
6.338197e-01
6.319980e-01
6.267379e-01
6.189763e-01
6.096455e-01
5.997590e-01
5.901068e-01
5.809000e-01
0.000000e+00
1.000000e+00
5.806243e-01
5.880549e-01
5.967270e-01
6.054855e-01
6.137951e-01
6.207843e-01
6.255047e-01
6.271996e-01
6.255736e-01
6.208914e-01
6.139767e-01
6.056441e-01
5.968493e-01
5.882553e-01
5.800194e-01
0.000000e+00
1.000000e+00
5.795477e-01
5.859635e-01
5.934099e-01
6.009436e-01
6.080902e-01
6.140999e-01
6.181563e-01
6.196081e-01
6.182059e-01
6.141864e-01
6.082372e-01
6.010702e-01
5.935249e-01
5.861347e-01
5.790393e-01
0.000000e+00
1.000000e+00
5.783711e-01
5.836642e-01
5.897742e-01
5.959657e-01
6.018384e-01
6.067760e-01
6.101069e-01
6.112949e-01
6.101375e-01
6.068403e-01
6.019511e-01
5.960669e-01
5.898809e-01
5.838077e-01
5.779338e-01
0.000000e+00
1.000000e+00
5.771531e-01
5.812548e-01
5.859738e-01
5.907625e-01
5.953043e-01
5.991222e-01
6.016966e-01
6.026122e-01
6.017115e-01
5.991633e-01
5.953848e-01
5.908426e-01
5.860704e-01
5.813757e-01
5.767769e-01
0.000000e+00
1.000000e+00
5.759387e-01
5.788604e-01
5.822004e-01
5.855961e-01
5.888165e-01
5.915232e-01
5.933478e-01
5.939952e-01
5.933525e-01
5.915427e-01
5.888666e-01
5.856574e-01
5.822863e-01
5.789593e-01
5.756355e-01
0.000000e+00
1.000000e+00
5.748002e-01
5.766125e-01
5.786649e-01
5.807552e-01
5.827376e-01
5.844036e-01
5.855265e-01
5.859243e-01
5.855269e-01
5.844088e-01
5.827595e-01
5.807938e-01
5.787374e-01
5.766962e-01
5.745595e-01
0.000000e+00
1.000000e+00
5.738148e-01
5.746413e-01
5.755736e-01
5.765225e-01
5.774225e-01
5.781789e-01
5.786884e-01
5.788683e-01
5.786868e-01
5.781772e-01
5.774272e-01
5.765379e-01
5.756208e-01
5.747100e-01
5.736178e-01
0.000000e+00
1.000000e+00
5.730884e-01
5.730667e-01
5.731030e-01
5.731396e-01
5.731744e-01
5.732037e-01
5.732235e-01
5.732300e-01
5.732216e-01
5.732009e-01
5.731774e-01
5.731468e-01
5.731297e-01
5.731228e-01
5.728479e-01
0.000000e+00
1.000000e+00
5.725933e-01
5.719669e-01
5.713793e-01
5.707795e-01
5.702109e-01
5.697333e-01
5.694118e-01
5.692980e-01
5.694116e-01
5.697338e-01
5.702181e-01
5.707888e-01
5.713989e-01
5.720161e-01
5.723600e-01
0.000000e+00
1.000000e+00
5.722278e-01
5.713758e-01
5.704614e-01
5.695226e-01
5.686328e-01
5.678856e-01
5.673828e-01
5.672056e-01
5.673854e-01
5.678908e-01
5.686428e-01
5.695381e-01
5.704800e-01
5.714516e-01
5.719420e-01
0.000000e+00
1.000000e+00
5.721701e-01
5.713011e-01
5.703410e-01
5.693582e-01
5.684267e-01
5.676446e-01
5.671186e-01
5.669340e-01
5.671236e-01
5.676546e-01
5.684399e-01
5.693809e-01
5.703628e-01
5.714222e-01
5.717718e-01
0.000000e+00
1.000000e+00
5.723502e-01
5.716951e-01
5.709533e-01
5.701966e-01
5.694794e-01
5.688772e-01
5.684722e-01
5.683300e-01
5.684762e-01
5.688866e-01
5.694945e-01
5.702274e-01
5.709808e-01
5.718469e-01
5.718899e-01
0.000000e+00
1.000000e+00
5.727315e-01
5.724873e-01
5.721897e-01
5.718894e-01
5.716048e-01
5.713659e-01
5.712052e-01
5.711485e-01
5.712059e-01
5.713688e-01
5.716139e-01
5.719262e-01
5.722241e-01
5.726295e-01
5.724110e-01
0.000000e+00
1.000000e+00
5.732795e-01
5.735917e-01
5.739176e-01
5.742552e-01
5.745754e-01
5.748444e-01
5.750255e-01
5.750888e-01
5.750228e-01
5.748398e-01
5.745729e-01
5.742883e-01
5.739574e-01
5.737751e-01
5.727120e-01
0.000000e+00
1.000000e+00
5.739457e-01
5.749188e-01
5.759985e-01
5.771045e-01
5.781532e-01
5.790343e-01
5.796276e-01
5.798364e-01
5.796236e-01
5.790271e-01
5.781458e-01
5.771247e-01
5.760456e-01
5.751253e-01
5.724179e-01
0.000000e+00
1.000000e+00
5.828850e-01
5.923759e-01
6.035847e-01
6.148785e-01
6.255958e-01
6.346143e-01
6.407132e-01
6.429140e-01
6.408245e-01
6.347819e-01
6.258371e-01
6.151257e-01
6.037330e-01
5.926326e-01
5.821462e-01
0.000000e+00
1.000000e+00
5.821348e-01
5.910059e-01
6.013864e-01
6.118662e-01
6.218104e-01
6.301776e-01
6.358345e-01
6.378748e-01
6.359353e-01
6.303193e-01
6.220397e-01
6.121043e-01
6.015365e-01
5.912318e-01
5.814278e-01
0.000000e+00
1.000000e+00
5.812497e-01
5.892887e-01
5.986593e-01
6.081311e-01
6.171177e-01
6.246775e-01
6.297858e-01
6.316248e-01
6.298703e-01
6.247987e-01
6.173240e-01
6.083202e-01
5.987847e-01
5.894835e-01
5.805920e-01
0.000000e+00
1.000000e+00
5.802062e-01
5.872674e-01
5.954555e-01
6.037442e-01
6.116072e-01
6.182201e-01
6.226858e-01
6.242885e-01
6.227506e-01
6.183205e-01
6.117792e-01
6.038917e-01
5.955688e-01
5.874355e-01
5.796462e-01
0.000000e+00
1.000000e+00
5.790380e-01
5.850053e-01
5.918781e-01
5.988458e-01
6.054549e-01
6.110122e-01
6.147627e-01
6.161039e-01
6.148069e-01
6.110909e-01
6.055906e-01
5.989599e-01
5.919820e-01
5.851454e-01
5.785567e-01
0.000000e+00
1.000000e+00
5.778208e-01
5.825967e-01
5.880805e-01
5.936465e-01
5.989256e-01
6.033636e-01
6.063571e-01
6.074240e-01
6.063826e-01
6.034193e-01
5.990256e-01
5.937340e-01
5.881727e-01
5.827153e-01
5.774014e-01
0.000000e+00
1.000000e+00
5.766027e-01
5.801712e-01
5.842611e-01
5.884174e-01
5.923591e-01
5.956722e-01
5.979059e-01
5.986995e-01
5.979164e-01
5.957038e-01
5.924268e-01
5.884829e-01
5.843409e-01
5.802682e-01
5.762409e-01
0.000000e+00
1.000000e+00
5.754409e-01
5.778716e-01
5.806434e-01
5.834642e-01
5.861392e-01
5.883874e-01
5.899025e-01
5.904394e-01
5.899038e-01
5.883973e-01
5.861769e-01
5.835102e-01
5.807089e-01
5.779498e-01
5.751408e-01
0.000000e+00
1.000000e+00
5.744200e-01
5.758363e-01
5.774489e-01
5.790903e-01
5.806468e-01
5.819547e-01
5.828359e-01
5.831477e-01
5.828351e-01
5.819553e-01
5.806596e-01
5.791143e-01
5.774989e-01
5.759004e-01
5.741790e-01
0.000000e+00
1.000000e+00
5.736214e-01
5.741945e-01
5.748725e-01
5.755622e-01
5.762162e-01
5.767657e-01
5.771357e-01
5.772661e-01
5.771341e-01
5.767639e-01
5.762164e-01
5.755660e-01
5.748958e-01
5.742431e-01
5.733656e-01
0.000000e+00
1.000000e+00
5.730862e-01
5.730348e-01
5.730522e-01
5.730701e-01
5.730870e-01
5.731012e-01
5.731106e-01
5.731134e-01
5.731088e-01
5.730988e-01
5.730864e-01
5.730694e-01
5.730608e-01
5.730712e-01
5.728541e-01
0.000000e+00
1.000000e+00
5.727344e-01
5.723972e-01
5.720585e-01
5.717090e-01
5.713777e-01
5.710994e-01
5.709119e-01
5.708456e-01
5.709119e-01
5.710994e-01
5.713791e-01
5.717122e-01
5.720627e-01
5.724681e-01
5.723391e-01
0.000000e+00
1.000000e+00
5.726640e-01
5.722855e-01
5.718830e-01
5.714691e-01
5.710769e-01
5.707475e-01
5.705259e-01
5.704479e-01
5.705275e-01
5.707509e-01
5.710818e-01
5.714800e-01
5.718904e-01
5.724369e-01
5.720599e-01
0.000000e+00
1.000000e+00
5.728245e-01
5.726561e-01
5.724602e-01
5.722596e-01
5.720696e-01
5.719101e-01
5.718028e-01
5.717652e-01
5.718041e-01
5.719134e-01
5.720760e-01
5.722774e-01
5.724734e-01
5.728520e-01
5.721578e-01
0.000000e+00
1.000000e+00
5.731981e-01
5.734352e-01
5.736762e-01
5.739245e-01
5.741601e-01
5.743581e-01
5.744914e-01
5.745382e-01
5.744901e-01
5.743564e-01
5.741613e-01
5.739442e-01
5.736975e-01
5.735961e-01
5.727022e-01
0.000000e+00
1.000000e+00
5.737469e-01
5.745316e-01
5.753922e-01
5.762742e-01
5.771105e-01
5.778132e-01
5.782862e-01
5.784528e-01
5.782831e-01
5.778075e-01
5.771056e-01
5.762878e-01
5.754238e-01
5.746840e-01
5.730018e-01
0.000000e+00
1.000000e+00
5.744098e-01
5.758520e-01
5.774639e-01
5.791110e-01
5.806727e-01
5.819848e-01
5.828685e-01
5.831805e-01
5.828659e-01
5.819809e-01
5.806703e-01
5.791247e-01
5.775091e-01
5.759781e-01
5.733421e-01
0.000000e+00
1.000000e+00
5.831403e-01
5.929656e-01
6.044704e-01
6.160876e-01
6.271108e-01
6.363878e-01
6.426638e-01
6.449315e-01
6.427835e-01
6.365754e-01
6.273578e-01
6.163616e-01
6.046219e-01
5.931878e-01
5.824104e-01
0.000000e+00
1.000000e+00
5.824392e-01
5.917079e-01
6.024549e-01
6.133273e-01
6.236433e-01
6.323242e-01
6.381951e-01
6.403147e-01
6.383021e-01
6.324843e-01
6.238772e-01
6.135956e-01
6.026085e-01
5.919096e-01
5.817575e-01
0.000000e+00
1.000000e+00
5.815978e-01
5.900817e-01
5.998778e-01
6.097983e-01
6.192103e-01
6.271287e-01
6.324810e-01
6.344099e-01
6.325719e-01
6.272667e-01
6.194260e-01
6.100177e-01
6.000062e-01
5.902576e-01
5.809636e-01
0.000000e+00
1.000000e+00
5.806039e-01
5.881236e-01
5.967818e-01
6.055595e-01
6.138861e-01
6.208894e-01
6.256201e-01
6.273201e-01
6.256903e-01
6.210046e-01
6.140716e-01
6.057297e-01
5.968949e-01
5.882787e-01
5.800478e-01
0.000000e+00
1.000000e+00
5.794690e-01
5.858948e-01
5.932635e-01
6.007425e-01
6.078363e-01
6.138014e-01
6.178280e-01
6.192700e-01
6.178760e-01
6.138927e-01
6.079869e-01
6.008718e-01
5.933668e-01
5.860266e-01
5.789765e-01
0.000000e+00
1.000000e+00
5.782546e-01
5.834904e-01
5.894757e-01
5.955567e-01
6.013241e-01
6.061727e-01
6.094437e-01
6.106112e-01
6.094720e-01
6.062388e-01
6.014381e-01
5.956535e-01
5.895659e-01
5.836025e-01
5.778225e-01
0.000000e+00
1.000000e+00
5.770243e-01
5.810404e-01
5.856218e-01
5.902804e-01
5.946985e-01
5.984120e-01
6.009159e-01
6.018064e-01
6.009286e-01
5.984516e-01
5.947778e-01
5.903506e-01
5.856991e-01
5.811322e-01
5.766541e-01
0.000000e+00
1.000000e+00
5.758465e-01
5.786937e-01
5.819348e-01
5.852327e-01
5.883601e-01
5.909884e-01
5.927596e-01
5.933877e-01
5.927626e-01
5.910042e-01
5.884090e-01
5.852837e-01
5.819972e-01
5.787689e-01
5.755287e-01
0.000000e+00
1.000000e+00
5.748059e-01
5.766025e-01
5.786527e-01
5.807386e-01
5.827167e-01
5.843790e-01
5.854990e-01
5.858955e-01
5.854988e-01
5.843810e-01
5.827378e-01
5.807713e-01
5.787017e-01
5.766636e-01
5.745454e-01
0.000000e+00
1.000000e+00
5.739678e-01
5.749045e-01
5.759857e-01
5.770864e-01
5.781301e-01
5.790071e-01
5.795979e-01
5.798067e-01
5.795969e-01
5.790057e-01
5.781324e-01
5.770948e-01
5.760099e-01
5.749490e-01
5.737128e-01
0.000000e+00
1.000000e+00
5.733897e-01
5.736931e-01
5.740840e-01
5.744827e-01
5.748607e-01
5.751782e-01
5.753919e-01
5.754671e-01
5.753904e-01
5.751760e-01
5.748579e-01
5.744796e-01
5.740891e-01
5.737224e-01
5.731983e-01
0.000000e+00
1.000000e+00
5.730382e-01
5.730180e-01
5.730288e-01
5.730375e-01
5.730458e-01
5.730526e-01
5.730571e-01
5.730583e-01
5.730559e-01
5.730505e-01
5.730428e-01
5.730327e-01
5.730237e-01
5.730855e-01
5.726025e-01
0.000000e+00
1.000000e+00
5.729578e-01
5.728801e-01
5.728129e-01
5.727421e-01
5.726749e-01
5.726185e-01
5.725806e-01
5.725673e-01
5.725810e-01
5.726191e-01
5.726754e-01
5.727432e-01
5.728095e-01
5.730699e-01
5.721634e-01
0.000000e+00
1.000000e+00
5.731202e-01
5.732358e-01
5.733686e-01
5.735032e-01
5.736308e-01
5.737380e-01
5.738103e-01
5.738358e-01
5.738102e-01
5.737384e-01
5.736320e-01
5.735093e-01
5.733707e-01
5.734788e-01
5.722605e-01
0.000000e+00
1.000000e+00
5.734919e-01
5.740090e-01
5.745772e-01
5.751581e-01
5.757089e-01
5.761716e-01
5.764832e-01
5.765929e-01
5.764813e-01
5.761686e-01
5.757064e-01
5.751645e-01
5.745907e-01
5.741862e-01
5.727384e-01
0.000000e+00
1.000000e+00
5.740396e-01
5.751055e-01
5.762943e-01
5.775093e-01
5.786614e-01
5.796293e-01
5.802811e-01
5.805111e-01
5.802784e-01
5.796248e-01
5.786569e-01
5.775150e-01
5.763219e-01
5.752649e-01
5.730622e-01
0.000000e+00
1.000000e+00
5.747032e-01
5.764285e-01
5.783701e-01
5.803519e-01
5.822310e-01
5.838099e-01
5.848734e-01
5.852496e-01
5.848723e-01
5.838088e-01
5.822315e-01
5.803686e-01
5.784150e-01
5.765106e-01
5.739038e-01
0.000000e+00
1.000000e+00
5.831455e-01
5.930447e-01
6.045785e-01
6.162373e-01
6.272994e-01
6.366083e-01
6.429052e-01
6.451792e-01
6.430246e-01
6.368073e-01
6.275362e-01
6.165263e-01
6.047321e-01
5.932471e-01
5.824349e-01
0.000000e+00
1.000000e+00
5.825033e-01
5.918759e-01
6.027131e-01
6.136844e-01
6.240925e-01
6.328486e-01
6.387699e-01
6.409057e-01
6.388729e-01
6.330202e-01
6.243173e-01
6.139654e-01
6.028684e-01
5.920704e-01
5.818341e-01
0.000000e+00
1.000000e+00
5.817118e-01
5.903324e-01
6.002624e-01
6.103261e-01
6.198724e-01
6.279023e-01
6.333299e-01
6.352847e-01
6.334168e-01
6.280517e-01
6.200833e-01
6.105638e-01
6.003954e-01
5.905005e-01
5.810757e-01
0.000000e+00
1.000000e+00
5.807344e-01
5.884349e-01
5.972563e-01
6.062094e-01
6.147013e-01
6.218431e-01
6.266672e-01
6.284002e-01
6.267336e-01
6.219668e-01
6.148880e-01
6.063952e-01
5.973701e-01
5.885786e-01
5.801846e-01
0.000000e+00
1.000000e+00
5.796152e-01
5.862354e-01
5.937873e-01
6.014597e-01
6.087366e-01
6.148552e-01
6.189854e-01
6.204642e-01
6.190298e-01
6.149513e-01
6.088929e-01
6.016009e-01
5.938917e-01
5.863591e-01
5.791277e-01
0.000000e+00
1.000000e+00
5.784075e-01
5.838328e-01
5.900079e-01
5.962858e-01
6.022396e-01
6.072447e-01
6.106212e-01
6.118257e-01
6.106457e-01
6.073118e-01
6.023602e-01
5.963909e-01
5.900992e-01
5.839405e-01
5.779765e-01
0.000000e+00
1.000000e+00
5.771774e-01
5.813602e-01
5.861240e-01
5.909689e-01
5.955635e-01
5.994253e-01
6.020290e-01
6.029550e-01
6.020401e-01
5.994655e-01
5.956503e-01
5.910467e-01
5.862040e-01
5.814524e-01
5.767972e-01
0.000000e+00
1.000000e+00
5.759987e-01
5.789763e-01
5.823801e-01
5.858428e-01
5.891267e-01
5.918866e-01
5.937467e-01
5.944067e-01
5.937499e-01
5.919039e-01
5.891825e-01
5.859023e-01
5.824468e-01
5.790535e-01
5.756563e-01
0.000000e+00
1.000000e+00
5.749376e-01
5.768435e-01
5.790284e-01
5.812531e-01
5.833629e-01
5.851358e-01
5.863305e-01
5.867535e-01
5.863296e-01
5.851369e-01
5.833856e-01
5.812931e-01
5.790825e-01
5.769035e-01
5.746507e-01
0.000000e+00
1.000000e+00
5.740654e-01
5.751010e-01
5.762906e-01
5.775039e-01
5.786545e-01
5.796212e-01
5.802724e-01
5.805024e-01
5.802703e-01
5.796175e-01
5.786549e-01
5.775155e-01
5.763195e-01
5.751446e-01
5.737919e-01
0.000000e+00
1.000000e+00
5.734588e-01
5.738501e-01
5.743287e-01
5.748177e-01
5.752813e-01
5.756707e-01
5.759328e-01
5.760249e-01
5.759307e-01
5.756668e-01
5.752755e-01
5.748143e-01
5.743367e-01
5.738801e-01
5.732533e-01
0.000000e+00
1.000000e+00
5.731087e-01
5.731487e-01
5.732315e-01
5.733152e-01
5.733944e-01
5.734608e-01
5.735052e-01
5.735202e-01
5.735029e-01
5.734562e-01
5.733875e-01
5.733070e-01
5.732268e-01
5.732226e-01
5.726152e-01
0.000000e+00
1.000000e+00
5.730130e-01
5.729984e-01
5.729963e-01
5.729931e-01
5.729900e-01
5.729873e-01
5.729853e-01
5.729844e-01
5.729846e-01
5.729854e-01
5.729863e-01
5.729880e-01
5.729906e-01
5.732377e-01
5.720525e-01
0.000000e+00
1.000000e+00
5.731866e-01
5.733528e-01
5.735506e-01
5.737524e-01
5.739436e-01
5.741042e-01
5.742123e-01
5.742504e-01
5.742116e-01
5.741029e-01
5.739413e-01
5.737513e-01
5.735520e-01
5.736383e-01
5.721558e-01
0.000000e+00
1.000000e+00
5.735609e-01
5.741335e-01
5.747726e-01
5.754256e-01
5.760446e-01
5.765646e-01
5.769147e-01
5.770380e-01
5.769126e-01
5.765608e-01
5.760395e-01
5.754252e-01
5.747871e-01
5.743469e-01
5.726527e-01
0.000000e+00
1.000000e+00
5.741097e-01
5.752436e-01
5.765115e-01
5.778066e-01
5.790346e-01
5.800663e-01
5.807610e-01
5.810062e-01
5.807585e-01
5.800620e-01
5.790292e-01
5.778092e-01
5.765395e-01
5.754182e-01
5.729736e-01
0.000000e+00
1.000000e+00
5.747798e-01
5.765833e-01
5.786127e-01
5.806839e-01
5.826479e-01
5.842983e-01
5.854101e-01
5.858035e-01
5.854091e-01
5.842972e-01
5.826477e-01
5.807005e-01
5.786618e-01
5.766374e-01
5.740584e-01
0.000000e+00
1.000000e+00
5.829005e-01
5.926107e-01
6.038733e-01
6.152689e-01
6.260820e-01
6.351820e-01
6.413374e-01
6.435581e-01
6.414557e-01
6.353833e-01
6.263087e-01
6.155646e-01
6.040261e-01
5.927868e-01
5.822134e-01
0.000000e+00
1.000000e+00
5.823183e-01
5.914978e-01
6.021068e-01
6.128533e-01
6.230497e-01
6.316284e-01
6.374287e-01
6.395172e-01
6.375273e-01
6.318050e-01
6.232697e-01
6.131360e-01
6.022583e-01
5.916807e-01
5.816505e-01
0.000000e+00
1.000000e+00
5.815429e-01
5.900030e-01
5.997363e-01
6.096079e-01
6.189739e-01
6.268519e-01
6.321748e-01
6.340881e-01
6.322548e-01
6.270053e-01
6.191804e-01
6.098534e-01
5.998756e-01
5.901675e-01
5.809167e-01
0.000000e+00
1.000000e+00
5.805761e-01
5.881394e-01
5.967891e-01
6.055729e-01
6.139051e-01
6.209117e-01
6.256429e-01
6.273391e-01
6.257010e-01
6.210355e-01
6.140893e-01
6.057676e-01
5.969094e-01
5.882828e-01
5.800405e-01
0.000000e+00
1.000000e+00
5.794682e-01
5.859580e-01
5.933505e-01
6.008642e-01
6.079909e-01
6.139829e-01
6.180265e-01
6.194717e-01
6.180634e-01
6.140754e-01
6.081488e-01
6.010150e-01
5.934616e-01
5.860832e-01
5.789937e-01
0.000000e+00
1.000000e+00
5.782653e-01
5.835554e-01
5.895706e-01
5.956886e-01
6.014913e-01
6.063694e-01
6.096598e-01
6.108326e-01
6.096802e-01
6.064318e-01
6.016175e-01
5.958051e-01
5.896699e-01
5.836653e-01
5.778429e-01
0.000000e+00
1.000000e+00
5.770311e-01
5.810677e-01
5.856607e-01
5.903350e-01
5.947684e-01
5.984950e-01
6.010077e-01
6.019014e-01
6.010173e-01
5.985303e-01
5.948603e-01
5.904249e-01
5.857499e-01
5.811606e-01
5.766567e-01
0.000000e+00
1.000000e+00
5.758369e-01
5.786586e-01
5.818740e-01
5.851498e-01
5.882566e-01
5.908679e-01
5.926281e-01
5.932523e-01
5.926295e-01
5.908786e-01
5.883089e-01
5.852183e-01
5.819504e-01
5.787332e-01
5.755019e-01
0.000000e+00
1.000000e+00
5.747521e-01
5.764932e-01
5.784712e-01
5.804901e-01
5.824048e-01
5.840137e-01
5.850976e-01
5.854807e-01
5.850946e-01
5.840090e-01
5.824164e-01
5.805294e-01
5.785346e-01
5.765507e-01
5.744789e-01
0.000000e+00
1.000000e+00
5.738623e-01
5.747175e-01
5.756848e-01
5.766746e-01
5.776131e-01
5.784014e-01
5.789322e-01
5.791189e-01
5.789280e-01
5.783932e-01
5.776038e-01
5.766821e-01
5.757198e-01
5.747617e-01
5.736126e-01
0.000000e+00
1.000000e+00
5.732439e-01
5.734426e-01
5.736878e-01
5.739401e-01
5.741793e-01
5.743799e-01
5.745147e-01
5.745612e-01
5.745110e-01
5.743726e-01
5.741677e-01
5.739395e-01
5.737033e-01
5.734782e-01
5.730369e-01
0.000000e+00
1.000000e+00
5.728986e-01
5.727301e-01
5.725732e-01
5.724139e-01
5.722626e-01
5.721352e-01
5.720490e-01
5.720174e-01
5.720457e-01
5.721288e-01
5.722532e-01
5.724109e-01
5.725793e-01
5.728154e-01
5.723933e-01
0.000000e+00
1.000000e+00
5.728081e-01
5.725829e-01
5.723431e-01
5.720986e-01
5.718666e-01
5.716714e-01
5.715396e-01
5.714923e-01
5.715375e-01
5.716670e-01
5.718600e-01
5.720961e-01
5.723483e-01
5.728624e-01
5.718473e-01
0.000000e+00
1.000000e+00
5.729839e-01
5.729524e-01
5.729212e-01
5.728904e-01
5.728610e-01
5.728362e-01
5.728192e-01
5.728126e-01
5.728174e-01
5.728325e-01
5.728554e-01
5.728917e-01
5.729325e-01
5.732737e-01
5.719492e-01
0.000000e+00
1.000000e+00
5.733825e-01
5.737567e-01
5.741811e-01
5.746157e-01
5.750276e-01
5.753736e-01
5.756062e-01
5.756877e-01
5.756034e-01
5.753680e-01
5.750190e-01
5.746169e-01
5.742034e-01
5.739970e-01
5.724521e-01
0.000000e+00
1.000000e+00
5.739358e-01
5.748968e-01
5.759670e-01
5.770610e-01
5.780982e-01
5.789696e-01
5.795562e-01
5.797629e-01
5.795528e-01
5.789632e-01
5.780888e-01
5.770594e-01
5.759975e-01
5.750493e-01
5.727660e-01
0.000000e+00
1.000000e+00
5.746176e-01
5.762700e-01
5.781198e-01
5.800089e-01
5.818002e-01
5.833054e-01
5.843193e-01
5.846777e-01
5.843174e-01
5.833023e-01
5.817958e-01
5.800156e-01
5.781710e-01
5.763065e-01
5.740282e-01
0.000000e+00
1.000000e+00
5.823980e-01
5.916653e-01
6.023623e-01
6.131994e-01
6.234810e-01
6.321320e-01
6.379813e-01
6.400896e-01
6.380924e-01
6.323233e-01
6.236968e-01
6.134776e-01
6.025037e-01
5.918173e-01
5.817485e-01
0.000000e+00
1.000000e+00
5.818518e-01
5.905744e-01
6.006392e-01
6.108436e-01
6.205249e-01
6.286694e-01
6.341734e-01
6.361516e-01
6.342631e-01
6.288392e-01
6.207389e-01
6.111067e-01
6.007801e-01
5.907406e-01
5.812043e-01
0.000000e+00
1.000000e+00
5.810856e-01
5.890985e-01
5.983021e-01
6.076439e-01
6.165066e-01
6.239613e-01
6.289968e-01
6.308021e-01
6.290666e-01
6.241096e-01
6.167098e-01
6.078783e-01
5.984412e-01
5.892531e-01
5.804821e-01
0.000000e+00
1.000000e+00
5.801215e-01
5.872459e-01
5.953736e-01
6.036338e-01
6.114697e-01
6.180598e-01
6.225093e-01
6.241004e-01
6.225574e-01
6.181768e-01
6.116543e-01
6.038268e-01
5.954984e-01
5.873812e-01
5.796092e-01
0.000000e+00
1.000000e+00
5.790089e-01
5.850656e-01
5.919371e-01
5.989282e-01
6.055598e-01
6.111361e-01
6.148995e-01
6.162421e-01
6.149286e-01
6.112185e-01
6.057197e-01
5.990844e-01
5.920557e-01
5.851840e-01
5.785617e-01
0.000000e+00
1.000000e+00
5.777977e-01
5.826539e-01
5.881440e-01
5.937346e-01
5.990375e-01
6.034959e-01
6.065034e-01
6.075739e-01
6.065184e-01
6.035451e-01
5.991627e-01
5.938604e-01
5.882531e-01
5.827578e-01
5.774084e-01
0.000000e+00
1.000000e+00
5.765578e-01
5.801487e-01
5.842085e-01
5.883463e-01
5.922709e-01
5.955701e-01
5.977947e-01
5.985847e-01
5.977997e-01
5.955901e-01
5.923523e-01
5.884449e-01
5.843088e-01
5.802367e-01
5.762133e-01
0.000000e+00
1.000000e+00
5.753497e-01
5.777173e-01
5.803886e-01
5.831159e-01
5.857025e-01
5.878765e-01
5.893416e-01
5.898604e-01
5.893401e-01
5.878752e-01
5.857318e-01
5.831825e-01
5.804791e-01
5.777893e-01
5.750501e-01
0.000000e+00
1.000000e+00
5.742534e-01
5.755280e-01
5.769524e-01
5.784105e-01
5.797932e-01
5.809549e-01
5.817372e-01
5.820128e-01
5.817322e-01
5.809443e-01
5.797848e-01
5.784359e-01
5.770221e-01
5.755853e-01
5.740132e-01
0.000000e+00
1.000000e+00
5.733635e-01
5.737338e-01
5.741410e-01
5.745608e-01
5.749587e-01
5.752927e-01
5.755172e-01
5.755950e-01
5.755118e-01
5.752815e-01
5.749418e-01
5.745770e-01
5.741816e-01
5.737805e-01
5.731239e-01
0.000000e+00
1.000000e+00
5.727428e-01
5.724516e-01
5.721346e-01
5.718135e-01
5.715089e-01
5.712526e-01
5.710794e-01
5.710170e-01
5.710759e-01
5.712456e-01
5.714993e-01
5.718345e-01
5.721619e-01
5.724944e-01
5.725048e-01
0.000000e+00
1.000000e+00
5.724048e-01
5.717447e-01
5.710291e-01
5.702997e-01
5.696079e-01
5.690264e-01
5.686342e-01
5.684946e-01
5.686321e-01
5.690227e-01
5.696045e-01
5.703172e-01
5.710533e-01
5.718410e-01
5.718651e-01
0.000000e+00
1.000000e+00
5.723345e-01
5.716164e-01
5.708283e-01
5.700246e-01
5.692623e-01
5.686215e-01
5.681895e-01
5.680360e-01
5.681881e-01
5.686192e-01
5.692615e-01
5.700379e-01
5.708548e-01
5.719218e-01
5.713689e-01
0.000000e+00
1.000000e+00
5.725221e-01
5.720174e-01
5.714550e-01
5.708826e-01
5.703396e-01
5.698832e-01
5.695753e-01
5.694657e-01
5.695736e-01
5.698802e-01
5.703371e-01
5.708981e-01
5.714820e-01
5.723746e-01
5.715046e-01
0.000000e+00
1.000000e+00
5.729361e-01
5.728622e-01
5.727774e-01
5.726936e-01
5.726140e-01
5.725468e-01
5.725010e-01
5.724838e-01
5.724980e-01
5.725411e-01
5.726053e-01
5.727103e-01
5.728101e-01
5.731130e-01
5.720565e-01
0.000000e+00
1.000000e+00
5.735197e-01
5.740484e-01
5.746357e-01
5.752382e-01
5.758094e-01
5.762891e-01
5.766116e-01