<?xml version="1.0"?>
<VTKFile type="StructuredGrid" version="0.1">
  <StructuredGrid WholeExtent="0 16 0 16 0 16">
    <Piece Extent="0 16 0 16 0 16">
      <PointData Scalars="temperature" Vectors="velocity">
        <DataArray type="Float32" Name="temperature" format="ascii">
1.000000e+00
5.730668e-01
5.730254e-01
5.730416e-01
5.730557e-01
5.730691e-01
5.730804e-01
5.730879e-01
5.730906e-01
5.730881e-01
5.730806e-01
5.730695e-01
5.730566e-01
5.730421e-01
5.730444e-01
5.728214e-01
0.000000e+00
1.000000e+00
5.730512e-01
5.730181e-01
5.730299e-01
5.730396e-01
5.730488e-01
5.730564e-01
5.730616e-01
5.730633e-01
5.730615e-01
5.730564e-01
5.730488e-01
5.730417e-01
5.730329e-01
5.730367e-01
5.727954e-01
0.000000e+00
1.000000e+00
5.729276e-01
5.727745e-01
5.726451e-01
5.725130e-01
5.723877e-01
5.722823e-01
5.722113e-01
5.721860e-01
5.722109e-01
5.722818e-01
5.723871e-01
5.725181e-01
5.726526e-01
5.728007e-01
5.727693e-01
0.000000e+00
1.000000e+00
5.726697e-01
5.722684e-01
5.718508e-01
5.714253e-01
5.710218e-01
5.706827e-01
5.704542e-01
5.703732e-01
5.704540e-01
5.706828e-01
5.710224e-01
5.714390e-01
5.718662e-01
5.722868e-01
5.725679e-01
0.000000e+00
1.000000e+00
5.722916e-01
5.714902e-01
5.706306e-01
5.697544e-01
5.689237e-01
5.682258e-01
5.677557e-01
5.675894e-01
5.677567e-01
5.682289e-01
5.689286e-01
5.697822e-01
5.706591e-01
5.715182e-01
5.721522e-01
0.000000e+00
1.000000e+00
5.717807e-01
5.704487e-01
5.689974e-01
5.675183e-01
5.661160e-01
5.649380e-01
5.641448e-01
5.638650e-01
5.641484e-01
5.649464e-01
5.661279e-01
5.675613e-01
5.690415e-01
5.704909e-01
5.716268e-01
0.000000e+00
1.000000e+00
5.711552e-01
5.691727e-01
5.669973e-01
5.647800e-01
5.626779e-01
5.609124e-01
5.597240e-01
5.593053e-01
5.597313e-01
5.609275e-01
5.626988e-01
5.648379e-01
5.670553e-01
5.692238e-01
5.710204e-01
0.000000e+00
1.000000e+00
5.704431e-01
5.677122e-01
5.647095e-01
5.616477e-01
5.587453e-01
5.563079e-01
5.546680e-01
5.540912e-01
5.546804e-01
5.563315e-01
5.587764e-01
5.617207e-01
5.647803e-01
5.677707e-01
5.703322e-01
0.000000e+00
1.000000e+00
5.696762e-01
5.661367e-01
5.622419e-01
5.582694e-01
5.545039e-01
5.513421e-01
5.492154e-01
5.484682e-01
5.492334e-01
5.513751e-01
5.545460e-01
5.583578e-01
5.623239e-01
5.662011e-01
5.695891e-01
0.000000e+00
1.000000e+00
5.688923e-01
5.645272e-01
5.597213e-01
5.548188e-01
5.501719e-01
5.462703e-01
5.436462e-01
5.427252e-01
5.436700e-01
5.463124e-01
5.502246e-01
5.549217e-01
5.598131e-01
5.645976e-01
5.688290e-01
0.000000e+00
1.000000e+00
5.681370e-01
5.629683e-01
5.572803e-01
5.514771e-01
5.459767e-01
5.413587e-01
5.382532e-01
5.371636e-01
5.382820e-01
5.414094e-01
5.460389e-01
5.515939e-01
5.573794e-01
5.630425e-01
5.680933e-01
0.000000e+00
1.000000e+00
5.674492e-01
5.615391e-01
5.550425e-01
5.484136e-01
5.421309e-01
5.368563e-01
5.333093e-01
5.320649e-01
5.333424e-01
5.369146e-01
5.422013e-01
5.485419e-01
5.551473e-01
5.616168e-01
5.674183e-01
0.000000e+00
1.000000e+00
5.668541e-01
5.603052e-01
5.531106e-01
5.457690e-01
5.388109e-01
5.329693e-01
5.290412e-01
5.276630e-01
5.290777e-01
5.330340e-01
5.388878e-01
5.459068e-01
5.532183e-01
5.603845e-01
5.668352e-01
0.000000e+00
1.000000e+00
5.663796e-01
5.593133e-01
5.515580e-01
5.436435e-01
5.361426e-01
5.298454e-01
5.256108e-01
5.241250e-01
5.256497e-01
5.299145e-01
5.362244e-01
5.437867e-01
5.516676e-01
5.593964e-01
5.663695e-01
0.000000e+00
1.000000e+00
5.660375e-01
5.585893e-01
5.504255e-01
5.420931e-01
5.341964e-01
5.275671e-01
5.231087e-01
5.215436e-01
5.231482e-01
5.276382e-01
5.342821e-01
5.422383e-01
5.505348e-01
5.586745e-01
5.660218e-01
0.000000e+00
1.000000e+00
5.658216e-01
5.581387e-01
5.497224e-01
5.411307e-01
5.329880e-01
5.261520e-01
5.215547e-01
5.199407e-01
5.215951e-01
5.262249e-01
5.330782e-01
5.412730e-01
5.498345e-01
5.582327e-01
5.658308e-01
0.000000e+00
1.000000e+00
5.657076e-01
5.579462e-01
5.494292e-01
5.407305e-01
5.324872e-01
5.255675e-01
5.209147e-01
5.192823e-01
5.209586e-01
5.256468e-01
5.325881e-01
5.408752e-01
5.495554e-01
5.580928e-01
5.655528e-01
0.000000e+00
1.000000e+00
5.730381e-01
5.730314e-01
5.730540e-01
5.730725e-01
5.730899e-01
5.731045e-01
5.731144e-01
5.731178e-01
5.731144e-01
5.731046e-01
5.730900e-01
5.730723e-01
5.730524e-01
5.730284e-01
5.729972e-01
0.000000e+00
1.000000e+00
5.729189e-01
5.727966e-01
5.726832e-01
5.725646e-01
5.724521e-01
5.723574e-01
5.722936e-01
5.722709e-01
5.722933e-01
5.723569e-01
5.724519e-01
5.725663e-01
5.726835e-01
5.728031e-01
5.727116e-01
0.000000e+00
1.000000e+00
5.726571e-01
5.722984e-01
5.718984e-01
5.714899e-01
5.711025e-01
5.707767e-01
5.705571e-01
5.704791e-01
5.705564e-01
5.707757e-01
5.711026e-01
5.714973e-01
5.719041e-01
5.723188e-01
5.725924e-01
0.000000e+00
1.000000e+00
5.722749e-01
5.715144e-01
5.706677e-01
5.698048e-01
5.689865e-01
5.682987e-01
5.678352e-01
5.676709e-01
5.678350e-01
5.682996e-01
5.689906e-01
5.698216e-01
5.706824e-01
5.715343e-01
5.722078e-01
0.000000e+00
1.000000e+00
5.717588e-01
5.704422e-01
5.689863e-01
5.675026e-01
5.660957e-01
5.649135e-01
5.641171e-01
5.638356e-01
5.641193e-01
5.649193e-01
5.661070e-01
5.675311e-01
5.690119e-01
5.704688e-01
5.716696e-01
0.000000e+00
1.000000e+00
5.711053e-01
5.691005e-01
5.668831e-01
5.646229e-01
5.624798e-01
5.606794e-01
5.594672e-01
5.590398e-01
5.594734e-01
5.606923e-01
5.625001e-01
5.646642e-01
5.669222e-01
5.691371e-01
5.710157e-01
0.000000e+00
1.000000e+00
5.703400e-01
5.675318e-01
5.644252e-01
5.612576e-01
5.582545e-01
5.557321e-01
5.540344e-01
5.534368e-01
5.540457e-01
5.557536e-01
5.582853e-01
5.613135e-01
5.644781e-01
5.675766e-01
5.702617e-01
0.000000e+00
1.000000e+00
5.695016e-01
5.658028e-01
5.617171e-01
5.575499e-01
5.535994e-01
5.502818e-01
5.480498e-01
5.472651e-01
5.480671e-01
5.503132e-01
5.536420e-01
5.576213e-01
5.617836e-01
5.658558e-01
5.694424e-01
0.000000e+00
1.000000e+00
5.686291e-01
5.639995e-01
5.588933e-01
5.536838e-01
5.487456e-01
5.445991e-01
5.418100e-01
5.408305e-01
5.418337e-01
5.446409e-01
5.488000e-01
5.537722e-01
5.589718e-01
5.640584e-01
5.685870e-01
0.000000e+00
1.000000e+00
5.677646e-01
5.622181e-01
5.561044e-01
5.498659e-01
5.439526e-01
5.389877e-01
5.356487e-01
5.344768e-01
5.356786e-01
5.390397e-01
5.440181e-01
5.499711e-01
5.561943e-01
5.622835e-01
5.677442e-01
0.000000e+00
1.000000e+00
5.669601e-01
5.605553e-01
5.535013e-01
5.463024e-01
5.394792e-01
5.337506e-01
5.298985e-01
5.285469e-01
5.299339e-01
5.338119e-01
5.395543e-01
5.464237e-01
5.536002e-01
5.606232e-01
5.669567e-01
0.000000e+00
1.000000e+00
5.662570e-01
5.590965e-01
5.512175e-01
5.431761e-01
5.355546e-01
5.291562e-01
5.248537e-01
5.233442e-01
5.248935e-01
5.292251e-01
5.356375e-01
5.433110e-01
5.513243e-01
5.591672e-01
5.662653e-01
0.000000e+00
1.000000e+00
5.656812e-01
5.579070e-01
5.493553e-01
5.406272e-01
5.323549e-01
5.254103e-01
5.207405e-01
5.191021e-01
5.207833e-01
5.254851e-01
5.324434e-01
5.407729e-01
5.494672e-01
5.579774e-01
5.657010e-01
0.000000e+00
1.000000e+00
5.652616e-01
5.570281e-01
5.479790e-01
5.387431e-01
5.299899e-01
5.226415e-01
5.177001e-01
5.159663e-01
5.177449e-01
5.227205e-01
5.300828e-01
5.388944e-01
5.480942e-01
5.570992e-01
5.652864e-01
0.000000e+00
1.000000e+00
5.650019e-01
5.564743e-01
5.471126e-01
5.375573e-01
5.285015e-01
5.208991e-01
5.157864e-01
5.139918e-01
5.158317e-01
5.209798e-01
5.285987e-01
5.377097e-01
5.472255e-01
5.565453e-01
5.650242e-01
0.000000e+00
1.000000e+00
5.648898e-01
5.562382e-01
5.467448e-01
5.370540e-01
5.278696e-01
5.201593e-01
5.149742e-01
5.131542e-01
5.150203e-01
5.202420e-01
5.279735e-01
5.371970e-01
5.468557e-01
5.563258e-01
5.649186e-01
0.000000e+00
1.000000e+00
5.649827e-01
5.562884e-01
5.468400e-01
5.371851e-01
5.280352e-01
5.203539e-01
5.151882e-01
5.133746e-01
5.152333e-01
5.204359e-01
5.281433e-01
5.373193e-01
5.469711e-01
5.565093e-01
5.646066e-01
0.000000e+00
1.000000e+00
5.731807e-01
5.732766e-01
5.734384e-01
5.735984e-01
5.737500e-01
5.738775e-01
5.739634e-01
5.739938e-01
5.739631e-01
5.738765e-01
5.737481e-01
5.735959e-01
5.734388e-01
5.732801e-01
5.732459e-01
0.000000e+00
1.000000e+00
5.729429e-01
5.728046e-01
5.726953e-01
5.725809e-01
5.724725e-01
5.723814e-01
5.723200e-01
5.722981e-01
5.723194e-01
5.723800e-01
5.724720e-01
5.725823e-01
5.726974e-01
5.728062e-01
5.729835e-01
0.000000e+00
1.000000e+00
5.725560e-01
5.720376e-01
5.714925e-01
5.709340e-01
5.704044e-01
5.699594e-01
5.696595e-01
5.695533e-01
5.696593e-01
5.699596e-01
5.704081e-01
5.709440e-01
5.714993e-01
5.720451e-01
5.725741e-01
0.000000e+00
1.000000e+00
5.720241e-01
5.709600e-01
5.698038e-01
5.686217e-01
5.675009e-01
5.665592e-01
5.659249e-01
5.657007e-01
5.659267e-01
5.665646e-01
5.675121e-01
5.686440e-01
5.698222e-01
5.709760e-01
5.719955e-01
0.000000e+00
1.000000e+00
5.713460e-01
5.695773e-01
5.676365e-01
5.656542e-01
5.637748e-01
5.621959e-01
5.611328e-01
5.607579e-01
5.611383e-01
5.622086e-01
5.637951e-01
5.656876e-01
5.676648e-01
5.696033e-01
5.713064e-01
0.000000e+00
1.000000e+00
5.705349e-01
5.679189e-01
5.650380e-01
5.620964e-01
5.593075e-01
5.569651e-01
5.553886e-01
5.548336e-01
5.553992e-01
5.569866e-01
5.593392e-01
5.621428e-01
5.650786e-01
5.679555e-01
5.704970e-01
0.000000e+00
1.000000e+00
5.696224e-01
5.660431e-01
5.621001e-01
5.580739e-01
5.542569e-01
5.510516e-01
5.488951e-01
5.481371e-01
5.489121e-01
5.510833e-01
5.543014e-01
5.581357e-01
5.621532e-01
5.660892e-01
5.695933e-01
0.000000e+00
1.000000e+00
5.686516e-01
5.640351e-01
5.589559e-01
5.537689e-01
5.488520e-01
5.447236e-01
5.419469e-01
5.409718e-01
5.419709e-01
5.447666e-01
5.489102e-01
5.538481e-01
5.590208e-01
5.640898e-01
5.686321e-01
0.000000e+00
1.000000e+00
5.676685e-01
5.619998e-01
5.557692e-01
5.494060e-01
5.433747e-01
5.383111e-01
5.349060e-01
5.337111e-01
5.349371e-01
5.383656e-01
5.434462e-01
5.495042e-01
5.558462e-01
5.620608e-01
5.676626e-01
0.000000e+00
1.000000e+00
5.667280e-01
5.600501e-01
5.527171e-01
5.452277e-01
5.381293e-01
5.321703e-01
5.281637e-01
5.267581e-01
5.282013e-01
5.322357e-01
5.382127e-01
5.453448e-01
5.528055e-01
5.601164e-01
5.667361e-01
0.000000e+00
1.000000e+00
5.658840e-01
5.582946e-01
5.499690e-01
5.414657e-01
5.334068e-01
5.266417e-01
5.220934e-01
5.204980e-01
5.221365e-01
5.267164e-01
5.334995e-01
5.416008e-01
5.500683e-01
5.583629e-01
5.659026e-01
0.000000e+00
1.000000e+00
5.651766e-01
5.568239e-01
5.476664e-01
5.383138e-01
5.294502e-01
5.220098e-01
5.170074e-01
5.152527e-01
5.170545e-01
5.220918e-01
5.295498e-01
5.384627e-01
5.477770e-01
5.568937e-01
5.652027e-01
0.000000e+00
1.000000e+00
5.646337e-01
5.557014e-01
5.459086e-01
5.359080e-01
5.264302e-01
5.184742e-01
5.131250e-01
5.112484e-01
5.131743e-01
5.185615e-01
5.265346e-01
5.360655e-01
5.460290e-01
5.557691e-01
5.646688e-01
0.000000e+00
1.000000e+00
5.642749e-01
5.549601e-01
5.447465e-01
5.343174e-01
5.244336e-01
5.161364e-01
5.105575e-01
5.086004e-01
5.106085e-01
5.162274e-01
5.245421e-01
5.344769e-01
5.448729e-01
5.550266e-01
5.643127e-01
0.000000e+00
1.000000e+00
5.641076e-01
5.545999e-01
5.441836e-01
5.335472e-01
5.234670e-01
5.150047e-01
5.093142e-01
5.073173e-01
5.093654e-01
5.150966e-01
5.235803e-01
5.337033e-01
5.443059e-01
5.546664e-01
5.641466e-01
0.000000e+00
1.000000e+00
5.641086e-01
5.546009e-01
5.441845e-01
5.335485e-01
5.234687e-01
5.150068e-01
5.093166e-01
5.073196e-01
5.093678e-01
5.150994e-01
5.235881e-01
5.336911e-01
5.443041e-01
5.546934e-01
5.641382e-01
0.000000e+00
1.000000e+00
5.643321e-01
5.549140e-01
5.446884e-01
5.342393e-01
5.243368e-01
5.160237e-01
5.104333e-01
5.084709e-01
5.104828e-01
5.161143e-01
5.244596e-01
5.343680e-01
5.448262e-01
5.551590e-01
5.639343e-01
0.000000e+00
1.000000e+00
5.734359e-01
5.737837e-01
5.742297e-01
5.746823e-01
5.751115e-01
5.754723e-01
5.757153e-01
5.758010e-01
5.757140e-01
5.754708e-01
5.751103e-01
5.746825e-01
5.742386e-01
5.737966e-01
5.733260e-01
0.000000e+00
1.000000e+00
5.730699e-01
5.730750e-01
5.731164e-01
5.731577e-01
5.731970e-01
5.732299e-01
5.732520e-01
5.732593e-01
5.732503e-01
5.732269e-01
5.731956e-01
5.731605e-01
5.731277e-01
5.730840e-01
5.730532e-01
0.000000e+00
1.000000e+00
5.725662e-01
5.720383e-01
5.714925e-01
5.709343e-01
5.704051e-01
5.699606e-01
5.696611e-01
5.695549e-01
5.696609e-01
5.699609e-01
5.704119e-01
5.709464e-01
5.715059e-01
5.720447e-01
5.725484e-01
0.000000e+00
1.000000e+00
5.719010e-01
5.706639e-01
5.693405e-01
5.679878e-01
5.667053e-01
5.656280e-01
5.649026e-01
5.646467e-01
5.649061e-01
5.656368e-01
5.667231e-01
5.680136e-01
5.693639e-01
5.706854e-01
5.718048e-01
0.000000e+00
1.000000e+00
5.710664e-01
5.689649e-01
5.666802e-01
5.643453e-01
5.621317e-01
5.602725e-01
5.590212e-01
5.585807e-01
5.590299e-01
5.602918e-01
5.621601e-01
5.643855e-01
5.667163e-01
5.690000e-01
5.709724e-01
0.000000e+00
1.000000e+00
5.700987e-01
5.669842e-01
5.635795e-01
5.600996e-01
5.568008e-01
5.540306e-01
5.521669e-01
5.515119e-01
5.521821e-01
5.540613e-01
5.568418e-01
5.601529e-01
5.636257e-01
5.670277e-01
5.700200e-01
0.000000e+00
1.000000e+00
5.690361e-01
5.647973e-01
5.601568e-01
5.554132e-01
5.509168e-01
5.471415e-01
5.446025e-01
5.437111e-01
5.446252e-01
5.471845e-01
5.509730e-01
5.554835e-01
5.602135e-01
5.648502e-01
5.689761e-01
0.000000e+00
1.000000e+00
5.679303e-01
5.625100e-01
5.565766e-01
5.505113e-01
5.447625e-01
5.399365e-01
5.366916e-01
5.355531e-01
5.367221e-01
5.399922e-01
5.448347e-01
5.506019e-01
5.566441e-01
5.625722e-01
5.678914e-01
0.000000e+00
1.000000e+00
5.668368e-01
5.602468e-01
5.530343e-01
5.456616e-01
5.386743e-01
5.328091e-01
5.288660e-01
5.274831e-01
5.289042e-01
5.328772e-01
5.387613e-01
5.457742e-01
5.531133e-01
5.603150e-01
5.668176e-01
0.000000e+00
1.000000e+00
5.658223e-01
5.581385e-01
5.497344e-01
5.411439e-01
5.330030e-01
5.261700e-01
5.215765e-01
5.199657e-01
5.216213e-01
5.262492e-01
5.331025e-01
5.412786e-01
5.498254e-01
5.582137e-01
5.658176e-01
0.000000e+00
1.000000e+00
5.649430e-01
5.563056e-01
5.468643e-01
5.372149e-01
5.280708e-01
5.203960e-01
5.152365e-01
5.134272e-01
5.152866e-01
5.204841e-01
5.281793e-01
5.373691e-01
5.469674e-01
5.563827e-01
5.649444e-01
0.000000e+00
1.000000e+00
5.642399e-01
5.548419e-01
5.445716e-01
5.340764e-01
5.241311e-01
5.157836e-01
5.101718e-01
5.082037e-01
5.102254e-01
5.158783e-01
5.242455e-01
5.342432e-01
5.446900e-01
5.549179e-01
5.642451e-01
0.000000e+00
1.000000e+00
5.637386e-01
5.538067e-01
5.429490e-01
5.318557e-01
5.213434e-01
5.125198e-01
5.065876e-01
5.045065e-01
5.066427e-01
5.126190e-01
5.214619e-01
5.320255e-01
5.430840e-01
5.538784e-01
5.637515e-01
0.000000e+00
1.000000e+00
5.634487e-01
5.532216e-01
5.420304e-01
5.305985e-01
5.197651e-01
5.106717e-01
5.045581e-01
5.024133e-01
5.046145e-01
5.107744e-01
5.198882e-01
5.307632e-01
5.421758e-01
5.532903e-01
5.634706e-01
0.000000e+00
1.000000e+00
5.633864e-01
5.530709e-01
5.417960e-01
5.302781e-01
5.193629e-01
5.102002e-01
5.040395e-01
5.018780e-01
5.040961e-01
5.103033e-01
5.194906e-01
5.304346e-01
5.419324e-01
5.531402e-01
5.634094e-01
0.000000e+00
1.000000e+00
5.635003e-01
5.533187e-01
5.421827e-01
5.308079e-01
5.200281e-01
5.109792e-01
5.048947e-01
5.027599e-01
5.049509e-01
5.110816e-01
5.201594e-01
5.309525e-01
5.423139e-01
5.534192e-01
5.635142e-01
0.000000e+00
1.000000e+00
5.638495e-01
5.538997e-01
5.431035e-01
5.320696e-01
5.216132e-01
5.128354e-01
5.069330e-01
5.048617e-01
5.069870e-01
5.129350e-01
5.217446e-01
5.322056e-01
5.432496e-01
5.541420e-01
5.634660e-01
0.000000e+00
1.000000e+00
5.738061e-01
5.745620e-01
5.754503e-01
5.763534e-01
5.772098e-01
5.779295e-01
5.784143e-01
5.785856e-01
5.784131e-01
5.779287e-01
5.772119e-01
5.763592e-01
5.754706e-01
5.745901e-01
5.736041e-01
0.000000e+00
1.000000e+00
5.733380e-01
5.736266e-01
5.739799e-01
5.743400e-01
5.746815e-01
5.749685e-01
5.751616e-01
5.752294e-01
5.751597e-01
5.749650e-01
5.746805e-01
5.743462e-01
5.740025e-01
5.736525e-01
5.732471e-01
0.000000e+00
1.000000e+00
5.727098e-01
5.723309e-01
5.719490e-01
5.715596e-01
5.711904e-01
5.708802e-01
5.706713e-01
5.705972e-01
5.706711e-01
5.708802e-01
5.711988e-01
5.715752e-01
5.719764e-01
5.723494e-01
5.726298e-01
0.000000e+00
1.000000e+00
5.718985e-01
5.706689e-01
5.693472e-01
5.679971e-01
5.667172e-01
5.656423e-01
5.649188e-01
5.646638e-01
5.649230e-01
5.656526e-01
5.667405e-01
5.680255e-01
5.693785e-01
5.706993e-01
5.717693e-01
0.000000e+00
1.000000e+00
5.709325e-01
5.686628e-01
5.662076e-01
5.636984e-01
5.613198e-01
5.593223e-01
5.579786e-01
5.575061e-01
5.579898e-01
5.593467e-01
5.613566e-01
5.637443e-01
5.662522e-01
5.687096e-01
5.708210e-01
0.000000e+00
1.000000e+00
5.698198e-01
5.663697e-01
5.626194e-01
5.587853e-01
5.551511e-01
5.520998e-01
5.500479e-01
5.493275e-01
5.500670e-01
5.521387e-01
5.552011e-01
5.588471e-01
5.626744e-01
5.664244e-01
5.697299e-01
0.000000e+00
1.000000e+00
5.686205e-01
5.638827e-01
5.587291e-01
5.534588e-01
5.484638e-01
5.442706e-01
5.414514e-01
5.404626e-01
5.414791e-01
5.443242e-01
5.485293e-01
5.535378e-01
5.587941e-01
5.639463e-01
5.685391e-01
0.000000e+00
1.000000e+00
5.673887e-01
5.613281e-01
5.547333e-01
5.479880e-01
5.415958e-01
5.362305e-01
5.326239e-01
5.313593e-01
5.326600e-01
5.362987e-01
5.416793e-01
5.480882e-01
5.548087e-01
5.614002e-01
5.673202e-01
0.000000e+00
1.000000e+00
5.661960e-01
5.588515e-01
5.508595e-01
5.426847e-01
5.349385e-01
5.284375e-01
5.240675e-01
5.225355e-01
5.241115e-01
5.285188e-01
5.350392e-01
5.428097e-01
5.509459e-01
5.589294e-01
5.661458e-01
0.000000e+00
1.000000e+00
5.651153e-01
5.566017e-01
5.473390e-01
5.378651e-01
5.288887e-01
5.213553e-01
5.162914e-01
5.145161e-01
5.163420e-01
5.214478e-01
5.290032e-01
5.380147e-01
5.474367e-01
5.566860e-01
5.650828e-01
0.000000e+00
1.000000e+00
5.642054e-01
5.547093e-01
5.443758e-01
5.338085e-01
5.237963e-01
5.153937e-01
5.097453e-01
5.077648e-01
5.098009e-01
5.154943e-01
5.239203e-01
5.339787e-01
5.444862e-01
5.547923e-01
5.641873e-01
0.000000e+00
1.000000e+00
5.635081e-01
5.532702e-01
5.421207e-01
5.307216e-01
5.199211e-01
5.108566e-01
5.047629e-01
5.026258e-01
5.048216e-01
5.109625e-01
5.200512e-01
5.309018e-01
5.422503e-01
5.533535e-01
5.635042e-01
0.000000e+00
1.000000e+00
5.630494e-01
5.523375e-01
5.406573e-01
5.287187e-01
5.174065e-01
5.079120e-01
5.015289e-01
4.992895e-01
5.015890e-01
5.080219e-01
5.175408e-01
5.288959e-01
5.408075e-01
5.524225e-01
5.630599e-01
0.000000e+00
1.000000e+00
5.628387e-01
5.519189e-01
5.399990e-01
5.278181e-01
5.162759e-01
5.065882e-01
5.000750e-01
4.977898e-01
5.001357e-01
5.067009e-01
5.164150e-01
5.279838e-01
5.401600e-01
5.520139e-01
5.628516e-01
0.000000e+00
1.000000e+00
5.628788e-01
5.519840e-01
5.401010e-01
5.279576e-01
5.164505e-01
5.067920e-01
5.002984e-01
4.980206e-01
5.003597e-01
5.069053e-01
5.165936e-01
5.281112e-01
5.402501e-01
5.520772e-01
5.628884e-01
0.000000e+00
1.000000e+00
5.631165e-01
5.524780e-01
5.408728e-01
5.290142e-01
5.177767e-01
5.083441e-01
5.020023e-01
4.997778e-01
5.020626e-01
5.084552e-01
5.179175e-01
5.291585e-01
5.410201e-01
5.525917e-01
5.631125e-01
0.000000e+00
1.000000e+00
5.635790e-01
5.533199e-01
5.421990e-01
5.308313e-01
5.200588e-01
5.110163e-01
5.049365e-01
5.028037e-01
5.049942e-01
5.111236e-01
5.201939e-01
5.309817e-01
5.423574e-01
5.535478e-01
5.631966e-01
0.000000e+00
1.000000e+00
5.743277e-01
5.756048e-01
5.770872e-01
5.785951e-01
5.800252e-01
5.812269e-01
5.820365e-01
5.823225e-01
5.820348e-01
5.812278e-01
5.800363e-01
5.786143e-01
5.771256e-01
5.756485e-01
5.740592e-01
0.000000e+00
1.000000e+00
5.737497e-01
5.744624e-01
5.752901e-01
5.761341e-01
5.769345e-01
5.776069e-01
5.780597e-01
5.782193e-01
5.780572e-01
5.776025e-01
5.769354e-01
5.761466e-01
5.753290e-01
5.745049e-01
5.735895e-01
0.000000e+00
1.000000e+00
5.729850e-01
5.729289e-01
5.728841e-01
5.728396e-01
5.727974e-01
5.727620e-01
5.727383e-01
5.727297e-01
5.727378e-01
5.727614e-01
5.728054e-01
5.728590e-01
5.729266e-01
5.729629e-01
5.728694e-01
0.000000e+00
1.000000e+00
5.720517e-01
5.710007e-01
5.698657e-01
5.687069e-01
5.676086e-01
5.666865e-01
5.660663e-01
5.658483e-01
5.660712e-01
5.666973e-01
5.676363e-01
5.687399e-01
5.699130e-01
5.710405e-01
5.718890e-01
0.000000e+00
1.000000e+00
5.709503e-01
5.687117e-01
5.662839e-01
5.638028e-01
5.614512e-01
5.594772e-01
5.581496e-01
5.576835e-01
5.581624e-01
5.595048e-01
5.614968e-01
5.638513e-01
5.663390e-01
5.687668e-01
5.707982e-01
0.000000e+00
1.000000e+00
5.697080e-01
5.661327e-01
5.622487e-01
5.582779e-01
5.545144e-01
5.513553e-01
5.492314e-01
5.484867e-01
5.492536e-01
5.514001e-01
5.545747e-01
5.583458e-01
5.623138e-01
5.661958e-01
5.695853e-01
0.000000e+00
1.000000e+00
5.683928e-01
5.633738e-01
5.579335e-01
5.523698e-01
5.470972e-01
5.426718e-01
5.396973e-01
5.386548e-01
5.397287e-01
5.427334e-01
5.471728e-01
5.524566e-01
5.580082e-01
5.634460e-01
5.682849e-01
0.000000e+00
1.000000e+00
5.670587e-01
5.605807e-01
5.535657e-01
5.463902e-01
5.395913e-01
5.338853e-01
5.300502e-01
5.287061e-01
5.300903e-01
5.339629e-01
5.396841e-01
5.464981e-01
5.536494e-01
5.606616e-01
5.669708e-01
0.000000e+00
1.000000e+00
5.657942e-01
5.579189e-01
5.494034e-01
5.406924e-01
5.324396e-01
5.255138e-01
5.208587e-01
5.192269e-01
5.209064e-01
5.256055e-01
5.325498e-01
5.408253e-01
5.494979e-01
5.580069e-01
5.657178e-01
0.000000e+00
1.000000e+00
5.646599e-01
5.555522e-01
5.457019e-01
5.356258e-01
5.260802e-01
5.180694e-01
5.126846e-01
5.107967e-01
5.127387e-01
5.181721e-01
5.262057e-01
5.357828e-01
5.458088e-01
5.556441e-01
5.645950e-01
0.000000e+00
1.000000e+00
5.637227e-01
5.536201e-01
5.426791e-01
5.314880e-01
5.208862e-01
5.119888e-01
5.060074e-01
5.039099e-01
5.060662e-01
5.120987e-01
5.210238e-01
5.316642e-01
5.428012e-01
5.537122e-01
5.636687e-01
0.000000e+00
1.000000e+00
5.630361e-01
5.522205e-01
5.404871e-01
5.284872e-01
5.171185e-01
5.075771e-01
5.011626e-01
4.989128e-01
5.012244e-01
5.076916e-01
5.172645e-01
5.286717e-01
5.406276e-01
5.523167e-01
5.629921e-01
0.000000e+00
1.000000e+00
5.626195e-01
5.514001e-01
5.391973e-01
5.267212e-01
5.149003e-01
5.049790e-01
4.983089e-01
4.959694e-01
4.983731e-01
5.050978e-01
5.150523e-01
5.269016e-01
5.393539e-01
5.515039e-01
5.625927e-01
0.000000e+00
1.000000e+00
5.625081e-01
5.511489e-01
5.388022e-01
5.261801e-01
5.142204e-01
5.041823e-01
4.974335e-01
4.950661e-01
4.974979e-01
5.043032e-01
5.143755e-01
5.263463e-01
5.389559e-01
5.512711e-01
5.624549e-01
0.000000e+00
1.000000e+00
5.626321e-01
5.514214e-01
5.392276e-01
5.267624e-01
5.149515e-01
5.050385e-01
4.983743e-01
4.960370e-01
4.984388e-01
5.051598e-01
5.151078e-01
5.269177e-01
5.393726e-01
5.515479e-01
5.625920e-01
0.000000e+00
1.000000e+00
5.629855e-01
5.521485e-01
5.403614e-01
5.283137e-01
5.168978e-01
5.073163e-01
5.008750e-01
4.986162e-01
5.009381e-01
5.074339e-01
5.170454e-01
5.284646e-01
5.405142e-01
5.522850e-01
5.629279e-01
0.000000e+00
1.000000e+00
5.635448e-01
5.532303e-01
5.420599e-01
5.306403e-01
5.198194e-01
5.107369e-01
5.046309e-01
5.024897e-01
5.046911e-01
5.108495e-01
5.199566e-01
5.308055e-01
5.422120e-01
5.534231e-01
5.632361e-01
0.000000e+00
1.000000e+00
5.749727e-01
5.768841e-01
5.790974e-01
5.813477e-01
5.834819e-01
5.852756e-01
5.864843e-01
5.869120e-01
5.864845e-01
5.852836e-01
5.835087e-01
5.813854e-01
5.791521e-01
5.769433e-01
5.746868e-01
0.000000e+00
1.000000e+00
5.743023e-01
5.755616e-01
5.770138e-01
5.784947e-01
5.798990e-01
5.810789e-01
5.818736e-01
5.821541e-01
5.818709e-01
5.810754e-01
5.799084e-01
5.785223e-01
5.770751e-01
5.756190e-01
5.741271e-01
0.000000e+00
1.000000e+00
5.734215e-01
5.738203e-01
5.742802e-01
5.747513e-01
5.751981e-01
5.755734e-01
5.758262e-01
5.759153e-01
5.758249e-01
5.755718e-01
5.752055e-01
5.747771e-01
5.743409e-01
5.738725e-01
5.733268e-01
0.000000e+00
1.000000e+00
5.723562e-01
5.716634e-01
5.709003e-01
5.701232e-01
5.693867e-01
5.687688e-01
5.683540e-01
5.682091e-01
5.683596e-01
5.687791e-01
5.694159e-01
5.701636e-01
5.709655e-01
5.717167e-01
5.722501e-01
0.000000e+00
1.000000e+00
5.711417e-01
5.691289e-01
5.669363e-01
5.646959e-01
5.625727e-01
5.607913e-01
5.595942e-01
5.591747e-01
5.596077e-01
5.608199e-01
5.626253e-01
5.647485e-01
5.670098e-01
5.691993e-01
5.710505e-01
0.000000e+00
1.000000e+00
5.697945e-01
5.663049e-01
5.625189e-01
5.586478e-01
5.549795e-01
5.519017e-01
5.498324e-01
5.491078e-01
5.498563e-01
5.519498e-01
5.550502e-01
5.587170e-01
5.625960e-01
5.663844e-01
5.697169e-01
0.000000e+00
1.000000e+00
5.683666e-01
5.633180e-01
5.578466e-01
5.522515e-01
5.469496e-01
5.425005e-01
5.395101e-01
5.384632e-01
5.395442e-01
5.425671e-01
5.470364e-01
5.523407e-01
5.579320e-01
5.634031e-01
5.682808e-01
0.000000e+00
1.000000e+00
5.669584e-01
5.603309e-01
5.531744e-01
5.458556e-01
5.389213e-01
5.331022e-01
5.291915e-01
5.278215e-01
5.292340e-01
5.331853e-01
5.390248e-01
5.459663e-01
5.532667e-01
5.604200e-01
5.668399e-01
0.000000e+00
1.000000e+00
5.656411e-01
5.575251e-01
5.487853e-01
5.398484e-01
5.313821e-01
5.242771e-01
5.195012e-01
5.178274e-01
5.195508e-01
5.243737e-01
5.315018e-01
5.399833e-01
5.488862e-01
5.576191e-01
5.655032e-01
0.000000e+00
1.000000e+00
5.644890e-01
5.550757e-01
5.449545e-01
5.346064e-01
5.248030e-01
5.165752e-01
5.110439e-01
5.091046e-01
5.110994e-01
5.166826e-01
5.249372e-01
5.347634e-01
5.450654e-01
5.551727e-01
5.643491e-01
0.000000e+00
1.000000e+00
5.635434e-01
5.531272e-01
5.419102e-01
5.304399e-01
5.195729e-01
5.104519e-01
5.043197e-01
5.021691e-01
5.043796e-01
5.105666e-01
5.197197e-01
5.306135e-01
5.420318e-01
5.532282e-01
5.634445e-01
0.000000e+00
1.000000e+00
5.628633e-01
5.517792e-01
5.398027e-01
5.275537e-01
5.159485e-01
5.062079e-01
4.996590e-01
4.973619e-01
4.997220e-01
5.063277e-01
5.161065e-01
5.277351e-01
5.399344e-01
5.518865e-01
5.628282e-01
0.000000e+00
1.000000e+00
5.624863e-01
5.510701e-01
5.386885e-01
5.260269e-01
5.140307e-01
5.039622e-01
4.971932e-01
4.948191e-01
4.972587e-01
5.040865e-01
5.141965e-01
5.262058e-01
5.388258e-01
5.511902e-01
5.625016e-01
0.000000e+00
1.000000e+00
5.624467e-01
5.509771e-01
5.385405e-01
5.258233e-01
5.137742e-01
5.036613e-01
4.968625e-01
4.944781e-01
4.969290e-01
5.037877e-01
5.139407e-01
5.259935e-01
5.386748e-01
5.511226e-01
5.624504e-01
0.000000e+00
1.000000e+00
5.626610e-01
5.514383e-01
5.392602e-01
5.268079e-01
5.150100e-01
5.051085e-01
4.984522e-01
4.961181e-01
4.985181e-01
5.052340e-01
5.151725e-01
5.269747e-01
5.393947e-01
5.515975e-01
5.626731e-01
0.000000e+00
1.000000e+00
5.631074e-01
5.523702e-01
5.407112e-01
5.287927e-01
5.175001e-01
5.080228e-01
5.016519e-01
4.994185e-01
5.017162e-01
5.081436e-01
5.176506e-01
5.289563e-01
5.408495e-01
5.525335e-01
5.630827e-01
0.000000e+00
1.000000e+00
5.637488e-01
5.536581e-01
5.427289e-01
5.315556e-01
5.209688e-01
5.120834e-01
5.061106e-01
5.040170e-01
5.061719e-01
5.121987e-01
5.211080e-01
5.317301e-01
5.428629e-01
5.538116e-01
5.636039e-01
0.000000e+00
1.000000e+00
5.757011e-01
5.783528e-01
5.814040e-01
5.845059e-01
5.874479e-01
5.899207e-01
5.915877e-01
5.921787e-01
5.915925e-01
5.899403e-01
5.874921e-01
5.845607e-01
5.814725e-01
5.784332e-01
5.753794e-01
0.000000e+00
1.000000e+00
5.749560e-01
5.768807e-01
5.790831e-01
5.813284e-01
5.834577e-01
5.852471e-01
5.864525e-01
5.868785e-01
5.864505e-01
5.852484e-01
5.834814e-01
5.813755e-01
5.791623e-01
5.769584e-01
5.747209e-01
0.000000e+00
1.000000e+00
5.739926e-01
5.749684e-01
5.760800e-01
5.772159e-01
5.782930e-01
5.791981e-01
5.798076e-01
5.800227e-01
5.798056e-01
5.791959e-01
5.783038e-01
5.772543e-01
5.761637e-01
5.750590e-01
5.737960e-01
0.000000e+00
1.000000e+00
5.728216e-01
5.726287e-01
5.724088e-01
5.721885e-01
5.719797e-01
5.718050e-01
5.716888e-01
5.716498e-01
5.716948e-01
5.718142e-01
5.720067e-01
5.722363e-01
5.724880e-01
5.727347e-01
5.725656e-01
0.000000e+00
1.000000e+00
5.714950e-01
5.699017e-01
5.681425e-01
5.663468e-01
5.646452e-01
5.632185e-01
5.622617e-01
5.619280e-01
5.622762e-01
5.632466e-01
5.647010e-01
5.664076e-01
5.682365e-01
5.700460e-01
5.711827e-01
0.000000e+00
1.000000e+00
5.700554e-01
5.668866e-01
5.634290e-01
5.598935e-01
5.565443e-01
5.537357e-01
5.518490e-01
5.511882e-01
5.518721e-01
5.537843e-01
5.566225e-01
5.599672e-01
5.635275e-01
5.670652e-01
5.697822e-01
0.000000e+00
1.000000e+00
5.685643e-01
5.637272e-01
5.584888e-01
5.531312e-01
5.480559e-01
5.437978e-01
5.409354e-01
5.399337e-01
5.409698e-01
5.438654e-01
5.481513e-01
5.532195e-01
5.585895e-01
5.639121e-01
5.684089e-01
0.000000e+00
1.000000e+00
5.670962e-01
5.606017e-01
5.535989e-01
5.464386e-01
5.396542e-01
5.339616e-01
5.301354e-01
5.287960e-01
5.301789e-01
5.340462e-01
5.397668e-01
5.465449e-01
5.537036e-01
5.607720e-01
5.669991e-01
0.000000e+00
1.000000e+00
5.657461e-01
5.577032e-01
5.490611e-01
5.402290e-01
5.318606e-01
5.248375e-01
5.201170e-01
5.184627e-01
5.201669e-01
5.249351e-01
5.319889e-01
5.403564e-01
5.491708e-01
5.578528e-01
5.656604e-01
0.000000e+00
1.000000e+00
5.646203e-01
5.552182e-01
5.451643e-01
5.348970e-01
5.251682e-01
5.170021e-01
5.115121e-01
5.095873e-01
5.115673e-01
5.171091e-01
5.253094e-01
5.350441e-01
5.452788e-01
5.553447e-01
5.644924e-01
0.000000e+00
1.000000e+00
5.637198e-01
5.532849e-01
5.421402e-01
5.307577e-01
5.199716e-01
5.109176e-01
5.048303e-01
5.026954e-01
5.048898e-01
5.110319e-01
5.201239e-01
5.309198e-01
5.422599e-01
5.534134e-01
5.635503e-01
0.000000e+00
1.000000e+00
5.630033e-01
5.519919e-01
5.401324e-01
5.280074e-01
5.165183e-01
5.068745e-01
5.003906e-01
4.981167e-01
5.004540e-01
5.069955e-01
5.166809e-01
5.281773e-01
5.402567e-01
5.521607e-01
5.628927e-01
0.000000e+00
1.000000e+00
5.627125e-01
5.513867e-01
5.391870e-01
5.267112e-01
5.148904e-01
5.049685e-01
4.982976e-01
4.959579e-01
4.983625e-01
5.050928e-01
5.150570e-01
5.268826e-01
5.393173e-01
5.516063e-01
5.625597e-01
0.000000e+00
1.000000e+00
5.627014e-01
5.514292e-01
5.392540e-01
5.268022e-01
5.150051e-01
5.051037e-01
4.984471e-01
4.961129e-01
4.985131e-01
5.052306e-01
5.151713e-01
5.269760e-01
5.393902e-01
5.516940e-01
5.625606e-01
0.000000e+00
1.000000e+00
5.629722e-01
5.520491e-01
5.402209e-01
5.281241e-01
5.166638e-01
5.070458e-01
5.005805e-01
4.983139e-01
5.006460e-01
5.071716e-01
5.168244e-01
5.282985e-01
5.403569e-01
5.523344e-01
5.628834e-01
0.000000e+00
1.000000e+00
5.634782e-01
5.531453e-01
5.419282e-01
5.304592e-01
5.195933e-01
5.104744e-01
5.043452e-01