<?xml version="1.0"?>
<VTKFile type="StructuredGrid" version="0.1">
  <StructuredGrid WholeExtent="0 16 0 16 0 16">
    <Piece Extent="0 16 0 16 0 16">
      <PointData Scalars="temperature" Vectors="velocity">
        <DataArray type="Float32" Name="temperature" format="ascii">
1.000000e+00
5.730751e-01
5.730243e-01
5.730414e-01
5.730555e-01
5.730689e-01
5.730802e-01
5.730877e-01
5.730904e-01
5.730878e-01
5.730804e-01
5.730694e-01
5.730563e-01
5.730419e-01
5.730456e-01
5.728287e-01
0.000000e+00
1.000000e+00
5.731555e-01
5.732360e-01
5.733757e-01
5.735126e-01
5.736424e-01
5.737514e-01
5.738248e-01
5.738506e-01
5.738243e-01
5.737506e-01
5.736417e-01
5.735135e-01
5.733771e-01
5.732390e-01
5.729027e-01
0.000000e+00
1.000000e+00
5.733825e-01
5.736897e-01
5.740859e-01
5.744854e-01
5.748641e-01
5.751824e-01
5.753967e-01
5.754722e-01
5.753956e-01
5.751805e-01
5.748623e-01
5.744862e-01
5.740941e-01
5.736986e-01
5.732946e-01
0.000000e+00
1.000000e+00
5.737327e-01
5.744008e-01
5.752003e-01
5.760114e-01
5.767805e-01
5.774267e-01
5.778620e-01
5.780157e-01
5.778605e-01
5.774240e-01
5.767779e-01
5.760156e-01
5.752198e-01
5.744229e-01
5.735923e-01
0.000000e+00
1.000000e+00
5.742094e-01
5.753706e-01
5.767207e-01
5.780933e-01
5.793948e-01
5.804886e-01
5.812255e-01
5.814861e-01
5.812243e-01
5.804862e-01
5.793941e-01
5.781081e-01
5.767577e-01
5.754034e-01
5.740831e-01
0.000000e+00
1.000000e+00
5.748049e-01
5.765818e-01
5.786201e-01
5.806941e-01
5.826609e-01
5.843137e-01
5.854276e-01
5.858221e-01
5.854275e-01
5.843144e-01
5.826690e-01
5.807278e-01
5.786711e-01
5.766261e-01
5.746550e-01
0.000000e+00
1.000000e+00
5.755019e-01
5.779960e-01
5.808387e-01
5.837320e-01
5.864758e-01
5.887819e-01
5.903363e-01
5.908875e-01
5.903389e-01
5.887895e-01
5.865007e-01
5.837850e-01
5.809009e-01
5.780496e-01
5.753398e-01
0.000000e+00
1.000000e+00
5.762700e-01
5.795545e-01
5.832854e-01
5.870821e-01
5.906829e-01
5.937094e-01
5.957499e-01
5.964745e-01
5.957567e-01
5.937279e-01
5.907277e-01
5.871497e-01
5.833561e-01
5.796204e-01
5.760783e-01
0.000000e+00
1.000000e+00
5.770724e-01
5.811839e-01
5.858436e-01
5.905849e-01
5.950817e-01
5.988617e-01
6.014105e-01
6.023168e-01
6.014229e-01
5.988928e-01
5.951456e-01
5.906626e-01
5.859234e-01
5.812608e-01
5.768191e-01
0.000000e+00
1.000000e+00
5.778671e-01
5.828005e-01
5.883825e-01
5.940612e-01
5.994472e-01
6.039749e-01
6.070286e-01
6.081154e-01
6.070475e-01
6.040208e-01
5.995289e-01
5.941482e-01
5.884685e-01
5.828874e-01
5.775415e-01
0.000000e+00
1.000000e+00
5.786161e-01
5.843201e-01
5.907706e-01
5.973308e-01
6.035530e-01
6.087841e-01
6.123128e-01
6.135701e-01
6.123395e-01
6.088463e-01
6.036501e-01
5.974262e-01
5.908629e-01
5.844140e-01
5.782603e-01
0.000000e+00
1.000000e+00
5.792851e-01
5.856668e-01
5.928896e-01
6.002320e-01
6.071962e-01
6.130514e-01
6.170021e-01
6.184114e-01
6.170376e-01
6.131302e-01
6.073064e-01
6.003364e-01
5.929852e-01
5.857703e-01
5.788989e-01
0.000000e+00
1.000000e+00
5.798455e-01
5.867809e-01
5.946463e-01
6.026370e-01
6.102165e-01
6.165895e-01
6.208905e-01
6.224272e-01
6.209348e-01
6.166829e-01
6.103380e-01
6.027489e-01
5.947446e-01
5.868937e-01
5.794128e-01
0.000000e+00
1.000000e+00
5.802764e-01
5.876229e-01
5.959793e-01
6.044620e-01
6.125087e-01
6.192751e-01
6.238429e-01
6.254770e-01
6.238944e-01
6.193793e-01
6.126377e-01
6.045792e-01
5.960769e-01
5.877465e-01
5.797962e-01
0.000000e+00
1.000000e+00
5.805724e-01
5.881739e-01
5.968605e-01
6.056691e-01
6.140253e-01
6.210526e-01
6.257974e-01
6.274962e-01
6.258527e-01
6.211623e-01
6.141598e-01
6.057906e-01
5.969579e-01
5.883076e-01
5.800776e-01
0.000000e+00
1.000000e+00
5.807334e-01
5.884345e-01
5.972934e-01
6.062626e-01
6.147716e-01
6.219277e-01
6.267600e-01
6.284902e-01
6.268147e-01
6.220373e-01
6.149093e-01
6.063884e-01
5.973908e-01
5.885861e-01
5.801982e-01
0.000000e+00
1.000000e+00
5.807609e-01
5.884303e-01
5.973072e-01
6.062814e-01
6.147950e-01
6.219546e-01
6.267897e-01
6.285217e-01
6.268414e-01
6.220556e-01
6.149308e-01
6.064079e-01
5.974027e-01
5.885987e-01
5.801158e-01
0.000000e+00
1.000000e+00
5.730605e-01
5.730168e-01
5.730298e-01
5.730395e-01
5.730487e-01
5.730563e-01
5.730615e-01
5.730632e-01
5.730614e-01
5.730563e-01
5.730489e-01
5.730415e-01
5.730323e-01
5.730368e-01
5.727988e-01
0.000000e+00
1.000000e+00
5.732675e-01
5.734607e-01
5.737265e-01
5.739930e-01
5.742457e-01
5.744580e-01
5.746010e-01
5.746513e-01
5.746002e-01
5.744567e-01
5.742440e-01
5.739925e-01
5.737318e-01
5.734807e-01
5.729798e-01
0.000000e+00
1.000000e+00
5.736202e-01
5.741714e-01
5.748399e-01
5.755179e-01
5.761607e-01
5.767009e-01
5.770647e-01
5.771933e-01
5.770637e-01
5.766988e-01
5.761578e-01
5.755179e-01
5.748546e-01
5.741921e-01
5.734749e-01
0.000000e+00
1.000000e+00
5.741050e-01
5.751604e-01
5.763907e-01
5.776414e-01
5.788273e-01
5.798238e-01
5.804952e-01
5.807326e-01
5.804941e-01
5.798215e-01
5.788245e-01
5.776509e-01
5.764231e-01
5.751914e-01
5.739157e-01
0.000000e+00
1.000000e+00
5.747247e-01
5.764219e-01
5.783692e-01
5.803504e-01
5.822291e-01
5.838080e-01
5.848719e-01
5.852488e-01
5.848720e-01
5.838082e-01
5.822334e-01
5.803798e-01
5.784190e-01
5.764620e-01
5.745521e-01
0.000000e+00
1.000000e+00
5.754661e-01
5.779273e-01
5.807311e-01
5.835845e-01
5.862905e-01
5.885647e-01
5.900976e-01
5.906415e-01
5.901006e-01
5.885716e-01
5.863113e-01
5.836349e-01
5.807899e-01
5.779786e-01
5.752563e-01
0.000000e+00
1.000000e+00
5.763013e-01
5.796245e-01
5.833948e-01
5.872318e-01
5.908707e-01
5.939293e-01
5.959912e-01
5.967236e-01
5.959982e-01
5.939459e-01
5.909119e-01
5.872969e-01
5.834632e-01
5.796875e-01
5.760622e-01
0.000000e+00
1.000000e+00
5.771930e-01
5.814390e-01
5.862427e-01
5.911312e-01
5.957675e-01
5.996648e-01
6.022928e-01
6.032275e-01
6.023054e-01
5.996946e-01
5.958310e-01
5.912087e-01
5.863209e-01
5.815143e-01
5.769034e-01
0.000000e+00
1.000000e+00
5.780976e-01
5.832790e-01
5.891321e-01
5.950875e-01
6.007357e-01
6.054839e-01
6.086865e-01
6.098267e-01
6.087057e-01
6.055300e-01
6.008213e-01
5.951765e-01
5.892199e-01
5.833652e-01
5.777587e-01
0.000000e+00
1.000000e+00
5.789684e-01
5.850462e-01
5.919089e-01
5.988894e-01
6.055100e-01
6.110760e-01
6.148309e-01
6.161693e-01
6.148583e-01
6.111410e-01
6.056162e-01
5.989914e-01
5.920037e-01
5.851421e-01
5.785854e-01
0.000000e+00
1.000000e+00
5.797623e-01
5.866453e-01
5.944247e-01
6.023337e-01
6.098352e-01
6.161422e-01
6.203981e-01
6.219172e-01
6.204351e-01
6.162274e-01
6.099599e-01
6.024476e-01
5.945270e-01
5.867513e-01
5.793485e-01
0.000000e+00
1.000000e+00
5.804402e-01
5.879956e-01
5.965534e-01
6.052481e-01
6.134951e-01
6.204296e-01
6.251103e-01
6.267837e-01
6.251578e-01
6.205342e-01
6.136357e-01
6.053740e-01
5.966604e-01
5.881143e-01
5.799899e-01
0.000000e+00
1.000000e+00
5.809739e-01
5.890386e-01
5.982044e-01
6.075085e-01
6.163341e-01
6.237560e-01
6.287673e-01
6.305616e-01
6.288240e-01
6.238757e-01
6.164881e-01
6.076441e-01
5.983138e-01
5.891712e-01
5.804651e-01
0.000000e+00
1.000000e+00
5.813476e-01
5.897414e-01
5.993277e-01
6.090467e-01
6.182668e-01
6.260214e-01
6.312587e-01
6.331356e-01
6.313210e-01
6.261505e-01
6.184298e-01
6.091891e-01
5.994347e-01
5.898898e-01
5.807942e-01
0.000000e+00
1.000000e+00
5.815609e-01
5.900955e-01
5.999137e-01
6.098503e-01
6.192775e-01
6.272066e-01
6.325625e-01
6.344824e-01
6.326262e-01
6.273388e-01
6.194442e-01
6.099959e-01
6.000208e-01
5.902619e-01
5.809889e-01
0.000000e+00
1.000000e+00
5.816194e-01
5.901142e-01
5.999882e-01
6.099540e-01
6.194089e-01
6.273613e-01
6.327330e-01
6.346577e-01
6.327938e-01
6.274895e-01
6.195713e-01
6.100975e-01
6.000960e-01
5.903099e-01
5.810017e-01
0.000000e+00
1.000000e+00
5.815360e-01
5.898406e-01
5.996025e-01
6.094266e-01
6.187467e-01
6.265855e-01
6.318804e-01
6.337778e-01
6.319334e-01
6.266971e-01
6.188955e-01
6.095582e-01
5.996921e-01
5.900489e-01
5.808814e-01
0.000000e+00
1.000000e+00
5.729478e-01
5.727727e-01
5.726452e-01
5.725131e-01
5.723879e-01
5.722826e-01
5.722116e-01
5.721864e-01
5.722114e-01
5.722822e-01
5.723874e-01
5.725175e-01
5.726515e-01
5.727999e-01
5.727703e-01
0.000000e+00
1.000000e+00
5.732675e-01
5.734541e-01
5.737141e-01
5.739761e-01
5.742244e-01
5.744331e-01
5.745734e-01
5.746228e-01
5.745723e-01
5.744308e-01
5.742210e-01
5.739754e-01
5.737260e-01
5.734869e-01
5.730968e-01
0.000000e+00
1.000000e+00
5.737415e-01
5.744297e-01
5.752438e-01
5.760707e-01
5.768547e-01
5.775136e-01
5.779572e-01
5.781139e-01
5.779555e-01
5.775097e-01
5.768483e-01
5.760688e-01
5.752657e-01
5.744628e-01
5.735102e-01
0.000000e+00
1.000000e+00
5.743696e-01
5.757079e-01
5.772482e-01
5.788154e-01
5.803015e-01
5.815502e-01
5.823914e-01
5.826889e-01
5.823898e-01
5.815464e-01
5.802961e-01
5.788310e-01
5.772928e-01
5.757467e-01
5.740954e-01
0.000000e+00
1.000000e+00
5.751409e-01
5.772739e-01
5.797047e-01
5.821789e-01
5.845252e-01
5.864970e-01
5.878258e-01
5.882966e-01
5.878263e-01
5.864983e-01
5.845353e-01
5.822219e-01
5.797591e-01
5.773200e-01
5.748515e-01
0.000000e+00
1.000000e+00
5.760350e-01
5.790865e-01
5.825493e-01
5.860739e-01
5.894165e-01
5.922258e-01
5.941196e-01
5.947919e-01
5.941243e-01
5.922371e-01
5.894492e-01
5.861335e-01
5.826111e-01
5.791437e-01
5.757213e-01
0.000000e+00
1.000000e+00
5.770148e-01
5.810776e-01
5.856746e-01
5.903533e-01
5.947905e-01
5.985202e-01
6.010351e-01
6.019290e-01
6.010451e-01
5.985445e-01
5.948472e-01
5.904252e-01
5.857466e-01
5.811474e-01
5.766740e-01
0.000000e+00
1.000000e+00
5.780348e-01
5.831538e-01
5.889342e-01
5.948163e-01
6.003950e-01
6.050848e-01
6.082481e-01
6.093741e-01
6.082652e-01
6.051269e-01
6.004777e-01
5.949029e-01
5.890155e-01
5.832349e-01
5.776595e-01
0.000000e+00
1.000000e+00
5.790448e-01
5.852047e-01
5.921563e-01
5.992279e-01
6.059352e-01
6.115742e-01
6.153787e-01
6.167346e-01
6.154044e-01
6.116380e-01
6.060432e-01
5.993312e-01
5.922457e-01
5.852964e-01
5.786375e-01
0.000000e+00
1.000000e+00
5.799913e-01
5.871157e-01
5.951616e-01
6.033429e-01
6.111027e-01
6.176274e-01
6.220305e-01
6.236019e-01
6.220670e-01
6.177154e-01
6.112341e-01
6.034633e-01
5.952595e-01
5.872181e-01
5.795474e-01
0.000000e+00
1.000000e+00
5.808239e-01
5.887808e-01
5.977853e-01
6.069354e-01
6.156142e-01
6.229120e-01
6.278386e-01
6.295996e-01
6.278877e-01
6.230243e-01
6.157667e-01
6.070709e-01
5.978915e-01
5.888954e-01
5.803401e-01
0.000000e+00
1.000000e+00
5.815006e-01
5.901157e-01
5.998956e-01
6.098243e-01
6.192422e-01
6.271627e-01
6.325119e-01
6.344272e-01
6.325732e-01
6.272959e-01
6.194137e-01
6.099729e-01
6.000078e-01
5.902445e-01
5.809722e-01
0.000000e+00
1.000000e+00
5.819961e-01
5.910645e-01
6.014065e-01
6.118932e-01
6.218414e-01
6.302093e-01
6.358624e-01
6.378888e-01
6.359320e-01
6.303560e-01
6.220276e-01
6.120537e-01
6.015196e-01
5.912117e-01
5.814066e-01
0.000000e+00
1.000000e+00
5.823007e-01
5.916028e-01
6.022839e-01
6.130957e-01
6.233534e-01
6.319823e-01
6.378126e-01
6.399034e-01
6.378854e-01
6.321346e-01
6.235488e-01
6.132658e-01
6.023948e-01
5.917719e-01
5.816589e-01
0.000000e+00
1.000000e+00
5.824197e-01
5.917344e-01
6.025411e-01
6.134503e-01
6.238002e-01
6.325066e-01
6.383890e-01
6.404977e-01
6.384604e-01
6.326575e-01
6.239959e-01
6.136195e-01
6.026514e-01
5.919354e-01
5.817549e-01
0.000000e+00
1.000000e+00
5.823644e-01
5.914882e-01
6.022298e-01
6.130257e-01
6.232671e-01
6.318819e-01
6.377017e-01
6.397859e-01
6.377680e-01
6.320246e-01
6.234517e-01
6.131850e-01
6.023362e-01
5.917344e-01
5.816607e-01
0.000000e+00
1.000000e+00
5.821259e-01
5.909352e-01
6.014257e-01
6.119243e-01
6.218829e-01
6.302594e-01
6.359181e-01
6.379428e-01
6.359731e-01
6.303851e-01
6.220479e-01
6.120654e-01
6.015131e-01
5.912050e-01
5.814457e-01
0.000000e+00
1.000000e+00
5.726949e-01
5.722665e-01
5.718514e-01
5.714261e-01
5.710228e-01
5.706840e-01
5.704556e-01
5.703747e-01
5.704555e-01
5.706840e-01
5.710230e-01
5.714364e-01
5.718651e-01
5.722860e-01
5.725686e-01
0.000000e+00
1.000000e+00
5.731391e-01
5.731829e-01
5.732877e-01
5.733924e-01
5.734917e-01
5.735750e-01
5.736309e-01
5.736502e-01
5.736294e-01
5.735722e-01
5.734872e-01
5.733960e-01
5.733052e-01
5.732083e-01
5.730756e-01
0.000000e+00
1.000000e+00
5.737378e-01
5.744238e-01
5.752323e-01
5.760550e-01
5.768350e-01
5.774904e-01
5.779317e-01
5.780872e-01
5.779291e-01
5.774848e-01
5.768250e-01
5.760530e-01
5.752654e-01
5.744635e-01
5.736070e-01
0.000000e+00
1.000000e+00
5.745066e-01
5.759922e-01
5.776913e-01
5.794220e-01
5.810631e-01
5.824421e-01
5.833710e-01
5.836993e-01
5.833685e-01
5.824360e-01
5.810534e-01
5.794397e-01
5.777502e-01
5.760379e-01
5.743303e-01
0.000000e+00
1.000000e+00
5.754294e-01
5.778637e-01
5.806276e-01
5.834425e-01
5.861117e-01
5.883549e-01
5.898665e-01
5.904020e-01
5.898666e-01
5.883560e-01
5.861253e-01
5.834957e-01
5.806918e-01
5.779138e-01
5.752310e-01
0.000000e+00
1.000000e+00
5.764772e-01
5.799834e-01
5.839561e-01
5.880001e-01
5.918351e-01
5.950583e-01
5.972312e-01
5.980027e-01
5.972371e-01
5.950734e-01
5.918777e-01
5.880685e-01
5.840259e-01
5.800457e-01
5.762233e-01
0.000000e+00
1.000000e+00
5.776025e-01
5.822667e-01
5.875420e-01
5.929100e-01
5.980009e-01
6.022803e-01
6.051662e-01
6.061926e-01
6.051793e-01
6.023125e-01
5.980706e-01
5.929923e-01
5.876202e-01
5.823425e-01
5.772994e-01
0.000000e+00
1.000000e+00
5.787513e-01
5.846005e-01
5.912083e-01
5.979298e-01
6.043046e-01
6.096639e-01
6.132792e-01
6.145667e-01
6.133010e-01
6.097179e-01
6.044014e-01
5.980311e-01
5.912939e-01
5.846879e-01
5.783917e-01
0.000000e+00
1.000000e+00
5.798655e-01
5.868545e-01
5.947517e-01
6.027814e-01
6.103973e-01
6.168006e-01
6.211213e-01
6.226622e-01
6.211549e-01
6.168812e-01
6.105210e-01
6.029034e-01
5.948471e-01
5.869535e-01
5.794560e-01
0.000000e+00
1.000000e+00
5.808825e-01
5.888971e-01
5.979675e-01
6.071843e-01
6.159266e-01
6.232777e-01
6.282397e-01
6.300123e-01
6.282884e-01
6.233873e-01
6.160759e-01
6.073279e-01
5.980740e-01
5.890096e-01
5.804209e-01
0.000000e+00
1.000000e+00
5.817473e-01
5.906118e-01
6.006745e-01
6.108908e-01
6.205813e-01
6.287309e-01
6.342343e-01
6.362041e-01
6.342991e-01
6.288682e-01
6.207553e-01
6.110522e-01
6.007942e-01
5.907380e-01
5.812289e-01
0.000000e+00
1.000000e+00
5.824165e-01
5.919113e-01
6.027371e-01
6.137145e-01
6.241282e-01
6.328879e-01
6.388059e-01
6.409275e-01
6.388838e-01
6.330464e-01
6.243260e-01
6.138904e-01
6.028657e-01
5.920563e-01
5.818433e-01
0.000000e+00
1.000000e+00
5.828688e-01
5.927441e-01
6.040782e-01
6.155518e-01
6.264378e-01
6.355961e-01
6.417847e-01
6.440047e-01
6.418690e-01
6.357649e-01
6.266526e-01
6.157435e-01
6.042035e-01
5.929143e-01
5.822346e-01
0.000000e+00
1.000000e+00
5.830992e-01
5.930962e-01
6.046830e-01
6.163828e-01
6.274841e-01
6.368232e-01
6.431338e-01
6.453971e-01
6.432183e-01
6.369926e-01
6.277064e-01
6.165840e-01
6.048046e-01
5.932976e-01
5.824042e-01
0.000000e+00
1.000000e+00
5.831144e-01
5.929904e-01
6.045912e-01
6.162603e-01
6.273309e-01
6.366434e-01
6.429350e-01
6.451899e-01
6.430153e-01
6.368071e-01
6.275498e-01
6.164566e-01
6.047099e-01
5.932347e-01
5.823784e-01
0.000000e+00
1.000000e+00
5.829180e-01
5.924930e-01
6.038813e-01
6.152890e-01
6.261101e-01
6.352122e-01
6.413607e-01
6.435616e-01
6.414335e-01
6.353651e-01
6.263146e-01
6.154685e-01
6.039932e-01
5.927831e-01
5.821755e-01
0.000000e+00
1.000000e+00
5.825489e-01
5.916898e-01
6.026542e-01
6.136069e-01
6.239960e-01
6.327347e-01
6.386371e-01
6.407462e-01
6.386974e-01
6.328710e-01
6.241765e-01
6.137587e-01
6.027419e-01
5.919796e-01
5.818204e-01
0.000000e+00
1.000000e+00
5.723092e-01
5.714888e-01
5.706319e-01
5.697563e-01
5.689261e-01
5.682286e-01
5.677587e-01
5.675925e-01
5.677594e-01
5.682308e-01
5.689294e-01
5.697768e-01
5.706566e-01
5.715160e-01
5.721532e-01
0.000000e+00
1.000000e+00
5.728702e-01
5.726277e-01
5.724172e-01
5.722007e-01
5.719954e-01
5.718228e-01
5.717063e-01
5.716647e-01
5.717051e-01
5.718207e-01
5.719918e-01
5.722167e-01
5.724406e-01
5.726544e-01
5.727689e-01
0.000000e+00
1.000000e+00
5.735887e-01
5.741220e-01
5.747578e-01
5.754054e-01
5.760194e-01
5.765352e-01
5.768824e-01
5.770046e-01
5.768797e-01
5.765292e-01
5.760085e-01
5.754083e-01
5.747972e-01
5.741682e-01
5.734223e-01
0.000000e+00
1.000000e+00
5.744920e-01
5.759693e-01
5.776526e-01
5.793690e-01
5.809966e-01
5.823643e-01
5.832855e-01
5.836109e-01
5.832824e-01
5.823570e-01
5.809829e-01
5.793847e-01
5.777245e-01
5.760247e-01
5.742756e-01
0.000000e+00
1.000000e+00
5.755595e-01
5.781349e-01
5.810493e-01
5.840198e-01
5.868366e-01
5.892037e-01
5.907987e-01
5.913634e-01
5.907978e-01
5.892027e-01
5.868466e-01
5.840773e-01
5.811284e-01
5.781946e-01
5.753115e-01
0.000000e+00
1.000000e+00
5.767532e-01
5.805498e-01
5.848411e-01
5.892117e-01
5.933563e-01
5.968396e-01
5.991877e-01
6.000210e-01
5.991933e-01
5.968549e-01
5.934022e-01
5.892881e-01
5.849220e-01
5.806199e-01
5.764597e-01
0.000000e+00
1.000000e+00
5.780172e-01
5.831112e-01
5.888651e-01
5.947213e-01
6.002750e-01
6.049434e-01
6.080915e-01
6.092110e-01
6.081059e-01
6.049790e-01
6.003512e-01
5.948153e-01
5.889515e-01
5.831930e-01
5.776778e-01
0.000000e+00
1.000000e+00
5.792890e-01
5.856858e-01
5.929122e-01
6.002624e-01
6.072334e-01
6.130938e-01
6.170472e-01
6.184555e-01
6.170732e-01
6.131559e-01
6.073395e-01
6.003806e-01
5.930046e-01
5.857795e-01
5.789011e-01
0.000000e+00
1.000000e+00
5.805010e-01
5.881235e-01
5.967485e-01
6.055148e-01
6.138292e-01
6.208200e-01
6.255378e-01
6.272219e-01
6.255803e-01
6.209150e-01
6.139649e-01
6.056579e-01
5.968527e-01
5.882309e-01
5.800635e-01
0.000000e+00
1.000000e+00
5.815815e-01
5.902770e-01
6.001444e-01
6.101641e-01
6.196679e-01
6.276602e-01
6.330565e-01
6.349878e-01
6.331197e-01
6.277903e-01
6.198308e-01
6.103301e-01
6.002679e-01
5.903978e-01
5.810859e-01
0.000000e+00
1.000000e+00
5.824719e-01
5.920202e-01
6.029044e-01
6.139429e-01
6.244142e-01
6.332223e-01
6.391726e-01
6.413073e-01
6.392555e-01
6.333833e-01
6.246061e-01
6.141222e-01
6.030558e-01
5.921595e-01
5.818987e-01
0.000000e+00
1.000000e+00
5.831266e-01
5.932651e-01
6.048920e-01
6.166648e-01
6.278350e-01
6.372329e-01
6.435841e-01
6.458657e-01
6.436793e-01
6.374130e-01
6.280531e-01
6.168602e-01
6.050570e-01
5.934370e-01
5.824837e-01
0.000000e+00
1.000000e+00
5.835255e-01
5.939682e-01
6.060422e-01
6.182424e-01
6.298198e-01
6.395610e-01
6.461444e-01
6.485096e-01
6.462428e-01
6.397459e-01
6.300550e-01
6.184679e-01
6.061970e-01
5.941757e-01
5.828237e-01
0.000000e+00
1.000000e+00
5.836648e-01
5.941337e-01
6.063622e-01
6.186849e-01
6.303782e-01
6.402156e-01
6.468627e-01
6.492491e-01
6.469576e-01
6.403958e-01
6.306183e-01
6.189189e-01
6.065073e-01
5.943613e-01
5.829228e-01
0.000000e+00
1.000000e+00
5.835456e-01
5.938177e-01
6.059189e-01
6.180805e-01
6.296190e-01
6.393248e-01
6.458817e-01
6.482328e-01
6.459684e-01
6.394955e-01
6.298538e-01
6.183046e-01
6.060536e-01
5.940516e-01
5.827761e-01
0.000000e+00
1.000000e+00
5.831759e-01
5.931192e-01
6.048178e-01
6.165716e-01
6.277222e-01
6.371013e-01
6.434369e-01
6.457057e-01
6.435127e-01
6.372596e-01
6.279422e-01
6.167725e-01
6.049395e-01
5.933646e-01
5.824434e-01
0.000000e+00
1.000000e+00
5.826583e-01
5.920896e-01
6.031821e-01
6.143302e-01
6.249063e-01
6.338021e-01
6.398109e-01
6.419594e-01
6.398732e-01
6.339451e-01
6.251007e-01
6.144948e-01
6.032748e-01
5.923158e-01
5.819827e-01
0.000000e+00
1.000000e+00
5.717972e-01
5.704475e-01
5.689996e-01
5.675214e-01
5.661199e-01
5.649425e-01
5.641495e-01
5.638695e-01
5.641523e-01
5.649488e-01
5.661284e-01
5.675535e-01
5.690365e-01
5.704872e-01
5.716264e-01
0.000000e+00
1.000000e+00
5.724595e-01
5.717879e-01
5.711011e-01
5.703988e-01
5.697330e-01
5.691738e-01
5.687970e-01
5.686635e-01
5.687969e-01
5.691744e-01
5.697328e-01
5.704336e-01
5.711377e-01
5.718246e-01
5.723387e-01
0.000000e+00
1.000000e+00
5.732892e-01
5.735123e-01
5.738017e-01
5.740963e-01
5.743756e-01
5.746103e-01
5.747683e-01
5.748237e-01
5.747663e-01
5.746060e-01
5.743669e-01
5.741129e-01
5.738446e-01
5.735646e-01
5.731109e-01
0.000000e+00
1.000000e+00
5.743133e-01
5.756132e-01
5.770925e-01
5.786022e-01
5.800338e-01
5.812367e-01
5.820468e-01
5.823328e-01
5.820437e-01
5.812299e-01
5.800201e-01
5.786153e-01
5.771684e-01
5.756781e-01
5.740936e-01
0.000000e+00
1.000000e+00
5.755097e-01
5.780463e-01
5.809068e-01
5.838248e-01
5.865918e-01
5.889172e-01
5.904839e-01
5.910384e-01
5.904823e-01
5.889138e-01
5.865929e-01
5.838816e-01
5.809999e-01
5.781161e-01
5.752627e-01
0.000000e+00
1.000000e+00
5.768339e-01
5.807283e-01
5.851163e-01
5.895882e-01
5.938289e-01
5.973929e-01
5.997949e-01
6.006468e-01
5.997990e-01
5.974047e-01
5.938701e-01
5.896741e-01
5.852117e-01
5.808066e-01
5.765310e-01
0.000000e+00
1.000000e+00
5.782215e-01
5.835388e-01
5.895307e-01
5.956323e-01
6.014187e-01
6.062823e-01
6.095616e-01
6.107273e-01
6.095754e-01
6.063167e-01
6.014959e-01
5.957351e-01
5.896294e-01
5.836271e-01
5.778760e-01
0.000000e+00
1.000000e+00
5.796007e-01
5.863248e-01
5.939109e-01
6.016294e-01
6.089494e-01
6.151030e-01
6.192539e-01
6.207325e-01
6.192814e-01
6.151679e-01
6.090600e-01
6.017573e-01
5.940143e-01
5.864247e-01
5.792023e-01
0.000000e+00
1.000000e+00
5.808948e-01
5.889184e-01
5.979944e-01
6.072200e-01
6.159699e-01
6.233266e-01
6.282917e-01
6.300650e-01
6.283394e-01
6.234302e-01
6.161126e-01
6.073760e-01
5.981112e-01
5.890306e-01
5.804363e-01
0.000000e+00
1.000000e+00
5.820241e-01
5.911581e-01
6.015295e-01
6.120597e-01
6.220477e-01
6.304475e-01
6.361201e-01
6.381526e-01
6.361928e-01
6.305917e-01
6.222204e-01
6.122337e-01
6.016711e-01
5.912854e-01
5.814945e-01
0.000000e+00
1.000000e+00
5.829264e-01
5.929111e-01
6.043097e-01
6.158661e-01
6.268292e-01
6.360518e-01
6.422841e-01
6.445234e-01
6.423787e-01
6.362285e-01
6.270339e-01
6.160430e-01
6.044902e-01
5.930643e-01
5.823076e-01
0.000000e+00
1.000000e+00
5.835528e-01
5.940919e-01
6.062004e-01
6.184558e-01
6.300844e-01
6.398695e-01
6.464844e-01
6.488640e-01
6.465903e-01
6.400619e-01
6.303131e-01
6.186528e-01
6.063788e-01
5.942914e-01
5.828595e-01
0.000000e+00
1.000000e+00
5.838831e-01
5.946696e-01
6.071507e-01
6.197599e-01
6.317264e-01
6.417959e-01
6.486029e-01
6.510508e-01
6.487091e-01
6.419883e-01
6.319676e-01
6.199929e-01
6.073099e-01
5.949078e-01
5.831475e-01
0.000000e+00
1.000000e+00
5.839149e-01
5.946705e-01
6.071905e-01
6.198182e-01
6.318019e-01
6.418843e-01
6.486982e-01
6.511456e-01
6.487972e-01
6.420680e-01
6.320468e-01
6.200663e-01
6.073565e-01
5.948970e-01
5.831799e-01
0.000000e+00
1.000000e+00
5.836576e-01
5.941719e-01
6.064129e-01
6.187546e-01
6.304648e-01
6.403163e-01
6.469730e-01
6.493606e-01
6.470603e-01
6.404880e-01
6.307068e-01
6.189962e-01
6.065584e-01
5.943493e-01
5.829785e-01
0.000000e+00
1.000000e+00
5.831672e-01
5.932589e-01
6.049483e-01
6.167470e-01
6.279414e-01
6.373588e-01
6.437222e-01
6.460031e-01
6.437968e-01
6.375173e-01
6.281705e-01
6.169613e-01
6.050767e-01
5.934512e-01
5.825172e-01
0.000000e+00
1.000000e+00
5.825394e-01
5.919875e-01
6.029416e-01
6.139992e-01
6.244913e-01
6.333171e-01
6.392800e-01
6.414158e-01
6.393426e-01
6.334604e-01
6.246906e-01
6.141662e-01
6.030353e-01
5.921781e-01
5.819219e-01
0.000000e+00
1.000000e+00
5.711766e-01
5.691718e-01
5.670006e-01
5.647844e-01
5.626833e-01
5.609184e-01
5.597301e-01
5.593110e-01
5.597358e-01
5.609302e-01
5.626985e-01
5.648280e-01
5.670484e-01
5.692189e-01
5.710196e-01
0.000000e+00
1.000000e+00
5.719194e-01
5.706851e-01
5.693731e-01
5.680331e-01
5.667628e-01
5.656960e-01
5.649779e-01
5.647245e-01
5.649809e-01
5.657023e-01
5.667697e-01
5.680845e-01
5.694263e-01
5.707354e-01
5.718081e-01
0.000000e+00
1.000000e+00
5.728473e-01
5.726067e-01
5.723825e-01
5.721534e-01
5.719362e-01
5.717539e-01
5.716311e-01
5.715875e-01
5.716308e-01
5.717534e-01
5.719322e-01
5.721946e-01
5.724339e-01
5.726642e-01
5.726811e-01
0.000000e+00
1.000000e+00
5.739722e-01
5.749233e-01
5.760104e-01
5.771207e-01
5.781734e-01
5.790581e-01
5.796539e-01
5.798642e-01
5.796514e-01
5.790527e-01
5.781629e-01
5.771378e-01
5.760855e-01
5.749956e-01
5.737729e-01
0.000000e+00
1.000000e+00
5.752759e-01
5.775825e-01
5.801773e-01
5.828261e-01
5.853380e-01
5.874489e-01
5.888710e-01
5.893741e-01
5.888692e-01
5.874450e-01
5.853310e-01
5.828739e-01
5.802813e-01
5.776613e-01
5.750478e-01
0.000000e+00
1.000000e+00
5.767081e-01
5.804876e-01
5.847345e-01
5.890654e-01
5.931724e-01
5.966240e-01
5.989502e-01
5.997747e-01
5.989526e-01
5.966313e-01
5.932021e-01
5.891592e-01
5.848420e-01
5.805716e-01
5.764252e-01
0.000000e+00
1.000000e+00
5.781956e-01
5.835023e-01
5.894677e-01
5.955458e-01
6.013099e-01
6.061544e-01
6.094203e-01
6.105803e-01
6.094318e-01
6.061839e-01
6.013835e-01
5.956574e-01
5.895783e-01
5.835951e-01
5.778569e-01
0.000000e+00
1.000000e+00
5.796576e-01
5.864571e-01
5.941116e-01
6.019038e-01
6.092936e-01
6.155054e-01
6.196950e-01
6.211865e-01
6.197205e-01
6.155663e-01
6.094052e-01
6.020315e-01
5.942287e-01
5.865601e-01
5.792576e-01
0.000000e+00
1.000000e+00
5.810110e-01
5.891686e-01
5.983797e-01
6.077472e-01
6.166312e-01
6.241004e-01
6.291407e-01
6.309405e-01
6.291875e-01
6.242029e-01
6.167779e-01
6.078941e-01
5.985119e-01
5.892825e-01
5.805301e-01
0.000000e+00
1.000000e+00
5.821698e-01
5.914645e-01
6.020031e-01
6.127077e-01
6.228607e-01
6.313989e-01
6.371648e-01
6.392309e-01
6.372382e-01
6.315450e-01
6.230413e-01
6.128660e-01
6.021653e-01
5.915940e-01
5.816055e-01
0.000000e+00
1.000000e+00
5.830665e-01
5.932090e-01
6.047685e-01
6.164937e-01
6.276165e-01
6.369733e-01
6.432966e-01
6.455691e-01
6.433928e-01
6.371515e-01
6.278263e-01
6.166700e-01
6.049470e-01
5.933690e-01
5.824136e-01
0.000000e+00
1.000000e+00
5.836517e-01
5.943211e-01
6.065459e-01
6.189281e-01
6.306766e-01
6.405625e-01
6.472459e-01
6.496506e-01
6.473529e-01
6.407535e-01
6.309054e-01
6.191420e-01
6.067038e-01
5.945239e-01
5.829400e-01
0.000000e+00
1.000000e+00
5.839074e-01
5.947823e-01
6.072992e-01
6.199620e-01
6.319785e-01
6.420904e-01
6.489263e-01
6.513846e-01
6.490319e-01
6.422790e-01
6.322152e-01
6.201905e-01
6.074496e-01
5.950146e-01
5.831908e-01
0.000000e+00
1.000000e+00
5.838373e-01
5.946342e-01
6.070796e-01
6.196640e-01
6.316057e-01
6.416532e-01
6.484447e-01
6.508835e-01
6.485405e-01
6.418316e-01
6.318468e-01
6.199106e-01
6.072532e-01
5.948471e-01
5.831509e-01
0.000000e+00
1.000000e+00
5.834785e-01
5.939551e-01
6.060030e-01
6.181906e-01
6.297536e-01
6.394816e-01
6.460569e-01
6.484165e-01
6.461403e-01
6.396472e-01
6.299943e-01
6.184340e-01
6.061488e-01
5.941256e-01
5.828539e-01
0.000000e+00
1.000000e+00
5.828997e-01
5.928333e-01
6.042220e-01
6.157496e-01
6.266872e-01
6.358896e-01
6.421091e-01
6.443415e-01
6.421831e-01
6.360414e-01
6.269156e-01
6.159620e-01
6.043472e-01
5.929994e-01
5.823226e-01
0.000000e+00
1.000000e+00
5.821895e-01
5.913593e-01
6.019071e-01
6.125792e-01
6.227056e-01
6.312246e-01
6.369806e-01
6.390450e-01
6.370452e-01
6.313601e-01
6.228999e-01
6.127397e-01
6.019987e-01
5.915164e-01
5.816094e-01
0.000000e+00
1.000000e+00
5.704704e-01
5.677120e-01
5.647141e-01
5.616539e-01
5.587528e-01
5.563161e-01
5.546759e-01
5.540978e-01
5.546849e-01
5.563338e-01
5.587752e-01
5.617085e-01
5.647723e-01
5.677648e-01
5.703329e-01
0.000000e+00
1.000000e+00
5.712759e-01
5.693652e-01
5.673054e-01
5.652021e-01
5.632085e-01
5.615344e-01
5.604079e-01
5.600115e-01
5.604151e-01
5.615480e-01
5.632240e-01
5.652672e-01
5.673735e-01
5.694263e-01
5.711761e-01
0.000000e+00
1.000000e+00
5.722821e-01
5.714438e-01
5.705610e-01
5.696596e-01
5.688051e-01
5.680877e-01
5.676049e-01
5.674347e-01
5.676075e-01
5.680931e-01
5.688081e-01
5.697274e-01
5.706290e-01
5.715111e-01
5.721244e-01
0.000000e+00
1.000000e+00
5.734842e-01
5.739290e-01
5.744522e-01
5.749872e-01
5.754947e-01
5.759216e-01
5.762094e-01
5.763112e-01
5.762086e-01
5.759193e-01
5.754874e-01
5.750238e-01
5.745292e-01
5.740055e-01
5.732962e-01
0.000000e+00
1.000000e+00
5.748684e-01
5.767611e-01
5.788888e-01
5.810620e-01
5.831227e-01
5.848545e-01
5.860211e-01
5.864337e-01
5.860194e-01
5.848513e-01
5.831132e-01
5.810975e-01
5.790018e-01
5.768494e-01
5.746557e-01
0.000000e+00
1.000000e+00
5.763799e-01
5.798322e-01
5.837040e-01
5.876547e-01
5.914013e-01
5.945503e-01
5.966724e-01
5.974243e-01
5.966738e-01
5.945543e-01
5.914163e-01
5.877462e-01
5.838220e-01
5.799226e-01
5.761120e-01
0.000000e+00
1.000000e+00
5.779377e-01
5.829930e-01
5.886643e-01
5.944460e-01
5.999288e-01
6.045368e-01
6.076429e-01
6.087453e-01
6.076515e-01
6.045593e-01
5.999902e-01
5.945654e-01
5.887817e-01
5.830911e-01
5.776176e-01
0.000000e+00
1.000000e+00
5.794530e-01
5.860616e-01
5.934845e-01
6.010454e-01
6.082155e-01
6.142424e-01
6.183063e-01
6.197519e-01
6.183273e-01
6.142927e-01
6.083209e-01
6.011764e-01
5.936045e-01
5.861682e-01
5.790581e-01
0.000000e+00
1.000000e+00
5.808380e-01
5.888437e-01
5.978610e-01
6.070371e-01
6.157394e-01
6.230552e-01
6.279910e-01
6.297516e-01
6.280308e-01
6.231442e-01
6.158841e-01
6.071798e-01
5.979923e-01
5.889582e-01
5.803497e-01
0.000000e+00
1.000000e+00
5.820034e-01
5.911607e-01
6.015142e-01
6.120385e-01
6.220201e-01
6.304133e-01
6.360798e-01
6.381079e-01
6.361442e-01
6.305437e-01
6.221966e-01
6.121927e-01
6.016715e-01
5.912864e-01
5.814249e-01
0.000000e+00
1.000000e+00
5.828789e-01
5.928760e-01
6.042288e-01
6.157551e-01
6.266883e-01
6.358844e-01
6.420974e-01
6.443273e-01
6.421834e-01
6.360451e-01
6.268871e-01
6.159405e-01
6.043975e-01
5.930220e-01
5.822223e-01
0.000000e+00
1.000000e+00
5.834162e-01
5.939144e-01
6.058817e-01
6.180189e-01
6.295334e-01
6.392210e-01
6.457684e-01
6.481214e-01
6.458653e-01
6.393945e-01
6.297490e-01
6.182390e-01
6.060467e-01
5.940865e-01
5.827155e-01
0.000000e+00
1.000000e+00
5.836025e-01
5.942668e-01
6.064510e-01
6.188002e-01
6.305173e-01
6.403759e-01
6.470392e-01
6.494328e-01
6.471346e-01
6.405485e-01
6.307449e-01
6.190351e-01
6.066141e-01
5.944512e-01
5.829271e-01
0.000000e+00
1.000000e+00
5.834535e-01
5.939820e-01
6.060058e-01
6.181923e-01
6.297551e-01
6.394828e-01
6.460576e-01
6.484183e-01
6.461441e-01
6.396472e-01
6.299906e-01
6.184387e-01
6.061624e-01
5.941507e-01
5.828473e-01
0.000000e+00
1.000000e+00
5.830256e-01
5.931453e-01
6.046830e-01
6.163795e-01
6.274765e-01
6.368123e-01
6.431229e-01
6.453895e-01
6.432017e-01
6.369660e-01
6.277101e-01
6.166078e-01
6.048110e-01
5.932876e-01
5.824638e-01
0.000000e+00
1.000000e+00
5.823894e-01
5.918520e-01
6.026522e-01
6.135984e-01
6.239834e-01
6.327198e-01
6.386237e-01