<?xml version="1.0"?>
<VTKFile type="StructuredGrid" version="0.1">
  <StructuredGrid WholeExtent="0 16 0 16 0 16">
    <Piece Extent="0 16 0 16 0 16">
      <PointData Scalars="temperature" Vectors="velocity">
        <DataArray type="Float32" Name="temperature" format="ascii">
1.000000e+00
5.653639e-01
5.568924e-01
5.477918e-01
5.384841e-01
5.296581e-01
5.222413e-01
5.172436e-01
5.154736e-01
5.172436e-01
5.222413e-01
5.296581e-01
5.384841e-01
5.477918e-01
5.568924e-01
5.653639e-01
0.000000e+00
1.000000e+00
5.662135e-01
5.586846e-01
5.505966e-01
5.423244e-01
5.344805e-01
5.278889e-01
5.234472e-01
5.218741e-01
5.234472e-01
5.278889e-01
5.344805e-01
5.423244e-01
5.505966e-01
5.586846e-01
5.662135e-01
0.000000e+00
1.000000e+00
5.671837e-01
5.607311e-01
5.537993e-01
5.467097e-01
5.399872e-01
5.343379e-01
5.305312e-01
5.291830e-01
5.305312e-01
5.343379e-01
5.399872e-01
5.467097e-01
5.537993e-01
5.607311e-01
5.671837e-01
0.000000e+00
1.000000e+00
5.682512e-01
5.629828e-01
5.573232e-01
5.515348e-01
5.460460e-01
5.414336e-01
5.383256e-01
5.372248e-01
5.383256e-01
5.414336e-01
5.460460e-01
5.515348e-01
5.573233e-01
5.629828e-01
5.682512e-01
0.000000e+00
1.000000e+00
5.693814e-01
5.653669e-01
5.610542e-01
5.566434e-01
5.524609e-01
5.489462e-01
5.465778e-01
5.457390e-01
5.465778e-01
5.489462e-01
5.524609e-01
5.566434e-01
5.610542e-01
5.653668e-01
5.693814e-01
0.000000e+00
1.000000e+00
5.705294e-01
5.677885e-01
5.648441e-01
5.618326e-01
5.589770e-01
5.565774e-01
5.549604e-01
5.543877e-01
5.549604e-01
5.565774e-01
5.589770e-01
5.618326e-01
5.648441e-01
5.677885e-01
5.705294e-01
0.000000e+00
1.000000e+00
5.716429e-01
5.701374e-01
5.685201e-01
5.668659e-01
5.652974e-01
5.639793e-01
5.630911e-01
5.627765e-01
5.630911e-01
5.639793e-01
5.652974e-01
5.668659e-01
5.685201e-01
5.701374e-01
5.716429e-01
0.000000e+00
1.000000e+00
5.726667e-01
5.722970e-01
5.718998e-01
5.714935e-01
5.711083e-01
5.707846e-01
5.705664e-01
5.704892e-01
5.705664e-01
5.707846e-01
5.711083e-01
5.714935e-01
5.718998e-01
5.722970e-01
5.726667e-01
0.000000e+00
1.000000e+00
5.735483e-01
5.741567e-01
5.748102e-01
5.754785e-01
5.761123e-01
5.766449e-01
5.770038e-01
5.771309e-01
5.770038e-01
5.766449e-01
5.761123e-01
5.754785e-01
5.748102e-01
5.741567e-01
5.735483e-01
0.000000e+00
1.000000e+00
5.742442e-01
5.756245e-01
5.771073e-01
5.786238e-01
5.800618e-01
5.812703e-01
5.820846e-01
5.823730e-01
5.820846e-01
5.812703e-01
5.800618e-01
5.786238e-01
5.771073e-01
5.756245e-01
5.742442e-01
0.000000e+00
1.000000e+00
5.747242e-01
5.766371e-01
5.786920e-01
5.807937e-01
5.827866e-01
5.844613e-01
5.855898e-01
5.859894e-01
5.855898e-01
5.844613e-01
5.827866e-01
5.807937e-01
5.786920e-01
5.766371e-01
5.747242e-01
0.000000e+00
1.000000e+00
5.749750e-01
5.771660e-01
5.795198e-01
5.819271e-01
5.842098e-01
5.861281e-01
5.874207e-01
5.878785e-01
5.874207e-01
5.861281e-01
5.842098e-01
5.819271e-01
5.795198e-01
5.771660e-01
5.749750e-01
0.000000e+00
1.000000e+00
5.749997e-01
5.772181e-01
5.796013e-01
5.820387e-01
5.843500e-01
5.862922e-01
5.876009e-01
5.880645e-01
5.876009e-01
5.862922e-01
5.843500e-01
5.820387e-01
5.796013e-01
5.772181e-01
5.749997e-01
0.000000e+00
1.000000e+00
5.748162e-01
5.768311e-01
5.789956e-01
5.812094e-01
5.833085e-01
5.850726e-01
5.862612e-01
5.866822e-01
5.862612e-01
5.850725e-01
5.833085e-01
5.812094e-01
5.789956e-01
5.768311e-01
5.748162e-01
0.000000e+00
1.000000e+00
5.744534e-01
5.760657e-01
5.777978e-01
5.795693e-01
5.812491e-01
5.826607e-01
5.836119e-01
5.839488e-01
5.836119e-01
5.826607e-01
5.812491e-01
5.795693e-01
5.777978e-01
5.760657e-01
5.744534e-01
0.000000e+00
1.000000e+00
5.739464e-01
5.749964e-01
5.761243e-01
5.772778e-01
5.783717e-01
5.792909e-01
5.799103e-01
5.801297e-01
5.799103e-01
5.792909e-01
5.783717e-01
5.772778e-01
5.761243e-01
5.749964e-01
5.739464e-01
0.000000e+00
1.000000e+00
5.733327e-01
5.737019e-01
5.740984e-01
5.745040e-01
5.748885e-01
5.752117e-01
5.754295e-01
5.755066e-01
5.754295e-01
5.752117e-01
5.748885e-01
5.745040e-01
5.740984e-01
5.737019e-01
5.733327e-01
0.000000e+00
1.000000e+00
5.646672e-01
5.554227e-01
5.454917e-01
5.353346e-01
5.257033e-01
5.176098e-01
5.121561e-01
5.102245e-01
5.121561e-01
5.176098e-01
5.257033e-01
5.353346e-01
5.454917e-01
5.554227e-01
5.646671e-01
0.000000e+00
1.000000e+00
5.654599e-01
5.570950e-01
5.481088e-01
5.389181e-01
5.302032e-01
5.228797e-01
5.179448e-01
5.161970e-01
5.179448e-01
5.228797e-01
5.302032e-01
5.389181e-01
5.481088e-01
5.570950e-01
5.654599e-01
0.000000e+00
1.000000e+00
5.663872e-01
5.590509e-01
5.511698e-01
5.431093e-01
5.354661e-01
5.290432e-01
5.247151e-01
5.231823e-01
5.247151e-01
5.290432e-01
5.354661e-01
5.431093e-01
5.511698e-01
5.590509e-01
5.663872e-01
0.000000e+00
1.000000e+00
5.674275e-01
5.612454e-01
5.546042e-01
5.478119e-01
5.413711e-01
5.359587e-01
5.323116e-01
5.310199e-01
5.323116e-01
5.359587e-01
5.413711e-01
5.478119e-01
5.546042e-01
5.612454e-01
5.674275e-01
0.000000e+00
1.000000e+00
5.685471e-01
5.636070e-01
5.583001e-01
5.528723e-01
5.477255e-01
5.434005e-01
5.404861e-01
5.394539e-01
5.404861e-01
5.434005e-01
5.477255e-01
5.528723e-01
5.583001e-01
5.636070e-01
5.685471e-01
0.000000e+00
1.000000e+00
5.696998e-01
5.660386e-01
5.621055e-01
5.580828e-01
5.542684e-01
5.510630e-01
5.489031e-01
5.481381e-01
5.489031e-01
5.510630e-01
5.542684e-01
5.580828e-01
5.621055e-01
5.660386e-01
5.696998e-01
0.000000e+00
1.000000e+00
5.708306e-01
5.684238e-01
5.658383e-01
5.631940e-01
5.606865e-01
5.585794e-01
5.571596e-01
5.566567e-01
5.571596e-01
5.585794e-01
5.606865e-01
5.631940e-01
5.658383e-01
5.684238e-01
5.708306e-01
0.000000e+00
1.000000e+00
5.718799e-01
5.706372e-01
5.693022e-01
5.679369e-01
5.666422e-01
5.655542e-01
5.648211e-01
5.645615e-01
5.648211e-01
5.655542e-01
5.666422e-01
5.679369e-01
5.693022e-01
5.706372e-01
5.718799e-01
0.000000e+00
1.000000e+00
5.727903e-01
5.725577e-01
5.723078e-01
5.720522e-01
5.718099e-01
5.716062e-01
5.714690e-01
5.714204e-01
5.714690e-01
5.716062e-01
5.718099e-01
5.720522e-01
5.723078e-01
5.725577e-01
5.727903e-01
0.000000e+00
1.000000e+00
5.735136e-01
5.740834e-01
5.746955e-01
5.753216e-01
5.759152e-01
5.764141e-01
5.767502e-01
5.768693e-01
5.767502e-01
5.764141e-01
5.759152e-01
5.753216e-01
5.746955e-01
5.740834e-01
5.735136e-01
0.000000e+00
1.000000e+00
5.740161e-01
5.751433e-01
5.763543e-01
5.775928e-01
5.787672e-01
5.797541e-01
5.804191e-01
5.806546e-01
5.804191e-01
5.797541e-01
5.787672e-01
5.775928e-01
5.763543e-01
5.751433e-01
5.740161e-01
0.000000e+00
1.000000e+00
5.742822e-01
5.757046e-01
5.772327e-01
5.787956e-01
5.802775e-01
5.815229e-01
5.823621e-01
5.826593e-01
5.823621e-01
5.815229e-01
5.802775e-01
5.787956e-01
5.772327e-01
5.757046e-01
5.742822e-01
0.000000e+00
1.000000e+00
5.743149e-01
5.757736e-01
5.773406e-01
5.789433e-01
5.804630e-01
5.817401e-01
5.826006e-01
5.829054e-01
5.826006e-01
5.817401e-01
5.804630e-01
5.789433e-01
5.773406e-01
5.757736e-01
5.743149e-01
0.000000e+00
1.000000e+00
5.741332e-01
5.753903e-01
5.767408e-01
5.781220e-01
5.794318e-01
5.805324e-01
5.812740e-01
5.815367e-01
5.812740e-01
5.805324e-01
5.794318e-01
5.781220e-01
5.767408e-01
5.753903e-01
5.741332e-01
0.000000e+00
1.000000e+00
5.737680e-01
5.746201e-01
5.755354e-01
5.764716e-01
5.773593e-01
5.781053e-01
5.786079e-01
5.787859e-01
5.786079e-01
5.781053e-01
5.773593e-01
5.764716e-01
5.755354e-01
5.746201e-01
5.737680e-01
0.000000e+00
1.000000e+00
5.732571e-01
5.735423e-01
5.738487e-01
5.741620e-01
5.744592e-01
5.747089e-01
5.748771e-01
5.749367e-01
5.748771e-01
5.747089e-01
5.744592e-01
5.741620e-01
5.738487e-01
5.735423e-01
5.732571e-01
0.000000e+00
1.000000e+00
5.726399e-01
5.722404e-01
5.718113e-01
5.713724e-01
5.709562e-01
5.706064e-01
5.703708e-01
5.702873e-01
5.703708e-01
5.706064e-01
5.709562e-01
5.713724e-01
5.718113e-01
5.722404e-01
5.726399e-01
0.000000e+00
1.000000e+00
5.641161e-01
5.542602e-01
5.436725e-01
5.328437e-01
5.225755e-01
5.139467e-01
5.081323e-01
5.060730e-01
5.081323e-01
5.139467e-01
5.225755e-01
5.328437e-01
5.436725e-01
5.542602e-01
5.641161e-01
0.000000e+00
1.000000e+00
5.648494e-01
5.558071e-01
5.460933e-01
5.361584e-01
5.267377e-01
5.188212e-01
5.134867e-01
5.115974e-01
5.134867e-01
5.188212e-01
5.267377e-01
5.361584e-01
5.460933e-01
5.558071e-01
5.648494e-01
0.000000e+00
1.000000e+00
5.657297e-01
5.576640e-01
5.489993e-01
5.401374e-01
5.317342e-01
5.246727e-01
5.199143e-01
5.182291e-01
5.199143e-01
5.246727e-01
5.317342e-01
5.401374e-01
5.489993e-01
5.576640e-01
5.657297e-01
0.000000e+00
1.000000e+00
5.667380e-01
5.597908e-01
5.523278e-01
5.446948e-01
5.374570e-01
5.313748e-01
5.272764e-01
5.258248e-01
5.272764e-01
5.313748e-01
5.374570e-01
5.446948e-01
5.523278e-01
5.597908e-01
5.667379e-01
0.000000e+00
1.000000e+00
5.678413e-01
5.621182e-01
5.559701e-01
5.496820e-01
5.437194e-01
5.387089e-01
5.353325e-01
5.341368e-01
5.353325e-01
5.387089e-01
5.437194e-01
5.496820e-01
5.559701e-01
5.621182e-01
5.678413e-01
0.000000e+00
1.000000e+00
5.689931e-01
5.645477e-01
5.597723e-01
5.548881e-01
5.502568e-01
5.463650e-01
5.437425e-01
5.428136e-01
5.437425e-01
5.463650e-01
5.502568e-01
5.548881e-01
5.597723e-01
5.645477e-01
5.689930e-01
0.000000e+00
1.000000e+00
5.701356e-01
5.669579e-01
5.635441e-01
5.600526e-01
5.567419e-01
5.539598e-01
5.520851e-01
5.514211e-01
5.520851e-01
5.539598e-01
5.567419e-01
5.600526e-01
5.635441e-01
5.669578e-01
5.701356e-01
0.000000e+00
1.000000e+00
5.712055e-01
5.692146e-01
5.670759e-01
5.648885e-01
5.628143e-01
5.610713e-01
5.598968e-01
5.594808e-01
5.598968e-01
5.610713e-01
5.628143e-01
5.648885e-01
5.670759e-01
5.692146e-01
5.712055e-01
0.000000e+00
1.000000e+00
5.721405e-01
5.711869e-01
5.701624e-01
5.691147e-01
5.681212e-01
5.672864e-01
5.667238e-01
5.665245e-01
5.667238e-01
5.672864e-01
5.681212e-01
5.691147e-01
5.701625e-01
5.711869e-01
5.721405e-01
0.000000e+00
1.000000e+00
5.728875e-01
5.727627e-01
5.726286e-01
5.724915e-01
5.723614e-01
5.722522e-01
5.721785e-01
5.721525e-01
5.721785e-01
5.722522e-01
5.723614e-01
5.724915e-01
5.726286e-01
5.727627e-01
5.728875e-01
0.000000e+00
1.000000e+00
5.734093e-01
5.738633e-01
5.743511e-01
5.748500e-01
5.753231e-01
5.757206e-01
5.759884e-01
5.760833e-01
5.759884e-01
5.757206e-01
5.753231e-01
5.748500e-01
5.743511e-01
5.738634e-01
5.734093e-01
0.000000e+00
1.000000e+00
5.736882e-01
5.744516e-01
5.752718e-01
5.761106e-01
5.769060e-01
5.775745e-01
5.780249e-01
5.781844e-01
5.780249e-01
5.775745e-01
5.769060e-01
5.761106e-01
5.752718e-01
5.744517e-01
5.736882e-01
0.000000e+00
1.000000e+00
5.737268e-01
5.745331e-01
5.753993e-01
5.762853e-01
5.771253e-01
5.778313e-01
5.783069e-01
5.784754e-01
5.783069e-01
5.778313e-01
5.771253e-01
5.762853e-01
5.753993e-01
5.745331e-01
5.737268e-01
0.000000e+00
1.000000e+00
5.735454e-01
5.741505e-01
5.748005e-01
5.754653e-01
5.760956e-01
5.766254e-01
5.769823e-01
5.771087e-01
5.769823e-01
5.766254e-01
5.760956e-01
5.754653e-01
5.748005e-01
5.741505e-01
5.735454e-01
0.000000e+00
1.000000e+00
5.731769e-01
5.733731e-01
5.735839e-01
5.737995e-01
5.740039e-01
5.741757e-01
5.742915e-01
5.743325e-01
5.742915e-01
5.741757e-01
5.740039e-01
5.737995e-01
5.735839e-01
5.733731e-01
5.731769e-01
0.000000e+00
1.000000e+00
5.726612e-01
5.722853e-01
5.718815e-01
5.714686e-01
5.710770e-01
5.707479e-01
5.705261e-01
5.704476e-01
5.705261e-01
5.707479e-01
5.710770e-01
5.714686e-01
5.718815e-01
5.722853e-01
5.726612e-01
0.000000e+00
1.000000e+00
5.720401e-01
5.709751e-01
5.698310e-01
5.686609e-01
5.675514e-01
5.666190e-01
5.659907e-01
5.657682e-01
5.659907e-01
5.666190e-01
5.675514e-01
5.686609e-01
5.698310e-01
5.709751e-01
5.720401e-01
0.000000e+00
1.000000e+00
5.637471e-01
5.534820e-01
5.424545e-01
5.311761e-01
5.204814e-01
5.114943e-01
5.054384e-01
5.032936e-01
5.054384e-01
5.114943e-01
5.204814e-01
5.311761e-01
5.424545e-01
5.534820e-01
5.637471e-01
0.000000e+00
1.000000e+00
5.644228e-01
5.549072e-01
5.446850e-01
5.342301e-01
5.243164e-01
5.159855e-01
5.103718e-01
5.083836e-01
5.103718e-01
5.159855e-01
5.243164e-01
5.342301e-01
5.446850e-01
5.549072e-01
5.644228e-01
0.000000e+00
1.000000e+00
5.652562e-01
5.566651e-01
5.474361e-01
5.379970e-01
5.290465e-01
5.215251e-01
5.164568e-01
5.146618e-01
5.164568e-01
5.215251e-01
5.290465e-01
5.379970e-01
5.474361e-01
5.566651e-01
5.652561e-01
0.000000e+00
1.000000e+00
5.662307e-01
5.587209e-01
5.506533e-01
5.424021e-01
5.345781e-01
5.280032e-01
5.235728e-01
5.220037e-01
5.235728e-01
5.280032e-01
5.345781e-01
5.424021e-01
5.506533e-01
5.587209e-01
5.662307e-01
0.000000e+00
1.000000e+00
5.673149e-01
5.610078e-01
5.542323e-01
5.473026e-01
5.407316e-01
5.352098e-01
5.314889e-01
5.301711e-01
5.314889e-01
5.352098e-01
5.407316e-01
5.473026e-01
5.542323e-01
5.610078e-01
5.673149e-01
0.000000e+00
1.000000e+00
5.684617e-01
5.634269e-01
5.580182e-01
5.524863e-01
5.472408e-01
5.428329e-01
5.398626e-01
5.388106e-01
5.398626e-01
5.428329e-01
5.472408e-01
5.524863e-01
5.580182e-01
5.634269e-01
5.684617e-01
0.000000e+00
1.000000e+00
5.696114e-01
5.658521e-01
5.618136e-01
5.576832e-01
5.537666e-01
5.504754e-01
5.482576e-01
5.474721e-01
5.482576e-01
5.504754e-01
5.537666e-01
5.576832e-01
5.618136e-01
5.658521e-01
5.696114e-01
0.000000e+00
1.000000e+00
5.706969e-01
5.681419e-01
5.653971e-01
5.625898e-01
5.599278e-01
5.576909e-01
5.561835e-01
5.556497e-01
5.561835e-01
5.576909e-01
5.599278e-01
5.625898e-01
5.653971e-01
5.681419e-01
5.706969e-01
0.000000e+00
1.000000e+00
5.716515e-01
5.701554e-01
5.685482e-01
5.669044e-01
5.653457e-01
5.640359e-01
5.631533e-01
5.628407e-01
5.631533e-01
5.640359e-01
5.653457e-01
5.669044e-01
5.685482e-01
5.701554e-01
5.716515e-01
0.000000e+00
1.000000e+00
5.724175e-01
5.717712e-01
5.710769e-01
5.703668e-01
5.696935e-01
5.691277e-01
5.687464e-01
5.686114e-01
5.687464e-01
5.691277e-01
5.696935e-01
5.703668e-01
5.710769e-01
5.717712e-01
5.724175e-01
0.000000e+00
1.000000e+00
5.729540e-01
5.729030e-01
5.728482e-01
5.727921e-01
5.727389e-01
5.726943e-01
5.726642e-01
5.726535e-01
5.726642e-01
5.726943e-01
5.727389e-01
5.727921e-01
5.728482e-01
5.729030e-01
5.729540e-01
0.000000e+00
1.000000e+00
5.732415e-01
5.735094e-01
5.737973e-01
5.740916e-01
5.743708e-01
5.746053e-01
5.747634e-01
5.748194e-01
5.747634e-01
5.746053e-01
5.743708e-01
5.740916e-01
5.737973e-01
5.735094e-01
5.732415e-01
0.000000e+00
1.000000e+00
5.732823e-01
5.735955e-01
5.739319e-01
5.742760e-01
5.746023e-01
5.748765e-01
5.750613e-01
5.751267e-01
5.750613e-01
5.748765e-01
5.746023e-01
5.742760e-01
5.739319e-01
5.735955e-01
5.732823e-01
0.000000e+00
1.000000e+00
5.730978e-01
5.732062e-01
5.733227e-01
5.734419e-01
5.735548e-01
5.736498e-01
5.737138e-01
5.737364e-01
5.737138e-01
5.736498e-01
5.735548e-01
5.734419e-01
5.733227e-01
5.732062e-01
5.730978e-01
0.000000e+00
1.000000e+00
5.727228e-01
5.724153e-01
5.720849e-01
5.717470e-01
5.714266e-01
5.711573e-01
5.709759e-01
5.709116e-01
5.709759e-01
5.711573e-01
5.714266e-01
5.717470e-01
5.720849e-01
5.724153e-01
5.727228e-01
0.000000e+00
1.000000e+00
5.721996e-01
5.713116e-01
5.703577e-01
5.693821e-01
5.684569e-01
5.676795e-01
5.671556e-01
5.669701e-01
5.671556e-01
5.676795e-01
5.684569e-01
5.693821e-01
5.703577e-01
5.713116e-01
5.721996e-01
0.000000e+00
1.000000e+00
5.715718e-01
5.699874e-01
5.682852e-01
5.665444e-01
5.648936e-01
5.635064e-01
5.625717e-01
5.622406e-01
5.625717e-01
5.635064e-01
5.648936e-01
5.665444e-01
5.682852e-01
5.699873e-01
5.715718e-01
0.000000e+00
1.000000e+00
5.635919e-01
5.531545e-01
5.419420e-01
5.304742e-01
5.196001e-01
5.104622e-01
5.043047e-01
5.021239e-01
5.043047e-01
5.104622e-01
5.196001e-01
5.304742e-01
5.419420e-01
5.531545e-01
5.635918e-01
0.000000e+00
1.000000e+00
5.642166e-01
5.544724e-01
5.440045e-01
5.332983e-01
5.231463e-01
5.146152e-01
5.088666e-01
5.068306e-01
5.088666e-01
5.146152e-01
5.231463e-01
5.332983e-01
5.440045e-01
5.544724e-01
5.642166e-01
0.000000e+00
1.000000e+00
5.650078e-01
5.561413e-01
5.466163e-01
5.368745e-01
5.276369e-01
5.198743e-01
5.146435e-01
5.127909e-01
5.146435e-01
5.198743e-01
5.276369e-01
5.368745e-01
5.466163e-01
5.561413e-01
5.650078e-01
0.000000e+00
1.000000e+00
5.659512e-01
5.581312e-01
5.497305e-01
5.411386e-01
5.329914e-01
5.261451e-01
5.215317e-01
5.198978e-01
5.215317e-01
5.261451e-01
5.329914e-01
5.411386e-01
5.497305e-01
5.581312e-01
5.659512e-01
0.000000e+00
1.000000e+00
5.670165e-01
5.603784e-01
5.532473e-01
5.459539e-01
5.390380e-01
5.332264e-01
5.293103e-01
5.279233e-01
5.293103e-01
5.332264e-01
5.390380e-01
5.459539e-01
5.532473e-01
5.603784e-01
5.670165e-01
0.000000e+00
1.000000e+00
5.681567e-01
5.627836e-01
5.570114e-01
5.511079e-01
5.455099e-01
5.408057e-01
5.376358e-01
5.365132e-01
5.376358e-01
5.408057e-01
5.455099e-01
5.511079e-01
5.570114e-01
5.627836e-01
5.681567e-01
0.000000e+00
1.000000e+00
5.693104e-01
5.652170e-01
5.608197e-01
5.563224e-01
5.520578e-01
5.484741e-01
5.460593e-01
5.452040e-01
5.460593e-01
5.484741e-01
5.520578e-01
5.563224e-01
5.608198e-01
5.652170e-01
5.693103e-01
0.000000e+00
1.000000e+00
5.704070e-01
5.675302e-01
5.644399e-01
5.612792e-01
5.582821e-01
5.557635e-01
5.540664e-01
5.534653e-01
5.540664e-01
5.557635e-01
5.582821e-01
5.612792e-01
5.644399e-01
5.675302e-01
5.704070e-01
0.000000e+00
1.000000e+00
5.713757e-01
5.695737e-01
5.676378e-01
5.656579e-01
5.637805e-01
5.622029e-01
5.611398e-01
5.607633e-01
5.611398e-01
5.622029e-01
5.637805e-01
5.656579e-01
5.676378e-01
5.695737e-01
5.713757e-01
0.000000e+00
1.000000e+00
5.721548e-01
5.712171e-01
5.702099e-01
5.691796e-01
5.682027e-01
5.673818e-01
5.668286e-01
5.666327e-01
5.668286e-01
5.673818e-01
5.682027e-01
5.691796e-01
5.702099e-01
5.712171e-01
5.721548e-01
0.000000e+00
1.000000e+00
5.727002e-01
5.723675e-01
5.720101e-01
5.716447e-01
5.712981e-01
5.710068e-01
5.708106e-01
5.707411e-01
5.708106e-01
5.710068e-01
5.712981e-01
5.716447e-01
5.720101e-01
5.723675e-01
5.727002e-01
0.000000e+00
1.000000e+00
5.729904e-01
5.729797e-01
5.729682e-01
5.729564e-01
5.729453e-01
5.729359e-01
5.729296e-01
5.729273e-01
5.729296e-01
5.729359e-01
5.729453e-01
5.729564e-01
5.729682e-01
5.729797e-01
5.729904e-01
0.000000e+00
1.000000e+00
5.730277e-01
5.730583e-01
5.730913e-01
5.731250e-01
5.731569e-01
5.731837e-01
5.732018e-01
5.732082e-01
5.732018e-01
5.731837e-01
5.731569e-01
5.731250e-01
5.730913e-01
5.730583e-01
5.730277e-01
0.000000e+00
1.000000e+00
5.728346e-01
5.726510e-01
5.724539e-01
5.722522e-01
5.720610e-01
5.719003e-01
5.717920e-01
5.717537e-01
5.717920e-01
5.719003e-01
5.720610e-01
5.722522e-01
5.724539e-01
5.726510e-01
5.728346e-01
0.000000e+00
1.000000e+00
5.724480e-01
5.718356e-01
5.711777e-01
5.705048e-01
5.698668e-01
5.693306e-01
5.689693e-01
5.688414e-01
5.689693e-01
5.693306e-01
5.698668e-01
5.705048e-01
5.711777e-01
5.718356e-01
5.724480e-01
0.000000e+00
1.000000e+00
5.719122e-01
5.707054e-01
5.694090e-01
5.680831e-01
5.668258e-01
5.657693e-01
5.650574e-01
5.648052e-01
5.650574e-01
5.657693e-01
5.668258e-01
5.680831e-01
5.694090e-01
5.707054e-01
5.719122e-01
0.000000e+00
1.000000e+00
5.712728e-01
5.693566e-01
5.672981e-01
5.651927e-01
5.631963e-01
5.615187e-01
5.603883e-01
5.599879e-01
5.603883e-01
5.615187e-01
5.631963e-01
5.651927e-01
5.672981e-01
5.693566e-01
5.712728e-01
0.000000e+00
1.000000e+00
5.636725e-01
5.533246e-01
5.422083e-01
5.308388e-01
5.200580e-01
5.109984e-01
5.048937e-01
5.027316e-01
5.048937e-01
5.109984e-01
5.200580e-01
5.308388e-01
5.422083e-01
5.533246e-01
5.636725e-01
0.000000e+00
1.000000e+00
5.642580e-01
5.545597e-01
5.441411e-01
5.334853e-01
5.233812e-01
5.148903e-01
5.091688e-01
5.071424e-01
5.091688e-01
5.148903e-01
5.233812e-01
5.334853e-01
5.441411e-01
5.545596e-01
5.642580e-01
0.000000e+00
1.000000e+00
5.650164e-01
5.561593e-01
5.466445e-01
5.369131e-01
5.276854e-01
5.199311e-01
5.147059e-01
5.128553e-01
5.147059e-01
5.199311e-01
5.276854e-01
5.369131e-01
5.466445e-01
5.561593e-01
5.650163e-01
0.000000e+00
1.000000e+00
5.659353e-01
5.580976e-01
5.496779e-01
5.410666e-01
5.329010e-01
5.260392e-01
5.214154e-01
5.197778e-01
5.214154e-01
5.260392e-01
5.329010e-01
5.410666e-01
5.496780e-01
5.580976e-01
5.659352e-01
0.000000e+00
1.000000e+00
5.669856e-01
5.603132e-01
5.531453e-01
5.458142e-01
5.388627e-01
5.330210e-01
5.290846e-01
5.276905e-01
5.290846e-01
5.330210e-01
5.388627e-01
5.458142e-01
5.531453e-01
5.603132e-01
5.669856e-01
0.000000e+00
1.000000e+00
5.681202e-01
5.627066e-01
5.568910e-01
5.509430e-01
5.453028e-01
5.405632e-01
5.373695e-01
5.362384e-01
5.373695e-01
5.405632e-01
5.453028e-01
5.509430e-01
5.568910e-01
5.627066e-01
5.681202e-01
0.000000e+00
1.000000e+00
5.692762e-01
5.651449e-01
5.607068e-01
5.561678e-01
5.518637e-01
5.482467e-01
5.458095e-01
5.449463e-01
5.458095e-01
5.482467e-01
5.518637e-01
5.561678e-01
5.607068e-01
5.651449e-01
5.692761e-01
0.000000e+00
1.000000e+00
5.703801e-01
5.674735e-01
5.643511e-01
5.611576e-01
5.581294e-01
5.555847e-01
5.538699e-01
5.532626e-01
5.538699e-01
5.555847e-01
5.581294e-01
5.611576e-01
5.643511e-01
5.674735e-01
5.703801e-01
0.000000e+00
1.000000e+00
5.713575e-01
5.695353e-01
5.675778e-01
5.655758e-01
5.636773e-01
5.620820e-01
5.610070e-01
5.606263e-01
5.610070e-01
5.620820e-01
5.636773e-01
5.655758e-01
5.675778e-01
5.695353e-01
5.713575e-01
0.000000e+00
1.000000e+00
5.721432e-01
5.711927e-01
5.701716e-01
5.691272e-01
5.681369e-01
5.673047e-01
5.667439e-01
5.665453e-01
5.667439e-01
5.673047e-01
5.681369e-01
5.691272e-01
5.701716e-01
5.711927e-01
5.721432e-01
0.000000e+00
1.000000e+00
5.726903e-01
5.723466e-01
5.719775e-01
5.715999e-01
5.712419e-01
5.709410e-01
5.707383e-01
5.706665e-01
5.707383e-01
5.709410e-01
5.712419e-01
5.715999e-01
5.719775e-01
5.723466e-01
5.726903e-01
0.000000e+00
1.000000e+00
5.729759e-01
5.729492e-01
5.729205e-01
5.728911e-01
5.728632e-01
5.728398e-01
5.728240e-01
5.728184e-01
5.728240e-01
5.728398e-01
5.728632e-01
5.728911e-01
5.729205e-01
5.729492e-01
5.729759e-01
0.000000e+00
1.000000e+00
5.730025e-01
5.730052e-01
5.730082e-01
5.730112e-01
5.730141e-01
5.730165e-01
5.730181e-01
5.730187e-01
5.730181e-01
5.730165e-01
5.730141e-01
5.730112e-01
5.730082e-01
5.730052e-01
5.730025e-01
0.000000e+00
1.000000e+00
5.727938e-01
5.725651e-01
5.723193e-01
5.720680e-01
5.718296e-01
5.716294e-01
5.714944e-01
5.714466e-01
5.714944e-01
5.716294e-01
5.718296e-01
5.720680e-01
5.723193e-01
5.725651e-01
5.727938e-01
0.000000e+00
1.000000e+00
5.723887e-01
5.717104e-01
5.709819e-01
5.702367e-01
5.695301e-01
5.689363e-01
5.685362e-01
5.683945e-01
5.685362e-01
5.689363e-01
5.695301e-01
5.702367e-01
5.709819e-01
5.717104e-01
5.723887e-01
0.000000e+00
1.000000e+00
5.718334e-01
5.705391e-01
5.691488e-01
5.677268e-01
5.663784e-01
5.652453e-01
5.644817e-01
5.642113e-01
5.644817e-01
5.652453e-01
5.663784e-01
5.677268e-01
5.691488e-01
5.705391e-01
5.718334e-01
0.000000e+00
1.000000e+00
5.711752e-01
5.691508e-01
5.669760e-01
5.647518e-01
5.626426e-01
5.608703e-01
5.596760e-01
5.592530e-01
5.596760e-01
5.608703e-01
5.626426e-01
5.647518e-01
5.669760e-01
5.691508e-01
5.711752e-01
0.000000e+00
1.000000e+00
5.639979e-01
5.540110e-01
5.432825e-01
5.323097e-01
5.219049e-01
5.131614e-01
5.072696e-01
5.051830e-01
5.072696e-01
5.131614e-01
5.219049e-01
5.323097e-01
5.432825e-01
5.540110e-01
5.639979e-01
0.000000e+00
1.000000e+00
5.645595e-01
5.551956e-01
5.451364e-01
5.348481e-01
5.250924e-01
5.168944e-01
5.113702e-01
5.094137e-01
5.113702e-01
5.168944e-01
5.250924e-01
5.348481e-01
5.451364e-01
5.551956e-01
5.645595e-01
0.000000e+00
1.000000e+00
5.652981e-01
5.567537e-01
5.475747e-01
5.381867e-01
5.292847e-01
5.218041e-01
5.167633e-01
5.149780e-01
5.167633e-01
5.218041e-01
5.292847e-01
5.381867e-01
5.475747e-01
5.567536e-01
5.652981e-01
0.000000e+00
1.000000e+00
5.662028e-01
5.586620e-01
5.505611e-01
5.422759e-01
5.344195e-01
5.278175e-01
5.233688e-01
5.217932e-01
5.233688e-01
5.278175e-01
5.344195e-01
5.422759e-01
5.505611e-01
5.586619e-01
5.662028e-01
0.000000e+00
1.000000e+00
5.672450e-01
5.608604e-01
5.540017e-01
5.469868e-01
5.403351e-01
5.347454e-01
5.309788e-01
5.296448e-01
5.309788e-01
5.347454e-01
5.403351e-01
5.469868e-01
5.540017e-01
5.608604e-01
5.672450e-01
0.000000e+00
1.000000e+00
5.683774e-01
5.632491e-01
5.577399e-01
5.521054e-01
5.467625e-01
5.422727e-01
5.392472e-01
5.381757e-01
5.392472e-01
5.422727e-01
5.467625e-01
5.521054e-01
5.577399e-01
5.632491e-01
5.683774e-01
0.000000e+00
1.000000e+00
5.695355e-01
5.656920e-01
5.615631e-01
5.573402e-01
5.533358e-01
5.499708e-01
5.477034e-01
5.469003e-01
5.477034e-01
5.499708e-01
5.533358e-01
5.573402e-01
5.615631e-01
5.656920e-01
5.695355e-01
0.000000e+00
1.000000e+00
5.706437e-01
5.680297e-01
5.652215e-01
5.623494e-01
5.596259e-01
5.573373e-01
5.557952e-01
5.552490e-01
5.557952e-01
5.573373e-01
5.596259e-01
5.623494e-01
5.652215e-01
5.680297e-01
5.706437e-01
0.000000e+00
1.000000e+00
5.716247e-01
5.700988e-01
5.684597e-01
5.667832e-01
5.651936e-01
5.638577e-01
5.629576e-01
5.626388e-01
5.629576e-01
5.638577e-01
5.651936e-01
5.667832e-01
5.684597e-01
5.700988e-01
5.716247e-01
0.000000e+00
1.000000e+00
5.724102e-01
5.717558e-01
5.710529e-01
5.703339e-01
5.696522e-01
5.690793e-01
5.686933e-01
5.685565e-01
5.686933e-01
5.690793e-01
5.696522e-01
5.703339e-01
5.710529e-01
5.717558e-01
5.724102e-01
0.000000e+00
1.000000e+00
5.729514e-01
5.728974e-01
5.728395e-01
5.727802e-01
5.727240e-01
5.726768e-01
5.726450e-01
5.726337e-01
5.726450e-01
5.726768e-01
5.727240e-01
5.727802e-01
5.728395e-01
5.728974e-01
5.729514e-01
0.000000e+00
1.000000e+00
5.732247e-01
5.734739e-01
5.737416e-01
5.740155e-01
5.742751e-01
5.744933e-01
5.746403e-01
5.746924e-01
5.746403e-01
5.744933e-01
5.742751e-01
5.740155e-01
5.737416e-01
5.734739e-01
5.732247e-01
0.000000e+00
1.000000e+00
5.732327e-01
5.734908e-01
5.737682e-01
5.740518e-01
5.743207e-01
5.745467e-01
5.746990e-01
5.747530e-01
5.746990e-01
5.745467e-01
5.743207e-01
5.740518e-01
5.737682e-01
5.734908e-01
5.732327e-01
0.000000e+00
1.000000e+00
5.730007e-01
5.730014e-01
5.730021e-01
5.730029e-01
5.730037e-01
5.730043e-01
5.730047e-01
5.730049e-01
5.730047e-01
5.730043e-01
5.730037e-01
5.730029e-01
5.730021e-01
5.730014e-01
5.730007e-01
0.000000e+00
1.000000e+00
5.725692e-01
5.720912e-01
5.715777e-01
5.710525e-01
5.705546e-01
5.701361e-01
5.698541e-01
5.697542e-01
5.698541e-01
5.701361e-01
5.705546e-01
5.710525e-01
5.715777e-01
5.720912e-01
5.725692e-01
0.000000e+00
1.000000e+00
5.719865e-01
5.708620e-01
5.696541e-01
5.684187e-01
5.672472e-01
5.662628e-01
5.655994e-01
5.653645e-01
5.655994e-01
5.662628e-01
5.672472e-01
5.684187e-01
5.696541e-01
5.708620e-01
5.719865e-01
0.000000e+00
1.000000e+00
5.713014e-01
5.694170e-01
5.673927e-01
5.653222e-01
5.633590e-01
5.617092e-01
5.605975e-01
5.602037e-01
5.605975e-01
5.617092e-01
5.633590e-01
5.653222e-01
5.673927e-01
5.694170e-01
5.713014e-01
0.000000e+00
1.000000e+00
5.645605e-01
5.551977e-01
5.451396e-01
5.348526e-01
5.250981e-01
5.169010e-01
5.113774e-01
5.094212e-01
5.113774e-01
5.169010e-01
5.250981e-01
5.348526e-01
5.451396e-01
5.551977e-01
5.645605e-01
0.000000e+00
1.000000e+00
5.651155e-01
5.563685e-01
5.469718e-01
5.373613e-01
5.282482e-01
5.205902e-01
5.154299e-01
5.136023e-01
5.154299e-01
5.205902e-01
5.282482e-01
5.373613e-01
5.469718e-01
5.563684e-01
5.651155e-01
0.000000e+00
1.000000e+00
5.658495e-01
5.579168e-01
5.493950e-01
5.406791e-01
5.324145e-01
5.254694e-01
5.207895e-01
5.191320e-01
5.207895e-01
5.254694e-01
5.324145e-01
5.406791e-01
5.493950e-01
5.579168e-01
5.658495e-01
0.000000e+00
1.000000e+00
5.667521e-01
5.598207e-01
5.523745e-01
5.447588e-01
5.375373e-01
5.314689e-01
5.273797e-01
5.259314e-01
5.273797e-01
5.314689e-01
5.375373e-01
5.447588e-01
5.523745e-01
5.598206e-01
5.667521e-01
0.000000e+00
1.000000e+00
5.677948e-01
5.620201e-01
5.558165e-01
5.494718e-01
5.434554e-01
5.383997e-01
5.349929e-01
5.337864e-01
5.349929e-01
5.383997e-01
5.434554e-01
5.494718e-01
5.558165e-01
5.620201e-01
5.677948e-01
0.000000e+00
1.000000e+00
5.689296e-01
5.644138e-01
5.595627e-01
5.546012e-01
5.498965e-01
5.459430e-01
5.432789e-01
5.423354e-01
5.432789e-01
5.459430e-01
5.498965e-01
5.546012e-01
5.595627e-01
5.644138e-01
5.689296e-01
0.000000e+00
1.000000e+00
5.700908e-01
5.668633e-01
5.633961e-01
5.598500e-01
5.564874e-01
5.536618e-01
5.517577e-01
5.510833e-01
5.517577e-01
5.536618e-01
5.564874e-01
5.598500e-01
5.633961e-01
5.668633e-01
5.700908e-01
0.000000e+00
1.000000e+00
5.712009e-01
5.692050e-01
5.670609e-01
5.648680e-01
5.627886e-01
5.610412e-01
5.598637e-01
5.594467e-01
5.598637e-01
5.610412e-01
5.627886e-01
5.648680e-01
5.670609e-01
5.692050e-01
5.712009e-01
0.000000e+00
1.000000e+00
5.721805e-01
5.712714e-01
5.702948e-01
5.692959e-01
5.683487e-01
5.675528e-01
5.670164e-01
5.668265e-01
5.670164e-01
5.675528e-01
5.683487e-01
5.692959e-01
5.702948e-01
5.712714e-01
5.721805e-01
0.000000e+00
1.000000e+00
5.729596e-01
5.729147e-01
5.728665e-01
5.728173e-01
5.727705e-01
5.727313e-01
5.727048e-01
5.726954e-01
5.727048e-01
5.727313e-01
5.727705e-01
5.728173e-01
5.728665e-01
5.729147e-01
5.729596e-01
0.000000e+00
1.000000e+00
5.734879e-01
5.740292e-01
5.746107e-01
5.752054e-01
5.757694e-01
5.762432e-01
5.765626e-01
5.766757e-01
5.765626e-01
5.762432e-01
5.757694e-01
5.752054e-01
5.746107e-01
5.740292e-01
5.734879e-01
0.000000e+00
1.000000e+00
5.737416e-01
5.745644e-01
5.754483e-01
5.763522e-01
5.772094e-01
5.779297e-01
5.784151e-01
5.785870e-01
5.784151e-01
5.779297e-01
5.772094e-01
5.763522e-01
5.754483e-01
5.745644e-01
5.737416e-01
0.000000e+00
1.000000e+00
5.737241e-01
5.745273e-01
5.753902e-01
5.762728e-01
5.771096e-01
5.778129e-01
5.782868e-01
5.784546e-01
5.782868e-01
5.778129e-01
5.771096e-01
5.762728e-01
5.753902e-01
5.745273e-01
5.737241e-01
0.000000e+00
1.000000e+00
5.734617e-01
5.739738e-01
5.745240e-01
5.750867e-01
5.756203e-01
5.760687e-01
5.763708e-01
5.764778e-01
5.763708e-01
5.760687e-01
5.756203e-01
5.750867e-01
5.745240e-01
5.739738e-01
5.734617e-01
0.000000e+00
1.000000e+00
5.729968e-01
5.729932e-01
5.729893e-01
5.729853e-01
5.729816e-01
5.729784e-01
5.729763e-01
5.729756e-01
5.729763e-01
5.729784e-01
5.729816e-01
5.729853e-01
5.729893e-01
5.729932e-01
5.729968e-01
0.000000e+00
1.000000e+00
5.723793e-01
5.716907e-01
5.709510e-01
5.701944e-01
5.694770e-01
5.688741e-01
5.684678e-01