<?xml version="1.0"?>
<VTKFile type="StructuredGrid" version="0.1">
  <StructuredGrid WholeExtent="0 16 0 16 0 16">
    <Piece Extent="0 16 0 16 0 16">
      <PointData Scalars="temperature" Vectors="velocity">
        <DataArray type="Float32" Name="temperature" format="ascii">
1.000000e+00
5.734676e-01
5.736767e-01
5.740598e-01
5.744480e-01
5.748166e-01
5.751269e-01
5.753360e-01
5.754087e-01
5.753311e-01
5.751174e-01
5.748166e-01
5.745436e-01
5.742254e-01
5.738601e-01
5.728618e-01
0.000000e+00
1.000000e+00
5.743117e-01
5.752846e-01
5.765887e-01
5.779111e-01
5.791655e-01
5.802203e-01
5.809308e-01
5.811812e-01
5.809265e-01
5.802124e-01
5.791646e-01
5.779974e-01
5.768129e-01
5.754957e-01
5.736959e-01
0.000000e+00
1.000000e+00
5.752875e-01
5.771452e-01
5.795177e-01
5.819217e-01
5.842026e-01
5.861203e-01
5.874130e-01
5.878714e-01
5.874151e-01
5.861275e-01
5.842432e-01
5.820677e-01
5.797808e-01
5.773757e-01
5.745912e-01
0.000000e+00
1.000000e+00
5.763860e-01
5.792165e-01
5.827836e-01
5.863934e-01
5.898181e-01
5.926984e-01
5.946416e-01
5.953340e-01
5.946560e-01
5.927350e-01
5.899252e-01
5.866061e-01
5.830559e-01
5.794649e-01
5.755777e-01
0.000000e+00
1.000000e+00
5.775584e-01
5.814320e-01
5.862831e-01
5.911845e-01
5.958347e-01
5.997458e-01
6.023858e-01
6.033302e-01
6.024180e-01
5.998243e-01
5.960114e-01
5.914459e-01
5.865576e-01
5.817052e-01
5.766329e-01
0.000000e+00
1.000000e+00
5.787627e-01
5.837042e-01
5.898757e-01
5.961030e-01
6.020114e-01
6.069816e-01
6.103388e-01
6.115442e-01
6.103938e-01
6.071093e-01
6.022522e-01
5.964013e-01
5.901509e-01
5.840034e-01
5.777098e-01
0.000000e+00
1.000000e+00
5.799529e-01
5.859214e-01
5.933907e-01
6.009152e-01
6.080545e-01
6.140618e-01
6.181229e-01
6.195869e-01
6.182065e-01
6.142467e-01
6.083525e-01
6.012410e-01
5.936510e-01
5.862948e-01
5.786746e-01
0.000000e+00
1.000000e+00
5.810766e-01
5.879627e-01
5.966416e-01
6.053654e-01
6.136433e-01
6.206112e-01
6.253267e-01
6.270346e-01
6.254473e-01
6.208603e-01
6.139901e-01
6.057102e-01
5.968669e-01
5.886462e-01
5.783281e-01
0.000000e+00
1.000000e+00
5.820729e-01
5.897080e-01
5.994440e-01
6.092015e-01
6.184619e-01
6.262608e-01
6.315454e-01
6.334705e-01
6.317108e-01
6.265764e-01
6.188495e-01
6.095589e-01
5.996214e-01
5.910287e-01
5.769497e-01
0.000000e+00
1.000000e+00
5.828938e-01
5.910502e-01
6.016353e-01
6.122023e-01
6.222344e-01
6.306887e-01
6.364248e-01
6.385262e-01
6.366342e-01
6.310637e-01
6.226561e-01
6.125704e-01
6.017811e-01
5.927239e-01
5.765701e-01
0.000000e+00
1.000000e+00
5.834931e-01
5.919084e-01
6.030954e-01
6.142058e-01
6.247582e-01
6.336554e-01
6.396975e-01
6.419198e-01
6.399398e-01
6.340744e-01
6.252079e-01
6.145869e-01
6.032327e-01
5.933082e-01
5.775034e-01
0.000000e+00
1.000000e+00
5.838449e-01
5.922332e-01
6.037588e-01
6.151248e-01
6.259213e-01
6.350250e-01
6.412089e-01
6.434876e-01
6.414667e-01
6.354625e-01
6.263871e-01
6.155177e-01
6.039252e-01
5.932322e-01
5.788426e-01
0.000000e+00
1.000000e+00
5.839243e-01
5.920159e-01
6.036212e-01
6.149492e-01
6.257043e-01
6.347702e-01
6.409273e-01
6.431966e-01
6.411851e-01
6.352041e-01
6.261825e-01
6.153673e-01
6.038424e-01
5.928040e-01
5.805212e-01
0.000000e+00
1.000000e+00
5.836832e-01
5.913097e-01
6.027308e-01
6.137326e-01
6.241726e-01
6.329715e-01
6.389451e-01
6.411439e-01
6.391883e-01
6.333893e-01
6.246602e-01
6.141706e-01
6.030025e-01
5.921605e-01
5.814607e-01
0.000000e+00
1.000000e+00
5.832339e-01
5.902362e-01
6.011654e-01
6.115825e-01
6.214676e-01
6.297989e-01
6.354509e-01
6.375215e-01
6.356703e-01
6.302037e-01
6.219565e-01
6.120361e-01
6.014629e-01
5.911383e-01
5.807067e-01
0.000000e+00
1.000000e+00
5.824935e-01
5.889304e-01
5.990215e-01
6.086442e-01
6.177771e-01
6.254759e-01
6.306985e-01
6.326051e-01
6.309052e-01
6.258717e-01
6.182628e-01
6.091192e-01
5.993571e-01
5.897142e-01
5.803873e-01
0.000000e+00
1.000000e+00
5.815100e-01
5.874412e-01
5.964353e-01
6.051001e-01
6.133250e-01
6.202594e-01
6.249655e-01
6.266843e-01
6.251664e-01
6.206501e-01
6.138191e-01
6.056148e-01
5.968461e-01
5.881728e-01
5.808405e-01
0.000000e+00
1.000000e+00
5.741742e-01
5.750178e-01
5.761730e-01
5.773415e-01
5.784499e-01
5.793817e-01
5.800093e-01
5.802304e-01
5.800049e-01
5.793725e-01
5.784453e-01
5.774089e-01
5.763548e-01
5.751997e-01
5.735490e-01
0.000000e+00
1.000000e+00
5.750537e-01
5.766785e-01
5.787877e-01
5.809218e-01
5.829463e-01
5.846483e-01
5.857955e-01
5.862019e-01
5.857959e-01
5.846502e-01
5.829742e-01
5.810470e-01
5.790306e-01
5.768949e-01
5.743457e-01
0.000000e+00
1.000000e+00
5.760660e-01
5.785950e-01
5.818087e-01
5.850583e-01
5.881409e-01
5.907331e-01
5.924817e-01
5.931044e-01
5.924924e-01
5.907608e-01
5.882325e-01
5.852528e-01
5.820644e-01
5.788273e-01
5.752754e-01
0.000000e+00
1.000000e+00
5.771927e-01
5.807221e-01
5.851680e-01
5.896577e-01
5.939171e-01
5.974991e-01
5.999167e-01
6.007809e-01
5.999436e-01
5.975659e-01
5.940790e-01
5.899076e-01
5.854326e-01
5.809805e-01
5.762812e-01
0.000000e+00
1.000000e+00
5.783909e-01
5.829903e-01
5.887522e-01
5.945650e-01
6.000797e-01
6.047185e-01
6.078515e-01
6.089755e-01
6.078997e-01
6.048333e-01
6.003102e-01
5.948666e-01
5.890249e-01
5.832749e-01
5.773763e-01
0.000000e+00
1.000000e+00
5.796188e-01
5.852991e-01
5.924075e-01
5.995692e-01
6.063641e-01
6.120809e-01
6.159451e-01
6.173366e-01
6.160206e-01
6.122532e-01
6.066611e-01
5.999247e-01
5.926885e-01
5.856065e-01
5.784597e-01
0.000000e+00
1.000000e+00
5.808269e-01
5.875271e-01
5.959471e-01
6.044151e-01
6.124495e-01
6.192114e-01
6.237863e-01
6.254410e-01
6.238985e-01
6.194512e-01
6.128065e-01
6.048294e-01
5.962321e-01
5.878633e-01
5.796875e-01
0.000000e+00
1.000000e+00
5.819499e-01
5.895426e-01
5.991681e-01
6.088244e-01
6.179874e-01
6.257025e-01
6.309285e-01
6.328301e-01
6.310883e-01
6.260151e-01
6.183946e-01
6.092907e-01
5.994418e-01
5.899887e-01
5.806412e-01
0.000000e+00
1.000000e+00
5.829238e-01
5.912167e-01
6.018719e-01
6.125262e-01
6.226385e-01
6.311583e-01
6.369378e-01
6.390543e-01
6.371483e-01
6.315416e-01
6.230900e-01
6.130287e-01
6.021188e-01
5.921271e-01
5.797359e-01
0.000000e+00
1.000000e+00
5.836873e-01
5.924399e-01
6.038887e-01
6.152896e-01
6.261147e-01
6.352413e-01
6.414405e-01
6.437221e-01
6.416929e-01
6.356849e-01
6.266143e-01
6.157984e-01
6.041227e-01
5.941094e-01
5.779349e-01
0.000000e+00
1.000000e+00
5.841906e-01
5.931362e-01
6.050989e-01
6.169532e-01
6.282128e-01
6.377097e-01
6.441645e-01
6.465465e-01
6.444430e-01
6.381955e-01
6.287544e-01
6.174401e-01
6.053275e-01
5.949551e-01
5.780557e-01
0.000000e+00
1.000000e+00
5.843880e-01
5.932777e-01
6.054464e-01
6.174399e-01
6.288320e-01
6.384398e-01
6.449697e-01
6.473815e-01
6.452592e-01
6.389449e-01
6.293889e-01
6.179005e-01
6.056693e-01
5.947399e-01
5.784271e-01
0.000000e+00
1.000000e+00
5.842712e-01
5.928799e-01
6.049432e-01
6.167588e-01
6.279770e-01
6.374356e-01
6.438623e-01
6.462355e-01
6.441484e-01
6.379352e-01
6.285284e-01
6.172156e-01
6.051869e-01
5.938844e-01
5.796613e-01
0.000000e+00
1.000000e+00
5.839469e-01
5.919298e-01
6.036461e-01
6.149860e-01
6.257474e-01
6.348184e-01
6.409790e-01
6.432522e-01
6.412505e-01
6.352939e-01
6.262907e-01
6.154637e-01
6.039486e-01
5.927854e-01
5.812678e-01
0.000000e+00
1.000000e+00
5.833605e-01
5.905962e-01
6.016562e-01
6.122586e-01
6.223192e-01
6.307999e-01
6.365573e-01
6.386793e-01
6.368138e-01
6.312585e-01
6.228596e-01
6.127652e-01
6.020140e-01
5.914703e-01
5.809802e-01
0.000000e+00
1.000000e+00
5.824417e-01
5.891037e-01
5.991085e-01
6.087633e-01
6.179276e-01
6.256534e-01
6.308979e-01
6.328284e-01
6.311405e-01
6.260906e-01
6.184520e-01
6.092863e-01
5.995269e-01
5.898287e-01
5.806826e-01
0.000000e+00
1.000000e+00
5.813156e-01
5.873885e-01
5.961448e-01
6.046988e-01
6.128209e-01
6.196682e-01
6.243173e-01
6.260245e-01
6.245304e-01
6.200586e-01
6.133002e-01
6.052037e-01
5.965776e-01
5.880602e-01
5.810494e-01
0.000000e+00
1.000000e+00
5.747670e-01
5.761350e-01
5.779357e-01
5.797550e-01
5.814805e-01
5.829309e-01
5.839084e-01
5.842543e-01
5.839072e-01
5.829281e-01
5.814925e-01
5.798497e-01
5.781233e-01
5.763144e-01
5.740976e-01
0.000000e+00
1.000000e+00
5.756736e-01
5.778329e-01
5.806115e-01
5.834188e-01
5.860815e-01
5.883202e-01
5.898299e-01
5.903667e-01
5.898360e-01
5.883351e-01
5.861447e-01
5.835796e-01
5.808241e-01
5.780329e-01
5.748958e-01
0.000000e+00
1.000000e+00
5.767114e-01
5.797878e-01
5.836984e-01
5.876455e-01
5.913896e-01
5.945380e-01
5.966626e-01
5.974215e-01
5.966830e-01
5.945871e-01
5.915183e-01
5.878686e-01
5.839265e-01
5.800138e-01
5.758368e-01
0.000000e+00
1.000000e+00
5.778580e-01
5.819561e-01
5.871237e-01
5.923353e-01
5.972794e-01
6.014379e-01
6.042461e-01
6.052529e-01
6.042857e-01
6.015304e-01
5.974759e-01
5.926166e-01
5.873671e-01
5.822102e-01
5.768730e-01
0.000000e+00
1.000000e+00
5.790752e-01
5.842583e-01
5.907652e-01
5.973208e-01
6.035404e-01
6.087729e-01
6.123090e-01
6.135812e-01
6.123730e-01
6.089197e-01
6.038070e-01
5.976654e-01
5.910220e-01
5.845399e-01
5.779625e-01
0.000000e+00
1.000000e+00
5.803227e-01
5.865864e-01
5.944564e-01
6.023743e-01
6.098865e-01
6.162081e-01
6.204838e-01
6.220282e-01
6.205816e-01
6.164236e-01
6.102217e-01
6.027907e-01
5.947312e-01
5.868981e-01
5.790958e-01
0.000000e+00
1.000000e+00
5.815394e-01
5.888094e-01
5.979956e-01
6.072194e-01
6.159713e-01
6.233387e-01
6.283270e-01
6.301389e-01
6.284723e-01
6.236355e-01
6.163667e-01
6.077127e-01
5.982957e-01
5.891644e-01
5.801728e-01
0.000000e+00
1.000000e+00
5.826533e-01
5.907857e-01
6.011643e-01
6.115575e-01
6.214201e-01
6.297271e-01
6.353599e-01
6.374201e-01
6.355620e-01
6.301072e-01
6.218675e-01
6.121104e-01
6.014915e-01
5.912157e-01
5.811060e-01
0.000000e+00
1.000000e+00
5.835928e-01
5.923807e-01
6.037517e-01
6.151006e-01
6.258734e-01
6.349535e-01
6.411202e-01
6.433900e-01
6.413737e-01
6.354036e-01
6.263753e-01
6.156702e-01
6.040929e-01
5.930816e-01
5.809173e-01
0.000000e+00
1.000000e+00
5.842846e-01
5.934857e-01
6.055821e-01
6.176101e-01
6.290323e-01
6.386660e-01
6.452160e-01
6.476357e-01
6.455021e-01
6.391645e-01
6.295939e-01
6.181531e-01
6.059421e-01
5.948972e-01
5.796557e-01
0.000000e+00
1.000000e+00
5.846680e-01
5.940351e-01
6.065375e-01
6.189260e-01
6.306942e-01
6.406226e-01
6.473742e-01
6.498702e-01
6.476732e-01
6.411500e-01
6.313147e-01
6.194806e-01
6.068681e-01
5.960170e-01
5.786694e-01
0.000000e+00
1.000000e+00
5.847359e-01
5.940042e-01
6.065744e-01
6.189849e-01
6.307735e-01
6.407172e-01
6.474777e-01
6.499744e-01
6.477747e-01
6.412548e-01
6.314157e-01
6.195186e-01
6.068176e-01
5.957675e-01
5.786452e-01
0.000000e+00
1.000000e+00
5.845675e-01
5.933444e-01
6.057064e-01
6.178069e-01
6.292964e-01
6.389843e-01
6.455674e-01
6.479978e-01
6.458611e-01
6.395132e-01
6.299196e-01
6.183163e-01
6.059602e-01
5.945888e-01
5.797130e-01
0.000000e+00
1.000000e+00
5.841241e-01
5.921616e-01
6.040223e-01
6.155040e-01
6.264015e-01
6.355879e-01
6.418277e-01
6.441319e-01
6.421108e-01
6.360946e-01
6.269927e-01
6.160181e-01
6.043414e-01
5.931073e-01
5.809538e-01
0.000000e+00
1.000000e+00
5.833158e-01
5.907033e-01
6.016514e-01
6.122508e-01
6.223107e-01
6.307912e-01
6.365492e-01
6.386749e-01
6.368199e-01
6.312711e-01
6.228697e-01
6.127744e-01
6.020252e-01
5.914531e-01
5.807225e-01
0.000000e+00
1.000000e+00
5.821618e-01
5.890354e-01
5.987418e-01
6.082557e-01
6.172885e-01
6.249035e-01
6.300738e-01
6.319782e-01
6.303191e-01
6.253423e-01
6.178075e-01
6.087759e-01
5.991665e-01
5.896418e-01
5.808933e-01
0.000000e+00
1.000000e+00
5.809584e-01
5.870520e-01
5.954459e-01
6.037357e-01
6.116078e-01
6.182435e-01
6.227500e-01
6.244050e-01
6.229564e-01
6.186210e-01
6.120662e-01
6.042243e-01
5.958755e-01
5.876559e-01
5.808812e-01
0.000000e+00
1.000000e+00
5.752045e-01
5.769500e-01
5.792231e-01
5.815176e-01
5.836936e-01
5.855228e-01
5.867559e-01
5.871936e-01
5.867584e-01
5.855287e-01
5.837311e-01
5.816426e-01
5.793969e-01
5.771178e-01
5.744773e-01
0.000000e+00
1.000000e+00
5.761239e-01
5.786620e-01
5.819232e-01
5.852148e-01
5.883367e-01
5.909617e-01
5.927323e-01
5.933633e-01
5.927446e-01
5.909907e-01
5.884227e-01
5.853913e-01
5.821188e-01
5.788519e-01
5.752915e-01
0.000000e+00
1.000000e+00
5.771704e-01
5.806325e-01
5.850367e-01
5.894779e-01
5.936908e-01
5.972338e-01
5.996256e-01
6.004817e-01
5.996543e-01
5.972995e-01
5.938367e-01
5.897186e-01
5.852541e-01
5.808523e-01
5.762393e-01
0.000000e+00
1.000000e+00
5.783246e-01
5.828166e-01
5.884883e-01
5.942035e-01
5.996256e-01
6.041865e-01
6.072681e-01
6.083750e-01
6.073175e-01
6.042984e-01
5.998376e-01
5.945100e-01
5.887312e-01
5.830700e-01
5.772881e-01
0.000000e+00
1.000000e+00
5.795504e-01
5.851290e-01
5.921480e-01
5.992141e-01
6.059181e-01
6.115588e-01
6.153726e-01
6.167472e-01
6.154495e-01
6.117319e-01
6.062008e-01
5.995917e-01
5.924161e-01
5.854137e-01
5.783954e-01
0.000000e+00
1.000000e+00
5.808030e-01
5.874552e-01
5.958392e-01
6.042676e-01
6.122643e-01
6.189947e-01
6.235491e-01
6.251980e-01
6.236661e-01
6.192488e-01
6.126173e-01
6.047176e-01
5.961469e-01
5.877726e-01
5.795267e-01
0.000000e+00
1.000000e+00
5.820117e-01
5.896567e-01
5.993474e-01
6.090704e-01
6.182961e-01
6.260639e-01
6.313266e-01
6.332443e-01
6.314995e-01
6.264141e-01
6.187169e-01
6.095776e-01
5.997193e-01
5.900102e-01
5.805578e-01
0.000000e+00
1.000000e+00
5.830995e-01
5.915849e-01
6.024410e-01
6.133059e-01
6.236168e-01
6.323034e-01
6.381980e-01
6.403619e-01
6.384323e-01
6.327459e-01
6.241119e-01
6.138180e-01
6.029008e-01
5.919894e-01
5.816106e-01
0.000000e+00
1.000000e+00
5.839849e-01
5.931023e-01
6.048993e-01
6.166729e-01
6.278495e-01
6.372723e-01
6.436763e-01
6.460408e-01
6.439581e-01
6.377781e-01
6.284178e-01
6.171748e-01
6.053842e-01
5.936719e-01
5.818848e-01
0.000000e+00
1.000000e+00
5.845833e-01
5.941030e-01
6.065418e-01
6.189257e-01
6.306862e-01
6.406074e-01
6.473560e-01
6.498531e-01
6.476590e-01
6.411383e-01
6.312970e-01
6.194569e-01
6.069879e-01
5.952491e-01
5.808300e-01
0.000000e+00
1.000000e+00
5.848793e-01
5.945164e-01
6.072560e-01
6.199088e-01
6.319283e-01
6.420698e-01
6.489699e-01
6.515214e-01
6.492710e-01
6.426070e-01
6.325815e-01
6.205173e-01
6.076541e-01
5.966070e-01
5.792375e-01
0.000000e+00
1.000000e+00
5.848993e-01
5.942722e-01
6.069934e-01
6.195587e-01
6.314968e-01
6.415688e-01
6.484197e-01
6.509516e-01
6.487181e-01
6.421093e-01
6.321866e-01
6.201871e-01
6.073105e-01
5.965572e-01
5.787243e-01
0.000000e+00
1.000000e+00
5.846362e-01
5.934098e-01
6.058003e-01
6.179336e-01
6.294576e-01
6.391769e-01
6.457844e-01
6.482288e-01
6.460872e-01
6.397147e-01
6.301223e-01
6.184977e-01
6.060836e-01
5.951399e-01
5.794675e-01
0.000000e+00
1.000000e+00
5.839998e-01
5.921019e-01
6.037850e-01
6.151732e-01
6.259866e-01
6.351030e-01
6.412970e-01
6.435892e-01
6.415916e-01
6.356252e-01
6.265953e-01
6.157066e-01
6.041160e-01
5.931775e-01
5.802774e-01
0.000000e+00
1.000000e+00
5.829741e-01
5.905071e-01
6.010920e-01
6.114763e-01
6.213357e-01
6.296475e-01
6.352909e-01
6.373749e-01
6.355623e-01
6.301273e-01
6.218914e-01
6.119938e-01
6.014640e-01
5.911845e-01
5.801852e-01
0.000000e+00
1.000000e+00
5.817415e-01
5.886003e-01
5.978817e-01
6.070713e-01
6.157968e-01
6.231516e-01
6.281442e-01
6.299809e-01
6.283788e-01
6.235746e-01
6.162944e-01
6.075681e-01
5.983036e-01
5.891292e-01
5.807139e-01
0.000000e+00
1.000000e+00
5.804876e-01
5.864006e-01
5.943198e-01
6.021897e-01
6.096620e-01
6.159586e-01
6.202325e-01
6.217999e-01
6.204211e-01
6.163111e-01
6.100886e-01
6.026477e-01
5.947378e-01
5.868855e-01
5.807015e-01
0.000000e+00
1.000000e+00
5.754401e-01
5.773895e-01
5.799170e-01
5.824677e-01
5.848867e-01
5.869202e-01
5.882912e-01
5.887787e-01
5.882968e-01
5.869339e-01
5.849378e-01
5.826071e-01
5.800894e-01
5.775490e-01
5.746820e-01
0.000000e+00
1.000000e+00
5.763544e-01
5.790857e-01
5.825923e-01
5.861310e-01
5.894874e-01
5.923095e-01
5.942135e-01
5.948929e-01
5.942297e-01
5.923471e-01
5.895792e-01
5.863113e-01
5.827887e-01
5.792711e-01
5.754917e-01
0.000000e+00
1.000000e+00
5.773918e-01
5.810402e-01
5.856806e-01
5.903595e-01
5.947980e-01
5.985309e-01
6.010515e-01
6.019547e-01
6.010846e-01
5.986046e-01
5.949447e-01
5.906052e-01
5.859056e-01
5.812587e-01
5.764407e-01
0.000000e+00
1.000000e+00
5.785367e-01
5.832079e-01
5.891062e-01
5.950496e-01
6.006881e-01
6.054316e-01
6.086369e-01
6.097893e-01
6.086911e-01
6.055526e-01
6.009008e-01
5.953611e-01
5.893625e-01
5.834602e-01
5.774770e-01
0.000000e+00
1.000000e+00
5.797523e-01
5.855007e-01
5.927344e-01
6.000170e-01
6.069264e-01
6.127405e-01
6.166723e-01
6.180906e-01
6.167551e-01
6.129279e-01
6.072152e-01
6.003897e-01
5.930301e-01
5.857843e-01
5.785773e-01
0.000000e+00
1.000000e+00
5.809889e-01
5.877998e-01
5.963813e-01
6.050100e-01
6.131969e-01
6.200879e-01
6.247519e-01
6.264422e-01
6.248769e-01
6.203654e-01
6.135699e-01
6.054252e-01
5.967368e-01
5.881143e-01
5.796931e-01
0.000000e+00
1.000000e+00
5.821713e-01
5.899616e-01
5.998235e-01
6.097227e-01
6.191157e-01
6.270250e-01
6.323847e-01
6.343399e-01
6.325669e-01
6.274076e-01
6.195834e-01
6.101454e-01
6.002686e-01
5.903147e-01
5.807284e-01
0.000000e+00
1.000000e+00
5.832152e-01
5.918340e-01
6.028200e-01
6.138256e-01
6.242703e-01
6.330700e-01
6.390420e-01
6.412363e-01
6.392840e-01
6.335449e-01
6.248332e-01
6.142348e-01
6.033564e-01
5.922357e-01
5.816976e-01
0.000000e+00
1.000000e+00
5.840320e-01
5.932771e-01
6.051428e-01
6.170075e-01
6.282705e-01
6.377659e-01
6.442196e-01
6.466026e-01
6.445028e-01
6.382888e-01
6.288830e-01
6.174692e-01
6.056985e-01
5.937516e-01
5.823872e-01
0.000000e+00
1.000000e+00
5.845773e-01
5.941770e-01
6.066104e-01
6.190193e-01
6.308024e-01
6.407420e-01
6.475041e-01
6.500070e-01
6.478007e-01
6.412659e-01
6.314189e-01
6.195997e-01
6.070743e-01
5.950054e-01
5.820836e-01
0.000000e+00
1.000000e+00
5.848254e-01
5.944408e-01
6.071047e-01
6.196980e-01
6.316618e-01
6.417588e-01
6.486327e-01
6.511796e-01
6.489321e-01
6.422765e-01
6.323202e-01
6.203666e-01
6.075200e-01
5.961306e-01
5.803942e-01
0.000000e+00
1.000000e+00
5.847845e-01
5.940393e-01
6.065966e-01
6.190084e-01
6.308023e-01
6.407559e-01
6.475306e-01
6.500438e-01
6.478403e-01
6.412779e-01
6.315064e-01
6.196933e-01
6.069658e-01
5.961255e-01
5.790804e-01
0.000000e+00
1.000000e+00
5.843686e-01
5.930639e-01
6.051463e-01
6.170275e-01
6.283152e-01
6.378375e-01
6.443139e-01
6.467167e-01
6.446231e-01
6.383679e-01
6.289858e-01
6.176260e-01
6.054500e-01
5.946212e-01
5.795417e-01
0.000000e+00
1.000000e+00
5.835639e-01
5.916532e-01
6.028754e-01
6.139156e-01
6.244015e-01
6.332429e-01
6.392501e-01
6.414744e-01
6.395421e-01
6.337580e-01
6.249955e-01
6.144486e-01
6.032037e-01
5.925846e-01
5.799938e-01
0.000000e+00
1.000000e+00
5.824499e-01
5.898898e-01
5.999403e-01
6.098904e-01
6.193382e-01
6.273018e-01
6.327070e-01
6.346998e-01
6.329635e-01
6.277586e-01
6.198644e-01
6.103828e-01
6.002957e-01
5.905231e-01
5.799611e-01
0.000000e+00
1.000000e+00
5.811880e-01
5.877989e-01
5.965146e-01
6.051953e-01
6.134363e-01
6.203801e-01
6.250907e-01
6.268180e-01
6.252991e-01
6.207687e-01
6.138941e-01
6.056530e-01
5.969117e-01
5.882488e-01
5.804109e-01
0.000000e+00
1.000000e+00
5.799045e-01
5.854604e-01
5.927745e-01
6.000726e-01
6.070006e-01
6.128355e-01
6.167920e-01
6.182381e-01
6.169499e-01
6.131474e-01
6.073824e-01
6.004883e-01
5.931634e-01
5.858344e-01
5.794725e-01
0.000000e+00
1.000000e+00
5.754394e-01
5.773929e-01
5.799202e-01
5.824719e-01
5.848919e-01
5.869262e-01
5.882977e-01
5.887852e-01
5.883030e-01
5.869396e-01
5.849365e-01
5.826033e-01
5.801041e-01
5.775369e-01
5.746696e-01
0.000000e+00
1.000000e+00
5.763284e-01
5.790369e-01
5.825118e-01
5.860208e-01
5.893489e-01
5.921471e-01
5.940349e-01
5.947082e-01
5.940502e-01
5.921831e-01
5.894333e-01
5.861921e-01
5.827227e-01
5.792105e-01
5.754620e-01
0.000000e+00
1.000000e+00
5.773370e-01
5.809369e-01
5.855131e-01
5.901300e-01
5.945098e-01
5.981932e-01
6.006801e-01
6.015711e-01
6.007122e-01
5.982644e-01
5.946505e-01
5.903629e-01
5.857541e-01
5.811424e-01
5.763794e-01
0.000000e+00
1.000000e+00
5.784509e-01
5.830501e-01
5.888508e-01
5.946999e-01
6.002491e-01
6.049172e-01
6.080714e-01
6.092052e-01
6.081238e-01
6.050350e-01
6.004621e-01
5.949905e-01
5.891273e-01
5.832871e-01
5.773941e-01
0.000000e+00
1.000000e+00
5.796333e-01
5.852878e-01
5.923891e-01
5.995444e-01
6.063332e-01
6.120455e-01
6.159082e-01
6.173012e-01
6.159872e-01
6.122295e-01
6.066369e-01
5.998761e-01
5.927082e-01
5.855543e-01
5.784615e-01
0.000000e+00
1.000000e+00
5.808324e-01
5.875300e-01
5.959416e-01
6.044083e-01
6.124416e-01
6.192031e-01
6.237790e-01
6.254361e-01
6.238961e-01
6.194754e-01
6.128428e-01
6.047727e-01
5.963167e-01
5.878244e-01
5.795462e-01
0.000000e+00
1.000000e+00
5.819703e-01
5.896315e-01
5.992807e-01
6.089801e-01
6.181839e-01
6.259332e-01
6.311831e-01
6.330955e-01
6.313510e-01
6.263035e-01
6.186797e-01
6.093771e-01
5.997185e-01
5.899522e-01
5.805670e-01
0.000000e+00
1.000000e+00
5.829581e-01
5.914382e-01
6.021606e-01
6.129240e-01
6.231389e-01
6.317436e-01
6.375809e-01
6.397204e-01
6.378008e-01
6.321941e-01
6.237113e-01
6.133706e-01
6.026684e-01
5.917821e-01
5.814528e-01
0.000000e+00
1.000000e+00
5.837362e-01
5.928042e-01
6.043501e-01
6.159231e-01
6.269084e-01
6.361673e-01
6.424573e-01
6.447759e-01
6.427157e-01
6.366547e-01
6.275086e-01
6.164400e-01
6.049136e-01
5.931585e-01
5.821864e-01
0.000000e+00
1.000000e+00
5.842301e-01
5.936107e-01
6.056675e-01
6.177241e-01
6.291711e-01
6.388258e-01
6.453950e-01
6.478293e-01
6.456800e-01
6.393131e-01
6.297795e-01
6.183530e-01
6.061722e-01
5.939412e-01
5.822071e-01
0.000000e+00
1.000000e+00
5.844475e-01
5.937652e-01
6.059948e-01
6.181721e-01
6.297377e-01
6.394977e-01
6.461433e-01
6.486149e-01
6.464521e-01
6.399803e-01
6.303892e-01
6.188953e-01
6.064383e-01
5.945626e-01
5.806523e-01
0.000000e+00
1.000000e+00
5.843038e-01
5.932816e-01
6.053158e-01
6.172453e-01
6.285783e-01
6.381419e-01
6.446523e-01
6.470746e-01
6.449676e-01
6.386371e-01
6.292565e-01
6.179382e-01
6.056759e-01
5.945178e-01
5.796899e-01
0.000000e+00
1.000000e+00
5.837741e-01
5.922375e-01
6.036970e-01
6.150317e-01
6.257985e-01
6.348803e-01
6.410564e-01
6.433490e-01
6.413579e-01
6.353887e-01
6.264301e-01
6.156214e-01
6.040083e-01
5.932664e-01
5.802246e-01
0.000000e+00
1.000000e+00
5.828955e-01
5.907343e-01
6.012679e-01
6.117054e-01
6.216171e-01
6.299725e-01
6.356466e-01
6.377435e-01
6.359177e-01
6.304520e-01
6.221659e-01
6.122115e-01
6.015858e-01
5.914949e-01
5.800043e-01
0.000000e+00
1.000000e+00
5.817615e-01
5.888542e-01
5.981954e-01
6.074967e-01
6.163269e-01
6.237667e-01
6.288121e-01
6.306646e-01
6.290359e-01
6.241775e-01
6.168037e-01
6.079442e-01
5.985296e-01
5.894127e-01
5.796399e-01
0.000000e+00
1.000000e+00
5.805021e-01
5.866654e-01
5.946629e-01
6.026588e-01
6.102481e-01
6.166399e-01
6.209713e-01
6.225522e-01
6.211412e-01
6.169760e-01
6.106527e-01
6.030634e-01
5.950310e-01
5.870644e-01
5.796715e-01
0.000000e+00
1.000000e+00
5.792149e-01
5.842673e-01
5.908513e-01
5.974393e-01
6.036921e-01
6.089565e-01
6.125216e-01
6.138188e-01
6.126424e-01
6.092138e-01
6.040214e-01
5.978017e-01
5.912023e-01
5.845945e-01
5.782019e-01
0.000000e+00
1.000000e+00
5.751823e-01
5.769205e-01
5.791712e-01
5.814462e-01
5.836039e-01
5.854176e-01
5.866400e-01
5.870735e-01
5.866412e-01
5.854213e-01
5.836226e-01
5.815490e-01
5.793731e-01
5.770559e-01
5.745114e-01
0.000000e+00
1.000000e+00
5.760228e-01
5.784720e-01
5.816153e-01
5.847932e-01
5.878073e-01
5.903413e-01
5.920502e-01
5.926584e-01
5.920600e-01
5.903650e-01
5.878701e-01
5.849560e-01
5.818415e-01
5.786316e-01
5.752007e-01
0.000000e+00
1.000000e+00
5.769814e-01
5.802757e-01
5.844628e-01
5.886920e-01
5.927039e-01
5.960776e-01
5.983546e-01
5.991688e-01
5.983797e-01
5.961349e-01
5.928314e-01
5.889232e-01
5.847207e-01
5.804652e-01
5.760650e-01
0.000000e+00
1.000000e+00
5.780442e-01
5.822929e-01
5.876467e-01
5.930513e-01
5.981788e-01
6.024917e-01
6.054050e-01
6.064508e-01
6.054490e-01
6.025920e-01
5.983882e-01
5.933344e-01
5.879395e-01
5.825138e-01
5.770299e-01
0.000000e+00
1.000000e+00
5.791718e-01
5.844370e-01
5.910337e-01
5.976888e-01
6.040031e-01
6.093158e-01
6.129069e-01
6.142003e-01
6.129738e-01
6.094734e-01
6.043090e-01
5.980074e-01
5.913618e-01
5.846847e-01
5.780487e-01
0.000000e+00
1.000000e+00
5.803136e-01
5.865905e-01
5.944404e-01
6.023533e-01
6.098615e-01
6.161802e-01
6.204547e-01
6.219997e-01
6.205518e-01
6.164099e-01
6.102567e-01
6.027254e-01
5.947993e-01
5.868626e-01
5.790832e-01
0.000000e+00
1.000000e+00
5.813936e-01
5.886097e-01
5.976408e-01
6.067358e-01
6.153662e-01
6.226317e-01
6.275511e-01
6.293373e-01
6.276871e-01
6.229385e-01
6.158326e-01
6.071897e-01
5.980286e-01
5.888981e-01
5.800563e-01
0.000000e+00
1.000000e+00
5.823393e-01
5.903389e-01
6.003898e-01
6.105004e-01
6.200957e-01
6.281767e-01
6.336550e-01
6.356557e-01
6.338351e-01
6.285516e-01
6.206202e-01
6.110302e-01
6.008297e-01
5.906320e-01
5.808907e-01
0.000000e+00
1.000000e+00
5.830589e-01
5.916407e-01
6.024635e-01
6.133369e-01
6.236560e-01
6.323496e-01
6.382511e-01
6.404222e-01
6.384764e-01
6.327655e-01
6.242202e-01
6.139043e-01
6.029664e-01
5.919360e-01
5.815132e-01
0.000000e+00
1.000000e+00
5.835345e-01
5.923738e-01
6.036676e-01
6.149825e-01
6.257219e-01
6.347741e-01
6.409274e-01
6.432067e-01
6.411990e-01
6.352068e-01
6.263095e-01
6.156234e-01
6.041469e-01
5.926474e-01
5.818602e-01
0.000000e+00
1.000000e+00
5.836924e-01
5.924811e-01
6.038986e-01
6.152977e-01
6.261194e-01
6.352448e-01
6.414522e-01
6.437595e-01
6.417495e-01
6.356861e-01
6.267323e-01
6.160026e-01
6.042960e-01
5.929182e-01
5.815204e-01
0.000000e+00
1.000000e+00
5.834846e-01
5.919684e-01
6.031397e-01
6.142603e-01
6.248194e-01
6.337236e-01
6.397791e-01
6.420286e-01
6.400727e-01
6.341831e-01
6.254306e-01
6.149021e-01
6.034685e-01
5.925745e-01
5.808698e-01
0.000000e+00
1.000000e+00
5.829139e-01
5.908976e-01
6.014598e-01
6.119629e-01
6.219350e-01
6.303416e-01
6.360522e-01
6.381650e-01
6.363220e-01
6.308043e-01
6.224904e-01
6.125037e-01
6.017662e-01
5.914945e-01
5.806062e-01
0.000000e+00
1.000000e+00
5.820314e-01
5.893593e-01
5.989916e-01
6.085848e-01
6.176919e-01
6.253650e-01
6.305698e-01
6.324833e-01
6.307991e-01
6.257823e-01
6.181722e-01
6.090424e-01
5.992942e-01
5.899066e-01
5.798305e-01
0.000000e+00
1.000000e+00
5.809243e-01
5.874470e-01
5.959067e-01
6.043614e-01
6.123862e-01
6.191445e-01
6.237231e-01
6.253940e-01
6.239003e-01
6.194922e-01
6.128032e-01
6.047546e-01
5.962178e-01
5.879130e-01
5.790951e-01
0.000000e+00
1.000000e+00
5.796987e-01
5.852507e-01
5.923911e-01
5.995478e-01
6.063399e-01
6.120580e-01
6.159291e-01
6.173345e-01
6.160557e-01
6.123314e-01
6.066840e-01
5.998962e-01
5.927200e-01
5.856197e-01
5.786299e-01
0.000000e+00
1.000000e+00
5.784415e-01
5.828728e-01
5.886240e-01
5.943900e-01
5.998620e-01
6.044674e-01
6.075831e-01
6.087114e-01
6.076686e-01
6.046649e-01
6.001362e-01
5.946997e-01
5.889292e-01
5.831774e-01
5.773385e-01
0.000000e+00
1.000000e+00
5.746685e-01
5.759622e-01
5.776571e-01
5.793732e-01
5.810009e-01
5.823691e-01
5.832908e-01
5.836163e-01
5.832873e-01
5.823615e-01
5.809888e-01
5.794241e-01
5.778614e-01
5.761109e-01
5.741516e-01
0.000000e+00
1.000000e+00
5.754398e-01
5.773819e-01
5.798921e-01
5.824339e-01
5.848448e-01
5.868719e-01
5.882386e-01
5.887239e-01
5.882414e-01
5.868772e-01
5.848644e-01
5.825733e-01
5.801398e-01
5.775554e-01
5.746168e-01
0.000000e+00
1.000000e+00
5.763248e-01
5.790499e-01
5.825220e-01
5.860349e-01
5.893672e-01
5.921693e-01
5.940599e-01
5.947341e-01
5.940743e-01
5.922020e-01
5.894528e-01
5.862719e-01
5.828030e-01
5.792468e-01
5.754134e-01
0.000000e+00
1.000000e+00
5.773196e-01
5.809300e-01
5.854894e-01
5.900978e-01
5.944700e-01
5.981473e-01
6.006299e-01
6.015188e-01
6.006605e-01
5.982161e-01
5.946417e-01
5.903946e-01
5.858009e-01
5.811598e-01
5.763269e-01
0.000000e+00
1.000000e+00
5.783769e-01
5.829444e-01
5.886682e-01
5.944504e-01
5.999365e-01
6.045518e-01
6.076700e-01
6.087903e-01
6.077200e-01
6.046651e-01
6.002043e-01
5.947860e-01
5.890048e-01
5.831999e-01
5.773005e-01
0.000000e+00
1.000000e+00
5.794461e-01
5.849795e-01
5.918832e-01
5.988525e-01
6.054657e-01
6.110305e-01
6.147929e-01
6.161492e-01
6.148659e-01
6.111953e-01
6.058136e-01
5.992477e-01
5.922348e-01
5.852540e-01
5.782837e-01
0.000000e+00
1.000000e+00
5.804629e-01
5.868968e-01
5.949169e-01
6.030068e-01
6.106837e-01
6.171454e-01
6.215176e-01
6.230998e-01
6.216189e-01
6.173660e-01
6.110967e-01
6.034818e-01
5.952827e-01
5.871845e-01
5.792068e-01
0.000000e+00
1.000000e+00
5.813485e-01
5.885541e-01
5.975366e-01
6.065926e-01
6.151856e-01
6.224188e-01
6.273160e-01
6.290968e-01
6.274526e-01
6.226938e-01
6.156492e-01
6.071269e-01
5.979223e-01
5.888427e-01
5.799927e-01
0.000000e+00
1.000000e+00
5.820354e-01
5.897933e-01
5.995090e-01
6.092902e-01
6.185708e-01
6.263845e-01
6.316803e-01
6.336183e-01
6.318645e-01
6.267138e-01
6.190853e-01
6.098505e-01
5.999291e-01
5.900978e-01
5.805816e-01
0.000000e+00
1.000000e+00
5.824771e-01
5.904988e-01
6.006561e-01
6.108584e-01
6.205387e-01
6.286912e-01
6.342217e-01
6.362566e-01
6.344477e-01
6.290542e-01
6.210706e-01
6.114470e-01
6.010646e-01
5.907865e-01
5.809704e-01
0.000000e+00
1.000000e+00
5.826033e-01
5.906090e-01
6.008711e-01
6.111519e-01
6.209076e-01
6.291261e-01
6.347047e-01
6.367637e-01
6.349500e-01
6.295118e-01
6.214440e-01
6.117705e-01
6.012170e-01
5.909451e-01
5.810362e-01
0.000000e+00
1.000000e+00
5.823882e-01
5.901213e-01
6.001358e-01
6.101463e-01
6.196468e-01
6.276510e-01
6.330835e-01
6.350868e-01
6.333234e-01
6.280514e-01
6.201628e-01
6.107041e-01
6.004396e-01
5.905185e-01
5.806334e-01
0.000000e+00
1.000000e+00
5.818389e-01
5.890880e-01
5.985153e-01
6.079297e-01
6.168651e-01
6.243919e-01
6.294963e-01
6.313708e-01
6.297113e-01
6.247827e-01
6.173278e-01
6.084005e-01
5.988055e-01
5.895041e-01
5.800741e-01
0.000000e+00
1.000000e+00
5.810054e-01
5.875952e-01
5.961385e-01
6.046776e-01
6.127817e-01
6.196062e-01
6.242295e-01
6.259170e-01
6.244034e-01
6.199453e-01
6.131860e-01
6.050741e-01
5.964208e-01
5.880087e-01
5.792961e-01
0.000000e+00
1.000000e+00
5.799652e-01
5.857420e-01
5.931738e-01
6.006193e-01
6.076852e-01
6.136334e-01
6.176592e-01
6.191197e-01
6.177871e-01
6.139085e-01
6.080381e-01
6.009539e-01
5.934592e-01
5.861197e-01
5.784902e-01
0.000000e+00
1.000000e+00
5.788077e-01
5.836254e-01
5.898019e-01
5.960030e-01
6.018873e-01
6.068395e-01
6.101890e-01