<?xml version="1.0"?>
<VTKFile type="StructuredGrid" version="0.1">
  <StructuredGrid WholeExtent="0 16 0 16 0 16">
    <Piece Extent="0 16 0 16 0 16">
      <PointData Scalars="temperature" Vectors="velocity">
        <DataArray type="Float32" Name="temperature" format="ascii">
1.000000e+00
5.657616e-01
5.579515e-01
5.494398e-01
5.407435e-01
5.325012e-01
5.255805e-01
5.209246e-01
5.192875e-01
5.209583e-01
5.256417e-01
5.325803e-01
5.408469e-01
5.495443e-01
5.580853e-01
5.655462e-01
0.000000e+00
1.000000e+00
5.666382e-01
5.597923e-01
5.523152e-01
5.446793e-01
5.374419e-01
5.313648e-01
5.272767e-01
5.258395e-01
5.273072e-01
5.314203e-01
5.375150e-01
5.447855e-01
5.524175e-01
5.599473e-01
5.662267e-01
0.000000e+00
1.000000e+00
5.676384e-01
5.618602e-01
5.555511e-01
5.491090e-01
5.430024e-01
5.378744e-01
5.344239e-01
5.332101e-01
5.344471e-01
5.379166e-01
5.430571e-01
5.492066e-01
5.556494e-01
5.620813e-01
5.669578e-01
0.000000e+00
1.000000e+00
5.687132e-01
5.640962e-01
5.590518e-01
5.539017e-01
5.490198e-01
5.449201e-01
5.421614e-01
5.411907e-01
5.421796e-01
5.449532e-01
5.490610e-01
5.539920e-01
5.591456e-01
5.643480e-01
5.678512e-01
0.000000e+00
1.000000e+00
5.698348e-01
5.664262e-01
5.626995e-01
5.588958e-01
5.552900e-01
5.522619e-01
5.502241e-01
5.495066e-01
5.502366e-01
5.522852e-01
5.553169e-01
5.589774e-01
5.627871e-01
5.666480e-01
5.689903e-01
0.000000e+00
1.000000e+00
5.709583e-01
5.687522e-01
5.663413e-01
5.638818e-01
5.615502e-01
5.595921e-01
5.582741e-01
5.578094e-01
5.582806e-01
5.596050e-01
5.615626e-01
5.639524e-01
5.664220e-01
5.689212e-01
5.702290e-01
0.000000e+00
1.000000e+00
5.720327e-01
5.709629e-01
5.698034e-01
5.686219e-01
5.675018e-01
5.665610e-01
5.659274e-01
5.657031e-01
5.659280e-01
5.665626e-01
5.674982e-01
5.686749e-01
5.698787e-01
5.710737e-01
5.715852e-01
0.000000e+00
1.000000e+00
5.730023e-01
5.729434e-01
5.729068e-01
5.728710e-01
5.728371e-01
5.728086e-01
5.727891e-01
5.727811e-01
5.727857e-01
5.728018e-01
5.728228e-01
5.728903e-01
5.729669e-01
5.730170e-01
5.727061e-01
0.000000e+00
1.000000e+00
5.738148e-01
5.745882e-01
5.754866e-01
5.764034e-01
5.772728e-01
5.780032e-01
5.784949e-01
5.786679e-01
5.784911e-01
5.779955e-01
5.772595e-01
5.764028e-01
5.755394e-01
5.746405e-01
5.735699e-01
0.000000e+00
1.000000e+00
5.744207e-01
5.758140e-01
5.774111e-01
5.790386e-01
5.805820e-01
5.818790e-01
5.827528e-01
5.830618e-01
5.827511e-01
5.818754e-01
5.805764e-01
5.790512e-01
5.774710e-01
5.758571e-01
5.742773e-01
0.000000e+00
1.000000e+00
5.747944e-01
5.765684e-01
5.785973e-01
5.806626e-01
5.826213e-01
5.842674e-01
5.853767e-01
5.857697e-01
5.853773e-01
5.842687e-01
5.826265e-01
5.806971e-01
5.786563e-01
5.766085e-01
5.747141e-01
0.000000e+00
1.000000e+00
5.749253e-01
5.768355e-01
5.790174e-01
5.812380e-01
5.833438e-01
5.851136e-01
5.863063e-01
5.867291e-01
5.863081e-01
5.851178e-01
5.833567e-01
5.812804e-01
5.790704e-01
5.768733e-01
5.748633e-01
0.000000e+00
1.000000e+00
5.748281e-01
5.766318e-01
5.786979e-01
5.808005e-01
5.827945e-01
5.844703e-01
5.855997e-01
5.860002e-01
5.856014e-01
5.844747e-01
5.828087e-01
5.808407e-01
5.787477e-01
5.766722e-01
5.747448e-01
0.000000e+00
1.000000e+00
5.745195e-01
5.760031e-01
5.777124e-01
5.794510e-01
5.810999e-01
5.824856e-01
5.834195e-01
5.837503e-01
5.834199e-01
5.824879e-01
5.811103e-01
5.794819e-01
5.777606e-01
5.760439e-01
5.743589e-01
0.000000e+00
1.000000e+00
5.740345e-01
5.750179e-01
5.761675e-01
5.773357e-01
5.784437e-01
5.793749e-01
5.800024e-01
5.802244e-01
5.800015e-01
5.793744e-01
5.784488e-01
5.773549e-01
5.762112e-01
5.750597e-01
5.738097e-01
0.000000e+00
1.000000e+00
5.734146e-01
5.737552e-01
5.741873e-01
5.746244e-01
5.750393e-01
5.753883e-01
5.756237e-01
5.757068e-01
5.756228e-01
5.753878e-01
5.750434e-01
5.746420e-01
5.742262e-01
5.738023e-01
5.732062e-01
0.000000e+00
1.000000e+00
5.727010e-01
5.722958e-01
5.718996e-01
5.714923e-01
5.711066e-01
5.707833e-01
5.705661e-01
5.704896e-01
5.705673e-01
5.707870e-01
5.711188e-01
5.715193e-01
5.719370e-01
5.723494e-01
5.725003e-01
0.000000e+00
1.000000e+00
5.650195e-01
5.562943e-01
5.468498e-01
5.371973e-01
5.280483e-01
5.203658e-01
5.151967e-01
5.133781e-01
5.152312e-01
5.204286e-01
5.281302e-01
5.372946e-01
5.469536e-01
5.565016e-01
5.646034e-01
0.000000e+00
1.000000e+00
5.658110e-01
5.580233e-01
5.495538e-01
5.408993e-01
5.326965e-01
5.258093e-01
5.211765e-01
5.195481e-01
5.212117e-01
5.258732e-01
5.327839e-01
5.410038e-01
5.496677e-01
5.583362e-01
5.650151e-01
0.000000e+00
1.000000e+00
5.667719e-01
5.600197e-01
5.526753e-01
5.451718e-01
5.380593e-01
5.320867e-01
5.280682e-01
5.266546e-01
5.280954e-01
5.321355e-01
5.381263e-01
5.452686e-01
5.527846e-01
5.603761e-01
5.657767e-01
0.000000e+00
1.000000e+00
5.678253e-01
5.622202e-01
5.561190e-01
5.498864e-01
5.439784e-01
5.390172e-01
5.356788e-01
5.345043e-01
5.357008e-01
5.390565e-01
5.440305e-01
5.499780e-01
5.562216e-01
5.625225e-01
5.668881e-01
0.000000e+00
1.000000e+00
5.689420e-01
5.645522e-01
5.597687e-01
5.548832e-01
5.502520e-01
5.463626e-01
5.437452e-01
5.428240e-01
5.437616e-01
5.463920e-01
5.502884e-01
5.549658e-01
5.598629e-01
5.647508e-01
5.682648e-01
0.000000e+00
1.000000e+00
5.700769e-01
5.669151e-01
5.634669e-01
5.599464e-01
5.566089e-01
5.538059e-01
5.519193e-01
5.512547e-01
5.519298e-01
5.538253e-01
5.566306e-01
5.600173e-01
5.635497e-01
5.670289e-01
5.696932e-01
0.000000e+00
1.000000e+00
5.711754e-01
5.691906e-01
5.670291e-01
5.648234e-01
5.627323e-01
5.609759e-01
5.597933e-01
5.593759e-01
5.597979e-01
5.609851e-01
5.627401e-01
5.648802e-01
5.671017e-01
5.692607e-01
5.710430e-01
0.000000e+00
1.000000e+00
5.721779e-01
5.712544e-01
5.702611e-01
5.692484e-01
5.682882e-01
5.674816e-01
5.669380e-01
5.667453e-01
5.669376e-01
5.674812e-01
5.682833e-01
5.692855e-01
5.703219e-01
5.713113e-01
5.720412e-01
0.000000e+00
1.000000e+00
5.730277e-01
5.729896e-01
5.729803e-01
5.729715e-01
5.729631e-01
5.729560e-01
5.729507e-01
5.729479e-01
5.729474e-01
5.729494e-01
5.729510e-01
5.729813e-01
5.730256e-01
5.730267e-01
5.728623e-01
0.000000e+00
1.000000e+00
5.736752e-01
5.743017e-01
5.750385e-01
5.757897e-01
5.765020e-01
5.771005e-01
5.775033e-01
5.776451e-01
5.775002e-01
5.770941e-01
5.764916e-01
5.757891e-01
5.750774e-01
5.743267e-01
5.736645e-01
0.000000e+00
1.000000e+00
5.740856e-01
5.751298e-01
5.763394e-01
5.775710e-01
5.787388e-01
5.797202e-01
5.803813e-01
5.806150e-01
5.803798e-01
5.797170e-01
5.787346e-01
5.775815e-01
5.763796e-01
5.751594e-01
5.740694e-01
0.000000e+00
1.000000e+00
5.742456e-01
5.754527e-01
5.768481e-01
5.782675e-01
5.796135e-01
5.807447e-01
5.815069e-01
5.817768e-01
5.815067e-01
5.807445e-01
5.796154e-01
5.782884e-01
5.768861e-01
5.754824e-01
5.741746e-01
0.000000e+00
1.000000e+00
5.741655e-01
5.752878e-01
5.765904e-01
5.779147e-01
5.791706e-01
5.802260e-01
5.809372e-01
5.811891e-01
5.809373e-01
5.802267e-01
5.791745e-01
5.779348e-01
5.766246e-01
5.753171e-01
5.741167e-01
0.000000e+00
1.000000e+00
5.738722e-01
5.746837e-01
5.756433e-01
5.766180e-01
5.775422e-01
5.783190e-01
5.788424e-01
5.790277e-01
5.788422e-01
5.783191e-01
5.775453e-01
5.766318e-01
5.756744e-01
5.747121e-01
5.737557e-01
0.000000e+00
1.000000e+00
5.733951e-01
5.737119e-01
5.741202e-01
5.745325e-01
5.749235e-01
5.752523e-01
5.754738e-01
5.755521e-01
5.754733e-01
5.752522e-01
5.749268e-01
5.745439e-01
5.741486e-01
5.737499e-01
5.731506e-01
0.000000e+00
1.000000e+00
5.727803e-01
5.724566e-01
5.721529e-01
5.718389e-01
5.715415e-01
5.712919e-01
5.711240e-01
5.710646e-01
5.711244e-01
5.712937e-01
5.715494e-01
5.718565e-01
5.721804e-01
5.725041e-01
5.725534e-01
0.000000e+00
1.000000e+00
5.720737e-01
5.710035e-01
5.698763e-01
5.687220e-01
5.676281e-01
5.667097e-01
5.660916e-01
5.658735e-01
5.660944e-01
5.667167e-01
5.676454e-01
5.687468e-01
5.699098e-01
5.710542e-01
5.719075e-01
0.000000e+00
1.000000e+00
5.643671e-01
5.549198e-01
5.446984e-01
5.342518e-01
5.243500e-01
5.160355e-01
5.104412e-01
5.084733e-01
5.104790e-01
5.161046e-01
5.244392e-01
5.343550e-01
5.448087e-01
5.551515e-01
5.639264e-01
0.000000e+00
1.000000e+00
5.651028e-01
5.565331e-01
5.472231e-01
5.377083e-01
5.286904e-01
5.211189e-01
5.160257e-01
5.142357e-01
5.160646e-01
5.211897e-01
5.287858e-01
5.378186e-01
5.473373e-01
5.568350e-01
5.645114e-01
0.000000e+00
1.000000e+00
5.660224e-01
5.584460e-01
5.502138e-01
5.418016e-01
5.338280e-01
5.271324e-01
5.226277e-01
5.210431e-01
5.226584e-01
5.271879e-01
5.339046e-01
5.418982e-01
5.503227e-01
5.587516e-01
5.652794e-01
0.000000e+00
1.000000e+00
5.670522e-01
5.605993e-01
5.535833e-01
5.464146e-01
5.396195e-01
5.339132e-01
5.300738e-01
5.287229e-01
5.300990e-01
5.339586e-01
5.396817e-01
5.465040e-01
5.536848e-01
5.608380e-01
5.662995e-01
0.000000e+00
1.000000e+00
5.681639e-01
5.629219e-01
5.572180e-01
5.513909e-01
5.458671e-01
5.412282e-01
5.381065e-01
5.370078e-01
5.381259e-01
5.412630e-01
5.459132e-01
5.514705e-01
5.573088e-01
5.630630e-01
5.676685e-01
0.000000e+00
1.000000e+00
5.693092e-01
5.653112e-01
5.609574e-01
5.565105e-01
5.522948e-01
5.487541e-01
5.463710e-01
5.455317e-01
5.463845e-01
5.487784e-01
5.523251e-01
5.565771e-01
5.610353e-01
5.653912e-01
5.690157e-01
0.000000e+00
1.000000e+00
5.704311e-01
5.676432e-01
5.646075e-01
5.615078e-01
5.585691e-01
5.561007e-01
5.544389e-01
5.538528e-01
5.544465e-01
5.561150e-01
5.585855e-01
5.615599e-01
5.646741e-01
5.676987e-01
5.703009e-01
0.000000e+00
1.000000e+00
5.714661e-01
5.697841e-01
5.679593e-01
5.660968e-01
5.643308e-01
5.628473e-01
5.618480e-01
5.614949e-01
5.618505e-01
5.628525e-01
5.643350e-01
5.661347e-01
5.680159e-01
5.698343e-01
5.713285e-01
0.000000e+00
1.000000e+00
5.723526e-01
5.716059e-01
5.708129e-01
5.700037e-01
5.692364e-01
5.685916e-01
5.681569e-01
5.680025e-01
5.681555e-01
5.685893e-01
5.692305e-01
5.700233e-01
5.708563e-01
5.716340e-01
5.721736e-01
0.000000e+00
1.000000e+00
5.730379e-01
5.730029e-01
5.730027e-01
5.730021e-01
5.730014e-01
5.730007e-01
5.729998e-01
5.729986e-01
5.729969e-01
5.729950e-01
5.729916e-01
5.730024e-01
5.730308e-01
5.730121e-01
5.730236e-01
0.000000e+00
1.000000e+00
5.734849e-01
5.739052e-01
5.744189e-01
5.749412e-01
5.754364e-01
5.758524e-01
5.761325e-01
5.762311e-01
5.761305e-01
5.758482e-01
5.754298e-01
5.749397e-01
5.744390e-01
5.739207e-01
5.734928e-01
0.000000e+00
1.000000e+00
5.736742e-01
5.742860e-01
5.750184e-01
5.757620e-01
5.764672e-01
5.770597e-01
5.774589e-01
5.776000e-01
5.774581e-01
5.770582e-01
5.764652e-01
5.757663e-01
5.750360e-01
5.743042e-01
5.736184e-01
0.000000e+00
1.000000e+00
5.736143e-01
5.741614e-01
5.748250e-01
5.754973e-01
5.761349e-01
5.766706e-01
5.770315e-01
5.771593e-01
5.770312e-01
5.766703e-01
5.761353e-01
5.755033e-01
5.748417e-01
5.741795e-01
5.735873e-01
0.000000e+00
1.000000e+00
5.733326e-01
5.735831e-01
5.739191e-01
5.742570e-01
5.745775e-01
5.748468e-01
5.750282e-01
5.750924e-01
5.750279e-01
5.748467e-01
5.745790e-01
5.742627e-01
5.739362e-01
5.736015e-01
5.732513e-01
0.000000e+00
1.000000e+00
5.728695e-01
5.726269e-01
5.724204e-01
5.722051e-01
5.720010e-01
5.718296e-01
5.717142e-01
5.716734e-01
5.717144e-01
5.718308e-01
5.720058e-01
5.722137e-01
5.724382e-01
5.726581e-01
5.726371e-01
0.000000e+00
1.000000e+00
5.722638e-01
5.713811e-01
5.704686e-01
5.695327e-01
5.686455e-01
5.679003e-01
5.673984e-01
5.672213e-01
5.674003e-01
5.679050e-01
5.686572e-01
5.695487e-01
5.704924e-01
5.714263e-01
5.720285e-01
0.000000e+00
1.000000e+00
5.715647e-01
5.699357e-01
5.682052e-01
5.664338e-01
5.647547e-01
5.633444e-01
5.623948e-01
5.620600e-01
5.623995e-01
5.633548e-01
5.647738e-01
5.664560e-01
5.682376e-01
5.699811e-01
5.713959e-01
0.000000e+00
1.000000e+00
5.638869e-01
5.539070e-01
5.431141e-01
5.320827e-01
5.216269e-01
5.128473e-01
5.069406e-01
5.048632e-01
5.069818e-01
5.129232e-01
5.217228e-01
5.321915e-01
5.432350e-01
5.541341e-01
5.634562e-01
0.000000e+00
1.000000e+00
5.645708e-01
5.554064e-01
5.454613e-01
5.352963e-01
5.256623e-01
5.175736e-01
5.121327e-01
5.102206e-01
5.121748e-01
5.176507e-01
5.257616e-01
5.354153e-01
5.455806e-01
5.556602e-01
5.640923e-01
0.000000e+00
1.000000e+00
5.654471e-01
5.572331e-01
5.483173e-01
5.392052e-01
5.305683e-01
5.233160e-01
5.184369e-01
5.167210e-01
5.184710e-01
5.233778e-01
5.306490e-01
5.393095e-01
5.484273e-01
5.574702e-01
5.648774e-01
0.000000e+00
1.000000e+00
5.664509e-01
5.593344e-01
5.516051e-01
5.437063e-01
5.362191e-01
5.299320e-01
5.257018e-01
5.242137e-01
5.257303e-01
5.299833e-01
5.362861e-01
5.438002e-01
5.517073e-01
5.595203e-01
5.658495e-01
0.000000e+00
1.000000e+00
5.675545e-01
5.616414e-01
5.552150e-01
5.486484e-01
5.424238e-01
5.371964e-01
5.336789e-01
5.324410e-01
5.337011e-01
5.372364e-01
5.424749e-01
5.487303e-01
5.553046e-01
5.617499e-01
5.671763e-01
0.000000e+00
1.000000e+00
5.687086e-01
5.640502e-01
5.589846e-01
5.538093e-01
5.489033e-01
5.447828e-01
5.420097e-01
5.410331e-01
5.420256e-01
5.448115e-01
5.489386e-01
5.538759e-01
5.590590e-01
5.641176e-01
5.685108e-01
0.000000e+00
1.000000e+00
5.698521e-01
5.664317e-01
5.627119e-01
5.589124e-01
5.553102e-01
5.522845e-01
5.502477e-01
5.495297e-01
5.502576e-01
5.523026e-01
5.553313e-01
5.589622e-01
5.627726e-01
5.664871e-01
5.697705e-01
0.000000e+00
1.000000e+00
5.709184e-01
5.686434e-01
5.661741e-01
5.636525e-01
5.612617e-01
5.592532e-01
5.579006e-01
5.574230e-01
5.579052e-01
5.592620e-01
5.612708e-01
5.636866e-01
5.662232e-01
5.686967e-01
5.707790e-01
0.000000e+00
1.000000e+00
5.718406e-01
5.705465e-01
5.691542e-01
5.677327e-01
5.663847e-01
5.652520e-01
5.644888e-01
5.642186e-01
5.644892e-01
5.652532e-01
5.663842e-01
5.677516e-01
5.691915e-01
5.705756e-01
5.716440e-01
0.000000e+00
1.000000e+00
5.725614e-01
5.720243e-01
5.714697e-01
5.709029e-01
5.703654e-01
5.699135e-01
5.696088e-01
5.695003e-01
5.696070e-01
5.699100e-01
5.703586e-01
5.709063e-01
5.714921e-01
5.720252e-01
5.725414e-01
0.000000e+00
1.000000e+00
5.730421e-01
5.729978e-01
5.729966e-01
5.729935e-01
5.729906e-01
5.729880e-01
5.729861e-01
5.729849e-01
5.729844e-01
5.729844e-01
5.729841e-01
5.729880e-01
5.730054e-01
5.730021e-01
5.730634e-01
0.000000e+00
1.000000e+00
5.732598e-01
5.734346e-01
5.736834e-01
5.739340e-01
5.741716e-01
5.743713e-01
5.745057e-01
5.745531e-01
5.745051e-01
5.743699e-01
5.741689e-01
5.739319e-01
5.736884e-01
5.734427e-01
5.732229e-01
0.000000e+00
1.000000e+00
5.732199e-01
5.733491e-01
5.735517e-01
5.737537e-01
5.739452e-01
5.741061e-01
5.742145e-01
5.742529e-01
5.742145e-01
5.741061e-01
5.739447e-01
5.737536e-01
5.735560e-01
5.733578e-01
5.732083e-01
0.000000e+00
1.000000e+00
5.729490e-01
5.727946e-01
5.726843e-01
5.725660e-01
5.724539e-01
5.723597e-01
5.722963e-01
5.722738e-01
5.722963e-01
5.723601e-01
5.724547e-01
5.725667e-01
5.726889e-01
5.728025e-01
5.729047e-01
0.000000e+00
1.000000e+00
5.724899e-01
5.718513e-01
5.712064e-01
5.705428e-01
5.699136e-01
5.693850e-01
5.690290e-01
5.689031e-01
5.690299e-01
5.693874e-01
5.699188e-01
5.705484e-01
5.712168e-01
5.718762e-01
5.722879e-01
0.000000e+00
1.000000e+00
5.718933e-01
5.706122e-01
5.692651e-01
5.678849e-01
5.665765e-01
5.654773e-01
5.647373e-01
5.644762e-01
5.647404e-01
5.654842e-01
5.665882e-01
5.678982e-01
5.692859e-01
5.706522e-01
5.716621e-01
0.000000e+00
1.000000e+00
5.712068e-01
5.691715e-01
5.670088e-01
5.647958e-01
5.626980e-01
5.609359e-01
5.597498e-01
5.593317e-01
5.597560e-01
5.609487e-01
5.627165e-01
5.648155e-01
5.670354e-01
5.692094e-01
5.710255e-01
0.000000e+00
1.000000e+00
5.636140e-01
5.533289e-01
5.422102e-01
5.308451e-01
5.200732e-01
5.110286e-01
5.049440e-01
5.028046e-01
5.049880e-01
5.111102e-01
5.201752e-01
5.309592e-01
5.423419e-01
5.535461e-01
5.631920e-01
0.000000e+00
1.000000e+00
5.642533e-01
5.547252e-01
5.443966e-01
5.338386e-01
5.238322e-01
5.154310e-01
5.097802e-01
5.077946e-01
5.098246e-01
5.155129e-01
5.239337e-01
5.339673e-01
5.445234e-01
5.549266e-01
5.638743e-01
0.000000e+00
1.000000e+00
5.650891e-01
5.564722e-01
5.471282e-01
5.375772e-01
5.285246e-01
5.209235e-01
5.158101e-01
5.140122e-01
5.158469e-01
5.209908e-01
5.286068e-01
5.376950e-01
5.472410e-01
5.566427e-01
5.647165e-01
0.000000e+00
1.000000e+00
5.660680e-01
5.585244e-01
5.503388e-01
5.419727e-01
5.340427e-01
5.273838e-01
5.229040e-01
5.213283e-01
5.229350e-01
5.274402e-01
5.341108e-01
5.420794e-01
5.504414e-01
5.586633e-01
5.656445e-01
0.000000e+00
1.000000e+00
5.671628e-01
5.608152e-01
5.539230e-01
5.468796e-01
5.402030e-01
5.345963e-01
5.308238e-01
5.294964e-01
5.308484e-01
5.346409e-01
5.402560e-01
5.469719e-01
5.540128e-01
5.609033e-01
5.669211e-01
0.000000e+00
1.000000e+00
5.683242e-01
5.632403e-01
5.577179e-01
5.520750e-01
5.467257e-01
5.422332e-01
5.392099e-01
5.381455e-01
5.392279e-01
5.422657e-01
5.467634e-01
5.521502e-01
5.577930e-01
5.633082e-01
5.681945e-01
0.000000e+00
1.000000e+00
5.694882e-01
5.656662e-01
5.615145e-01
5.572729e-01
5.532517e-01
5.498741e-01
5.476006e-01
5.467994e-01
5.476122e-01
5.498952e-01
5.532752e-01
5.573293e-01
5.615763e-01
5.657335e-01
5.693734e-01
0.000000e+00
1.000000e+00
5.705841e-01
5.679425e-01
5.650774e-01
5.621509e-01
5.593763e-01
5.570454e-01
5.554758e-01
5.549219e-01
5.554817e-01
5.570564e-01
5.593875e-01
5.621889e-01
5.651271e-01
5.680076e-01
5.703770e-01
0.000000e+00
1.000000e+00
5.715406e-01
5.699199e-01
5.681736e-01
5.663900e-01
5.646988e-01
5.632777e-01
5.623204e-01
5.619818e-01
5.623218e-01
5.632807e-01
5.647003e-01
5.664101e-01
5.682105e-01
5.699576e-01
5.713010e-01
0.000000e+00
1.000000e+00
5.722952e-01
5.714716e-01
5.706041e-01
5.697177e-01
5.688771e-01
5.681707e-01
5.676944e-01
5.675253e-01
5.676931e-01
5.681682e-01
5.688718e-01
5.697224e-01
5.706266e-01
5.714761e-01
5.722290e-01
0.000000e+00
1.000000e+00
5.728069e-01
5.725096e-01
5.722313e-01
5.719458e-01
5.716749e-01
5.714472e-01
5.712934e-01
5.712385e-01
5.712917e-01
5.714434e-01
5.716681e-01
5.719395e-01
5.722375e-01
5.725101e-01
5.728065e-01
0.000000e+00
1.000000e+00
5.730505e-01
5.729959e-01
5.729956e-01
5.729922e-01
5.729889e-01
5.729861e-01
5.729840e-01
5.729831e-01
5.729832e-01
5.729841e-01
5.729851e-01
5.729871e-01
5.729943e-01
5.729965e-01
5.730193e-01
0.000000e+00
1.000000e+00
5.730294e-01
5.729435e-01
5.729156e-01
5.728827e-01
5.728514e-01
5.728250e-01
5.728072e-01
5.728009e-01
5.728071e-01
5.728245e-01
5.728497e-01
5.728797e-01
5.729128e-01
5.729454e-01
5.730241e-01
0.000000e+00
1.000000e+00
5.727703e-01
5.724070e-01
5.720768e-01
5.717341e-01
5.714091e-01
5.711360e-01
5.709520e-01
5.708868e-01
5.709519e-01
5.711360e-01
5.714085e-01
5.717320e-01
5.720765e-01
5.724103e-01
5.727601e-01
0.000000e+00
1.000000e+00
5.723140e-01
5.714701e-01
5.706097e-01
5.697255e-01
5.688871e-01
5.681827e-01
5.677081e-01
5.675403e-01
5.677089e-01
5.681846e-01
5.688902e-01
5.697282e-01
5.706174e-01
5.714857e-01
5.721411e-01
0.000000e+00
1.000000e+00
5.717127e-01
5.702301e-01
5.686675e-01
5.670665e-01
5.655486e-01
5.642734e-01
5.634146e-01
5.631114e-01
5.634175e-01
5.642795e-01
5.655574e-01
5.670762e-01
5.686833e-01
5.702592e-01
5.715176e-01
0.000000e+00
1.000000e+00
5.710185e-01
5.687854e-01
5.664049e-01
5.639687e-01
5.616593e-01
5.597196e-01
5.584136e-01
5.579531e-01
5.584196e-01
5.597317e-01
5.616753e-01
5.639853e-01
5.664264e-01
5.688178e-01
5.708474e-01
0.000000e+00
1.000000e+00
5.635727e-01
5.532399e-01
5.420714e-01
5.306549e-01
5.198346e-01
5.107498e-01
5.046386e-01
5.024904e-01
5.046844e-01
5.108353e-01
5.199412e-01
5.307762e-01
5.421908e-01
5.534208e-01
5.632473e-01
0.000000e+00
1.000000e+00
5.641786e-01
5.545538e-01
5.441291e-01
5.334721e-01
5.233722e-01
5.148926e-01
5.091893e-01
5.071857e-01
5.092350e-01
5.149773e-01
5.234759e-01
5.336110e-01
5.442423e-01
5.546928e-01
5.639598e-01
0.000000e+00
1.000000e+00
5.649815e-01
5.562369e-01
5.467610e-01
5.370747e-01
5.278938e-01
5.201855e-01
5.150002e-01
5.131775e-01
5.150389e-01
5.202565e-01
5.279788e-01
5.372046e-01
5.468664e-01
5.563522e-01
5.647886e-01
0.000000e+00
1.000000e+00
5.659411e-01
5.582508e-01
5.499116e-01
5.413878e-01
5.333086e-01
5.265247e-01
5.219610e-01
5.203563e-01
5.219939e-01
5.265847e-01
5.333794e-01
5.415058e-01
5.500078e-01
5.583574e-01
5.656926e-01
0.000000e+00
1.000000e+00
5.670298e-01
5.605310e-01
5.534792e-01
5.462720e-01
5.394404e-01
5.337036e-01
5.298439e-01
5.284862e-01
5.298702e-01
5.337515e-01
5.394967e-01
5.463744e-01
5.535642e-01
5.606213e-01
5.668308e-01
0.000000e+00
1.000000e+00
5.681986e-01
5.629735e-01
5.573009e-01
5.515042e-01
5.460091e-01
5.413943e-01
5.382890e-01
5.371960e-01
5.383084e-01
5.414296e-01
5.460507e-01
5.515893e-01
5.573745e-01
5.630608e-01
5.680033e-01
0.000000e+00
1.000000e+00
5.693820e-01
5.654408e-01
5.611620e-01
5.567903e-01
5.526458e-01
5.491649e-01
5.468219e-01
5.459965e-01
5.468346e-01
5.491880e-01
5.526729e-01
5.568570e-01
5.612239e-01
5.655280e-01
5.691731e-01
0.000000e+00
1.000000e+00
5.705052e-01
5.677753e-01
5.648160e-01
5.617930e-01
5.589269e-01
5.565193e-01
5.548982e-01
5.543262e-01
5.549047e-01
5.565315e-01
5.589405e-01
5.618413e-01
5.648657e-01
5.678579e-01
5.702093e-01
0.000000e+00
1.000000e+00
5.714931e-01
5.698188e-01
5.680152e-01
5.661732e-01
5.644266e-01
5.629591e-01
5.619705e-01
5.616208e-01
5.619720e-01
5.629623e-01
5.644289e-01
5.662023e-01
5.680522e-01
5.698706e-01
5.711741e-01
0.000000e+00
1.000000e+00
5.722789e-01
5.714345e-01
5.705458e-01
5.696380e-01
5.687770e-01
5.680534e-01
5.675656e-01
5.673923e-01
5.675640e-01
5.680503e-01
5.687708e-01
5.696481e-01
5.705699e-01
5.714492e-01
5.721550e-01
0.000000e+00
1.000000e+00
5.728178e-01
5.725266e-01
5.722576e-01
5.719818e-01
5.717201e-01
5.715001e-01
5.713515e-01
5.712982e-01
5.713493e-01
5.714954e-01
5.717120e-01
5.719777e-01
5.722664e-01
5.725320e-01
5.727761e-01
0.000000e+00
1.000000e+00
5.730823e-01
5.730520e-01
5.730829e-01
5.731119e-01
5.731393e-01
5.731622e-01
5.731775e-01
5.731825e-01
5.731762e-01
5.731595e-01
5.731347e-01
5.731071e-01
5.730833e-01
5.730527e-01
5.730181e-01
0.000000e+00
1.000000e+00
5.730751e-01
5.730222e-01
5.730383e-01
5.730508e-01
5.730625e-01
5.730723e-01
5.730788e-01
5.730809e-01
5.730783e-01
5.730713e-01
5.730606e-01
5.730479e-01
5.730360e-01
5.730215e-01
5.730662e-01
0.000000e+00
1.000000e+00
5.728239e-01
5.724934e-01
5.722112e-01
5.719182e-01
5.716404e-01
5.714068e-01
5.712494e-01
5.711935e-01
5.712491e-01
5.714064e-01
5.716394e-01
5.719160e-01
5.722107e-01
5.724982e-01
5.728352e-01
0.000000e+00
1.000000e+00
5.723713e-01
5.715522e-01
5.707374e-01
5.699004e-01
5.691068e-01
5.684398e-01
5.679905e-01
5.678314e-01
5.679908e-01
5.684410e-01
5.691087e-01
5.699023e-01
5.707442e-01
5.715675e-01
5.722238e-01
0.000000e+00
1.000000e+00
5.717708e-01
5.703001e-01
5.687759e-01
5.672150e-01
5.657350e-01
5.644916e-01
5.636541e-01
5.633582e-01
5.636563e-01
5.644965e-01
5.657420e-01
5.672233e-01
5.687906e-01
5.703212e-01
5.716420e-01
0.000000e+00
1.000000e+00
5.710796e-01
5.688395e-01
5.664872e-01
5.640814e-01
5.618007e-01
5.598850e-01
5.585951e-01
5.581399e-01
5.586002e-01
5.598956e-01
5.618143e-01
5.640954e-01
5.665058e-01
5.688559e-01
5.709204e-01
0.000000e+00
1.000000e+00
5.637742e-01
5.536673e-01
5.427407e-01
5.315710e-01
5.209849e-01
5.120971e-01
5.061190e-01
5.040182e-01
5.061656e-01
5.121844e-01
5.210942e-01
5.316952e-01
5.428435e-01
5.538073e-01
5.635951e-01
0.000000e+00
1.000000e+00
5.643608e-01
5.549276e-01
5.447141e-01
5.342729e-01
5.243774e-01
5.160698e-01
5.104824e-01
5.085198e-01
5.105281e-01
5.161548e-01
5.244828e-01
5.344123e-01
5.448137e-01
5.550268e-01
5.642722e-01
0.000000e+00
1.000000e+00
5.651419e-01
5.565703e-01
5.472833e-01
5.377897e-01
5.287918e-01
5.212373e-01
5.161559e-01
5.143703e-01
5.161953e-01
5.213099e-01
5.288800e-01
5.379230e-01
5.473725e-01
5.566544e-01
5.650653e-01
0.000000e+00
1.000000e+00
5.660913e-01
5.585635e-01
5.504014e-01
5.420585e-01
5.341507e-01
5.275111e-01
5.230449e-01
5.214750e-01
5.230786e-01
5.275729e-01
5.342253e-01
5.421802e-01
5.504854e-01
5.586550e-01
5.659701e-01
0.000000e+00
1.000000e+00
5.671800e-01
5.608444e-01
5.539698e-01
5.469437e-01
5.402839e-01
5.346916e-01
5.309295e-01
5.296067e-01
5.309566e-01
5.347411e-01
5.403442e-01
5.470510e-01
5.540493e-01
5.609493e-01
5.669760e-01
0.000000e+00
1.000000e+00
5.683581e-01
5.633085e-01
5.578254e-01
5.522223e-01
5.469109e-01
5.424506e-01
5.394494e-01
5.383936e-01
5.394695e-01
5.424871e-01
5.469564e-01
5.523141e-01
5.578980e-01
5.634189e-01
5.680777e-01
0.000000e+00
1.000000e+00
5.695594e-01
5.658155e-01
5.617486e-01
5.575935e-01
5.536544e-01
5.503461e-01
5.481196e-01
5.473356e-01
5.481326e-01
5.503699e-01
5.536847e-01
5.576690e-01
5.618115e-01
5.659210e-01
5.692876e-01
0.000000e+00
1.000000e+00
5.707078e-01
5.682020e-01
5.654836e-01
5.627071e-01
5.600748e-01
5.578637e-01
5.563750e-01
5.558498e-01
5.563812e-01
5.578755e-01
5.600899e-01
5.627659e-01
5.655379e-01
5.683041e-01
5.703441e-01
0.000000e+00
1.000000e+00
5.717238e-01
5.703016e-01
5.687705e-01
5.672074e-01
5.657252e-01
5.644799e-01
5.636409e-01
5.633439e-01
5.636415e-01
5.644813e-01
5.657259e-01
5.672474e-01
5.688156e-01
5.703740e-01
5.713379e-01
0.000000e+00
1.000000e+00
5.725364e-01
5.719692e-01
5.713825e-01
5.707837e-01
5.702157e-01
5.697383e-01
5.694162e-01
5.693012e-01
5.694134e-01
5.697327e-01
5.702059e-01
5.707999e-01
5.714140e-01
5.720013e-01
5.723609e-01
0.000000e+00
1.000000e+00
5.730968e-01
5.731021e-01
5.731588e-01
5.732158e-01
5.732698e-01
5.733150e-01
5.733450e-01
5.733548e-01
5.733421e-01
5.733088e-01
5.732595e-01
5.732140e-01
5.731758e-01
5.731196e-01
5.730072e-01
0.000000e+00
1.000000e+00
5.733745e-01
5.736534e-01
5.740250e-01
5.744019e-01
5.747592e-01
5.750594e-01
5.752615e-01
5.753326e-01
5.752601e-01
5.750567e-01
5.747550e-01
5.744005e-01
5.740342e-01
5.736630e-01
5.732587e-01
0.000000e+00
1.000000e+00
5.733716e-01
5.736331e-01
5.739956e-01
5.743615e-01
5.747085e-01
5.750000e-01
5.751964e-01
5.752660e-01
5.751963e-01
5.749998e-01
5.747079e-01
5.743618e-01
5.740007e-01
5.736384e-01
5.733473e-01
0.000000e+00
1.000000e+00
5.731164e-01
5.730986e-01
5.731597e-01
5.732170e-01
5.732712e-01
5.733168e-01
5.733474e-01
5.733582e-01
5.733473e-01
5.733167e-01
5.732707e-01
5.732160e-01
5.731631e-01
5.731040e-01
5.731213e-01
0.000000e+00
1.000000e+00
5.726526e-01
5.721395e-01
5.716578e-01
5.711605e-01
5.706889e-01
5.702926e-01
5.700255e-01
5.699308e-01
5.700254e-01
5.702929e-01
5.706900e-01
5.711616e-01
5.716650e-01
5.721479e-01
5.725012e-01
0.000000e+00
1.000000e+00
5.720353e-01
5.708606e-01
5.696541e-01
5.684173e-01
5.672447e-01
5.662594e-01
5.655957e-01
5.653609e-01
5.655967e-01
5.662626e-01
5.672507e-01
5.684249e-01
5.696713e-01
5.708720e-01
5.720048e-01
0.000000e+00
1.000000e+00
5.713280e-01
5.693676e-01
5.673147e-01
5.652144e-01
5.632234e-01
5.615509e-01
5.604247e-01
5.600270e-01
5.604285e-01
5.615593e-01
5.632351e-01
5.652271e-01
5.673353e-01
5.693685e-01
5.712554e-01
0.000000e+00
1.000000e+00
5.642151e-01
5.546051e-01
5.442083e-01
5.335800e-01
5.235072e-01
5.150508e-01
5.093632e-01
5.073653e-01
5.094094e-01
5.151374e-01
5.236158e-01
5.337025e-01
5.443031e-01
5.547817e-01
5.641061e-01
0.000000e+00
1.000000e+00
5.647975e-01
5.558448e-01
5.461490e-01
5.362370e-01
5.268432e-01
5.189568e-01
5.136530e-01
5.117905e-01
5.136976e-01
5.190397e-01
5.269472e-01
5.363696e-01
5.462429e-01
5.559374e-01
5.647434e-01
0.000000e+00
1.000000e+00
5.655713e-01
5.574751e-01
5.486990e-01
5.397280e-01
5.312254e-01
5.240870e-01
5.192859e-01
5.175994e-01
5.193249e-01
5.241589e-01
5.313146e-01
5.398553e-01
5.487854e-01
5.575538e-01
5.655293e-01
0.000000e+00
1.000000e+00
5.665209e-01
5.594690e-01
5.518182e-01
5.439981e-01
5.365862e-01
5.303630e-01
5.261773e-01
5.247067e-01
5.262107e-01
5.304243e-01
5.366624e-01
5.441165e-01
5.519001e-01
5.595592e-01
5.664680e-01
0.000000e+00
1.000000e+00
5.676168e-01
5.617642e-01
5.554091e-01
5.489143e-01
5.427582e-01
5.375890e-01
5.341119e-01
5.328900e-01
5.341387e-01
5.376380e-01
5.428204e-01
5.490223e-01
5.554880e-01
5.618846e-01
5.674310e-01
0.000000e+00
1.000000e+00
5.688072e-01
5.642560e-01
5.593080e-01
5.542523e-01
5.494598e-01
5.454355e-01
5.427279e-01
5.417759e-01
5.427476e-01
5.454712e-01
5.495071e-01
5.543487e-01
5.593845e-01
5.643952e-01
5.684808e-01
0.000000e+00
1.000000e+00
5.700267e-01
5.668017e-01
5.632913e-01
5.597058e-01
5.563068e-01
5.534523e-01
5.515314e-01
5.508551e-01
5.515434e-01
5.534746e-01
5.563377e-01
5.597905e-01
5.633644e-01
5.669373e-01
5.696899e-01
0.000000e+00
1.000000e+00
5.711989e-01
5.692328e-01
5.670961e-01
5.649150e-01
5.628472e-01
5.611104e-01
5.599410e-01
5.595282e-01
5.599454e-01
5.611190e-01
5.628598e-01
5.649868e-01
5.671638e-01
5.693612e-01
5.707702e-01
0.000000e+00
1.000000e+00
5.722403e-01
5.713768e-01
5.704530e-01
5.695110e-01
5.686179e-01
5.678675e-01
5.673616e-01
5.671818e-01
5.673598e-01
5.678638e-01
5.686118e-01
5.695603e-01
5.705081e-01
5.714720e-01
5.717870e-01
0.000000e+00
1.000000e+00
5.730751e-01
5.730823e-01
5.731252e-01
5.731698e-01
5.732121e-01
5.732473e-01
5.732705e-01
5.732772e-01
5.732657e-01
5.732375e-01
5.731961e-01
5.731844e-01
5.731652e-01
5.731331e-01
5.728012e-01
0.000000e+00
1.000000e+00
5.736507e-01
5.742416e-01
5.749438e-01
5.756599e-01
5.763390e-01
5.769094e-01
5.772933e-01
5.774281e-01
5.772894e-01
5.769016e-01
5.763281e-01
5.756628e-01
5.749761e-01
5.742731e-01
5.734917e-01
0.000000e+00
1.000000e+00
5.739344e-01
5.748045e-01
5.758294e-01
5.768725e-01
5.778616e-01
5.786927e-01
5.792525e-01
5.794503e-01
5.792509e-01
5.786899e-01
5.778607e-01
5.768825e-01
5.758565e-01
5.748283e-01
5.737720e-01
0.000000e+00
1.000000e+00
5.739279e-01
5.747802e-01
5.757946e-01
5.768247e-01
5.778016e-01
5.786225e-01
5.791756e-01
5.793715e-01
5.791756e-01
5.786228e-01
5.778049e-01
5.768359e-01
5.758156e-01
5.747991e-01
5.738470e-01
0.000000e+00
1.000000e+00
5.736588e-01
5.742269e-01
5.749299e-01
5.756407e-01
5.763148e-01
5.768812e-01
5.772628e-01
5.773978e-01
5.772626e-01
5.768813e-01
5.763165e-01
5.756464e-01
5.749467e-01
5.742470e-01
5.736404e-01
0.000000e+00
1.000000e+00
5.731718e-01
5.732367e-01
5.733791e-01
5.735174e-01
5.736484e-01
5.737585e-01
5.738326e-01
5.738585e-01
5.738318e-01
5.737579e-01
5.736491e-01
5.735204e-01
5.733937e-01
5.732526e-01
5.729988e-01
0.000000e+00
1.000000e+00
5.725248e-01
5.719174e-01
5.713115e-01
5.706866e-01
5.700942e-01
5.695964e-01
5.692610e-01