<?xml version="1.0"?>
<VTKFile type="StructuredGrid" version="0.1">
  <StructuredGrid WholeExtent="0 16 0 16 0 16">
    <Piece Extent="0 16 0 16 0 16">
      <PointData Scalars="temperature" Vectors="velocity">
        <DataArray type="Float32" Name="temperature" format="ascii">
1.000000e+00
5.651981e-01
5.568706e-01
5.477480e-01
5.384275e-01
5.295950e-01
5.221808e-01
5.171955e-01
5.154455e-01
5.172392e-01
5.222613e-01
5.296992e-01
5.385625e-01
5.478488e-01
5.569693e-01
5.652136e-01
0.000000e+00
1.000000e+00
5.660514e-01
5.586700e-01
5.505553e-01
5.422692e-01
5.344164e-01
5.278243e-01
5.233919e-01
5.218364e-01
5.234318e-01
5.278975e-01
5.345125e-01
5.423973e-01
5.506368e-01
5.587385e-01
5.660663e-01
0.000000e+00
1.000000e+00
5.670468e-01
5.607211e-01
5.537631e-01
5.466602e-01
5.399278e-01
5.342754e-01
5.304741e-01
5.291394e-01
5.305066e-01
5.343352e-01
5.400083e-01
5.467752e-01
5.538391e-01
5.607855e-01
5.670331e-01
0.000000e+00
1.000000e+00
5.681366e-01
5.629741e-01
5.572896e-01
5.514886e-01
5.459899e-01
5.413729e-01
5.382674e-01
5.371767e-01
5.382930e-01
5.414199e-01
5.460560e-01
5.515910e-01
5.573614e-01
5.630366e-01
5.681106e-01
0.000000e+00
1.000000e+00
5.692882e-01
5.653591e-01
5.610235e-01
5.566010e-01
5.524087e-01
5.488885e-01
5.465203e-01
5.456879e-01
5.465387e-01
5.489225e-01
5.524595e-01
5.566917e-01
5.610904e-01
5.654137e-01
5.691948e-01
0.000000e+00
1.000000e+00
5.704666e-01
5.677816e-01
5.648167e-01
5.617944e-01
5.589295e-01
5.565237e-01
5.549050e-01
5.543354e-01
5.549163e-01
5.565453e-01
5.589642e-01
5.618764e-01
5.648811e-01
5.678139e-01
5.704674e-01
0.000000e+00
1.000000e+00
5.716209e-01
5.701302e-01
5.684960e-01
5.668319e-01
5.652546e-01
5.639302e-01
5.630389e-01
5.627246e-01
5.630435e-01
5.639398e-01
5.652708e-01
5.669078e-01
5.685592e-01
5.701559e-01
5.717069e-01
0.000000e+00
1.000000e+00
5.726800e-01
5.722884e-01
5.718788e-01
5.714637e-01
5.710704e-01
5.707404e-01
5.705184e-01
5.704398e-01
5.705185e-01
5.707405e-01
5.710691e-01
5.715192e-01
5.719358e-01
5.723225e-01
5.726891e-01
0.000000e+00
1.000000e+00
5.735935e-01
5.741463e-01
5.747921e-01
5.754528e-01
5.760794e-01
5.766062e-01
5.769612e-01
5.770866e-01
5.769599e-01
5.766033e-01
5.760723e-01
5.754751e-01
5.748501e-01
5.741889e-01
5.735619e-01
0.000000e+00
1.000000e+00
5.743258e-01
5.756108e-01
5.770913e-01
5.786010e-01
5.800328e-01
5.812363e-01
5.820475e-01
5.823348e-01
5.820471e-01
5.812348e-01
5.800324e-01
5.786350e-01
5.771583e-01
5.756482e-01
5.742435e-01
0.000000e+00
1.000000e+00
5.748377e-01
5.766190e-01
5.786772e-01
5.807724e-01
5.827594e-01
5.844296e-01
5.855555e-01
5.859548e-01
5.855564e-01
5.844328e-01
5.827786e-01
5.808305e-01
5.787441e-01
5.766449e-01
5.745953e-01
0.000000e+00
1.000000e+00
5.751059e-01
5.771441e-01
5.795053e-01
5.819063e-01
5.841833e-01
5.860973e-01
5.873877e-01
5.878457e-01
5.873901e-01
5.861057e-01
5.842180e-01
5.819682e-01
5.795688e-01
5.771860e-01
5.747462e-01
0.000000e+00
1.000000e+00
5.751383e-01
5.771943e-01
5.795864e-01
5.820175e-01
5.843230e-01
5.862609e-01
5.875675e-01
5.880313e-01
5.875701e-01
5.862690e-01
5.843604e-01
5.820790e-01
5.796501e-01
5.772465e-01
5.748175e-01
0.000000e+00
1.000000e+00
5.749464e-01
5.768086e-01
5.789800e-01
5.811871e-01
5.832802e-01
5.850396e-01
5.862257e-01
5.866465e-01
5.862272e-01
5.850428e-01
5.833071e-01
5.812447e-01
5.790447e-01
5.768636e-01
5.746380e-01
0.000000e+00
1.000000e+00
5.745674e-01
5.760466e-01
5.777811e-01
5.795455e-01
5.812188e-01
5.826254e-01
5.835737e-01
5.839099e-01
5.835742e-01
5.826247e-01
5.812267e-01
5.795899e-01
5.778488e-01
5.761060e-01
5.742825e-01
0.000000e+00
1.000000e+00
5.740326e-01
5.749813e-01
5.761062e-01
5.772521e-01
5.783390e-01
5.792526e-01
5.798683e-01
5.800863e-01
5.798674e-01
5.792497e-01
5.783355e-01
5.772788e-01
5.761728e-01
5.750447e-01
5.737770e-01
0.000000e+00
1.000000e+00
5.733786e-01
5.736903e-01
5.740783e-01
5.744754e-01
5.748521e-01
5.751689e-01
5.753825e-01
5.754577e-01
5.753808e-01
5.751650e-01
5.748486e-01
5.745115e-01
5.741386e-01
5.737487e-01
5.731607e-01
0.000000e+00
1.000000e+00
5.645781e-01
5.553973e-01
5.454512e-01
5.352829e-01
5.256466e-01
5.175573e-01
5.121171e-01
5.102064e-01
5.121621e-01
5.176405e-01
5.257520e-01
5.354242e-01
5.455602e-01
5.555078e-01
5.645195e-01
0.000000e+00
1.000000e+00
5.653327e-01
5.570692e-01
5.480655e-01
5.388616e-01
5.301399e-01
5.228191e-01
5.178970e-01
5.161699e-01
5.179417e-01
5.229007e-01
5.302425e-01
5.390044e-01
5.481664e-01
5.571701e-01
5.653133e-01
0.000000e+00
1.000000e+00
5.662717e-01
5.590324e-01
5.511323e-01
5.430587e-01
5.354069e-01
5.289835e-01
5.246642e-01
5.231482e-01
5.247022e-01
5.290518e-01
5.354933e-01
5.431887e-01
5.512221e-01
5.591224e-01
5.662272e-01
0.000000e+00
1.000000e+00
5.673228e-01
5.612306e-01
5.545700e-01
5.477652e-01
5.413155e-01
5.359005e-01
5.322590e-01
5.309805e-01
5.322903e-01
5.359562e-01
5.413873e-01
5.478802e-01
5.546518e-01
5.613244e-01
5.673268e-01
0.000000e+00
1.000000e+00
5.684578e-01
5.635956e-01
5.582696e-01
5.528304e-01
5.476746e-01
5.433455e-01
5.404337e-01
5.394109e-01
5.404576e-01
5.433878e-01
5.477304e-01
5.529309e-01
5.583443e-01
5.637197e-01
5.682856e-01
0.000000e+00
1.000000e+00
5.696312e-01
5.660302e-01
5.620792e-01
5.580463e-01
5.542232e-01
5.510129e-01
5.488530e-01
5.480937e-01
5.488693e-01
5.510420e-01
5.542632e-01
5.581313e-01
5.621445e-01
5.661226e-01
5.694047e-01
0.000000e+00
1.000000e+00
5.707888e-01
5.684176e-01
5.658164e-01
5.631630e-01
5.606477e-01
5.585353e-01
5.571137e-01
5.566132e-01
5.571228e-01
5.585522e-01
5.606723e-01
5.632354e-01
5.658766e-01
5.684513e-01
5.707545e-01
0.000000e+00
1.000000e+00
5.718665e-01
5.706319e-01
5.692843e-01
5.679112e-01
5.666096e-01
5.655164e-01
5.647804e-01
5.645207e-01
5.647837e-01
5.655227e-01
5.666185e-01
5.679725e-01
5.693381e-01
5.706608e-01
5.718417e-01
0.000000e+00
1.000000e+00
5.728062e-01
5.725521e-01
5.722932e-01
5.720311e-01
5.717826e-01
5.715741e-01
5.714336e-01
5.713838e-01
5.714334e-01
5.715735e-01
5.717799e-01
5.720669e-01
5.723382e-01
5.725783e-01
5.727139e-01
0.000000e+00
1.000000e+00
5.735655e-01
5.740762e-01
5.746837e-01
5.753042e-01
5.758927e-01
5.763873e-01
5.767207e-01
5.768386e-01
5.767197e-01
5.763849e-01
5.758872e-01
5.753192e-01
5.747301e-01
5.741098e-01
5.735480e-01
0.000000e+00
1.000000e+00
5.740992e-01
5.751334e-01
5.763442e-01
5.775778e-01
5.787477e-01
5.797311e-01
5.803938e-01
5.806287e-01
5.803934e-01
5.797291e-01
5.787481e-01
5.776051e-01
5.763962e-01
5.751561e-01
5.740116e-01
0.000000e+00
1.000000e+00
5.743830e-01
5.756917e-01
5.772231e-01
5.787813e-01
5.802590e-01
5.815010e-01
5.823383e-01
5.826352e-01
5.823386e-01
5.815009e-01
5.802696e-01
5.788211e-01
5.772774e-01
5.757144e-01
5.740988e-01
0.000000e+00
1.000000e+00
5.744235e-01
5.757585e-01
5.773306e-01
5.789285e-01
5.804439e-01
5.817176e-01
5.825763e-01
5.828809e-01
5.825769e-01
5.817180e-01
5.804576e-01
5.789702e-01
5.773851e-01
5.757980e-01
5.741271e-01
0.000000e+00
1.000000e+00
5.742339e-01
5.753758e-01
5.767300e-01
5.781062e-01
5.794113e-01
5.805082e-01
5.812477e-01
5.815099e-01
5.812480e-01
5.805074e-01
5.794171e-01
5.781403e-01
5.767800e-01
5.754235e-01
5.739686e-01
0.000000e+00
1.000000e+00
5.738476e-01
5.746082e-01
5.755233e-01
5.764539e-01
5.773364e-01
5.780783e-01
5.785783e-01
5.787554e-01
5.785778e-01
5.780763e-01
5.773345e-01
5.764759e-01
5.755717e-01
5.746616e-01
5.736017e-01
0.000000e+00
1.000000e+00
5.733078e-01
5.735331e-01
5.738348e-01
5.741418e-01
5.744330e-01
5.746779e-01
5.748429e-01
5.749011e-01
5.748417e-01
5.746751e-01
5.744316e-01
5.741712e-01
5.738851e-01
5.735918e-01
5.730913e-01
0.000000e+00
1.000000e+00
5.726584e-01
5.722327e-01
5.717949e-01
5.713486e-01
5.709257e-01
5.705708e-01
5.703318e-01
5.702471e-01
5.703314e-01
5.705705e-01
5.709323e-01
5.713989e-01
5.718445e-01
5.722867e-01
5.724586e-01
0.000000e+00
1.000000e+00
5.640381e-01
5.542352e-01
5.436320e-01
5.327922e-01
5.225198e-01
5.138966e-01
5.080976e-01
5.060613e-01
5.081467e-01
5.139871e-01
5.226362e-01
5.329362e-01
5.437490e-01
5.543221e-01
5.639463e-01
0.000000e+00
1.000000e+00
5.647288e-01
5.557796e-01
5.460491e-01
5.361012e-01
5.266749e-01
5.187629e-01
5.134434e-01
5.115770e-01
5.134923e-01
5.188517e-01
5.267883e-01
5.362482e-01
5.461587e-01
5.558709e-01
5.646896e-01
0.000000e+00
1.000000e+00
5.656188e-01
5.576435e-01
5.489611e-01
5.400860e-01
5.316752e-01
5.246149e-01
5.198677e-01
5.182015e-01
5.199098e-01
5.246903e-01
5.317706e-01
5.402257e-01
5.490570e-01
5.577317e-01
5.655636e-01
0.000000e+00
1.000000e+00
5.666318e-01
5.597742e-01
5.522933e-01
5.446479e-01
5.374018e-01
5.313187e-01
5.272280e-01
5.257919e-01
5.272634e-01
5.313812e-01
5.374813e-01
5.447720e-01
5.523781e-01
5.598901e-01
5.666069e-01
0.000000e+00
1.000000e+00
5.677474e-01
5.621059e-01
5.559401e-01
5.496405e-01
5.436695e-01
5.386562e-01
5.352844e-01
5.341001e-01
5.353121e-01
5.387050e-01
5.437315e-01
5.497482e-01
5.560184e-01
5.622883e-01
5.675074e-01
0.000000e+00
1.000000e+00
5.689171e-01
5.645395e-01
5.597472e-01
5.548529e-01
5.502135e-01
5.463176e-01
5.436967e-01
5.427753e-01
5.437163e-01
5.463524e-01
5.502579e-01
5.549413e-01
5.598116e-01
5.646678e-01
5.685859e-01
0.000000e+00
1.000000e+00
5.700767e-01
5.669528e-01
5.635239e-01
5.600240e-01
5.567059e-01
5.539193e-01
5.520439e-01
5.513837e-01
5.520558e-01
5.539411e-01
5.567349e-01
5.600920e-01
5.635732e-01
5.669730e-01
5.700456e-01
0.000000e+00
1.000000e+00
5.711708e-01
5.692119e-01
5.670608e-01
5.648666e-01
5.627862e-01
5.610388e-01
5.598622e-01
5.594473e-01
5.598677e-01
5.610492e-01
5.628010e-01
5.649196e-01
5.671027e-01
5.692167e-01
5.712486e-01
0.000000e+00
1.000000e+00
5.721401e-01
5.711849e-01
5.701518e-01
5.690988e-01
5.681004e-01
5.672616e-01
5.666966e-01
5.664967e-01
5.666975e-01
5.672635e-01
5.681026e-01
5.691379e-01
5.701877e-01
5.711801e-01
5.721485e-01
0.000000e+00
1.000000e+00
5.729140e-01
5.727606e-01
5.726214e-01
5.724802e-01
5.723463e-01
5.722338e-01
5.721579e-01
5.721308e-01
5.721570e-01
5.722318e-01
5.723421e-01
5.724969e-01
5.726503e-01
5.727703e-01
5.729875e-01
0.000000e+00
1.000000e+00
5.734537e-01
5.738603e-01
5.743461e-01
5.748417e-01
5.753117e-01
5.757067e-01
5.759729e-01
5.760670e-01
5.759720e-01
5.757045e-01
5.753079e-01
5.748498e-01
5.743758e-01
5.738723e-01
5.734823e-01
0.000000e+00
1.000000e+00
5.737466e-01
5.744467e-01
5.752676e-01
5.761035e-01
5.768962e-01
5.775625e-01
5.780115e-01
5.781706e-01
5.780112e-01
5.775609e-01
5.768961e-01
5.761192e-01
5.752997e-01
5.744392e-01
5.734956e-01
0.000000e+00
1.000000e+00
5.737951e-01
5.745258e-01
5.753946e-01
5.762775e-01
5.771148e-01
5.778185e-01
5.782928e-01
5.784609e-01
5.782927e-01
5.778174e-01
5.771160e-01
5.762956e-01
5.754257e-01
5.745429e-01
5.734336e-01
0.000000e+00
1.000000e+00
5.736108e-01
5.741427e-01
5.747946e-01
5.754560e-01
5.760832e-01
5.766104e-01
5.769658e-01
5.770916e-01
5.769655e-01
5.766092e-01
5.760828e-01
5.754705e-01
5.748229e-01
5.741793e-01
5.733158e-01
0.000000e+00
1.000000e+00
5.732264e-01
5.733668e-01
5.735765e-01
5.737880e-01
5.739886e-01
5.741573e-01
5.742710e-01
5.743112e-01
5.742705e-01
5.741560e-01
5.739895e-01
5.738083e-01
5.736079e-01
5.734126e-01
5.729721e-01
0.000000e+00
1.000000e+00
5.726893e-01
5.722803e-01
5.718719e-01
5.714540e-01
5.710578e-01
5.707251e-01
5.705010e-01
5.704216e-01
5.705009e-01
5.707253e-01
5.710645e-01
5.714945e-01
5.719151e-01
5.723347e-01
5.724801e-01
0.000000e+00
1.000000e+00
5.720448e-01
5.709705e-01
5.698185e-01
5.686426e-01
5.675278e-01
5.665914e-01
5.659609e-01
5.657382e-01
5.659631e-01
5.665972e-01
5.675456e-01
5.686927e-01
5.698647e-01
5.710209e-01
5.718543e-01
0.000000e+00
1.000000e+00
5.636791e-01
5.534544e-01
5.424123e-01
5.311228e-01
5.204249e-01
5.114449e-01
5.054065e-01
5.032868e-01
5.054598e-01
5.115423e-01
5.205523e-01
5.312710e-01
5.425382e-01
5.535360e-01
5.635829e-01
0.000000e+00
1.000000e+00
5.643199e-01
5.548769e-01
5.446397e-01
5.341720e-01
5.242536e-01
5.159288e-01
5.103320e-01
5.083687e-01
5.103848e-01
5.160242e-01
5.243803e-01
5.343181e-01
5.447538e-01
5.549656e-01
5.642518e-01
0.000000e+00
1.000000e+00
5.651569e-01
5.566413e-01
5.473966e-01
5.379442e-01
5.289870e-01
5.214685e-01
5.164134e-01
5.146396e-01
5.164595e-01
5.215508e-01
5.290969e-01
5.380862e-01
5.474957e-01
5.567330e-01
5.651059e-01
0.000000e+00
1.000000e+00
5.661319e-01
5.587007e-01
5.506177e-01
5.423540e-01
5.345224e-01
5.279481e-01
5.235275e-01
5.219758e-01
5.235667e-01
5.280175e-01
5.346154e-01
5.424818e-01
5.507047e-01
5.588507e-01
5.660519e-01
0.000000e+00
1.000000e+00
5.672173e-01
5.609920e-01
5.542014e-01
5.472603e-01
5.406815e-01
5.351582e-01
5.314437e-01
5.301392e-01
5.314749e-01
5.352133e-01
5.407552e-01
5.473715e-01
5.542831e-01
5.612246e-01
5.667188e-01
0.000000e+00
1.000000e+00
5.683781e-01
5.634167e-01
5.579929e-01
5.524511e-01
5.471980e-01
5.427870e-01
5.398198e-01
5.387769e-01
5.398425e-01
5.428272e-01
5.472508e-01
5.525419e-01
5.580627e-01
5.635643e-01
5.678154e-01
0.000000e+00
1.000000e+00
5.695493e-01
5.658466e-01
5.617943e-01
5.576556e-01
5.537320e-01
5.504369e-01
5.482196e-01
5.474392e-01
5.482340e-01
5.504631e-01
5.537658e-01
5.577225e-01
5.618476e-01
5.658698e-01
5.694147e-01
0.000000e+00
1.000000e+00
5.706557e-01
5.681397e-01
5.653835e-01
5.625698e-01
5.599021e-01
5.576612e-01
5.561525e-01
5.556206e-01
5.561598e-01
5.576750e-01
5.599199e-01
5.626160e-01
5.654230e-01
5.681414e-01
5.707265e-01
0.000000e+00
1.000000e+00
5.716361e-01
5.701554e-01
5.685400e-01
5.668917e-01
5.653287e-01
5.640154e-01
5.631308e-01
5.628182e-01
5.631328e-01
5.640196e-01
5.653342e-01
5.669219e-01
5.685680e-01
5.701487e-01
5.718335e-01
0.000000e+00
1.000000e+00
5.724242e-01
5.717719e-01
5.710731e-01
5.703601e-01
5.696839e-01
5.691157e-01
5.687327e-01
5.685968e-01
5.687320e-01
5.691143e-01
5.696812e-01
5.703756e-01
5.710920e-01
5.717891e-01
5.727594e-01
0.000000e+00
1.000000e+00
5.729788e-01
5.729033e-01
5.728474e-01
5.727895e-01
5.727346e-01
5.726884e-01
5.726572e-01
5.726460e-01
5.726564e-01
5.726865e-01
5.727309e-01
5.727916e-01
5.728613e-01
5.729225e-01
5.733048e-01
0.000000e+00
1.000000e+00
5.732767e-01
5.735080e-01
5.737978e-01
5.740908e-01
5.743687e-01
5.746023e-01
5.747597e-01
5.748155e-01
5.747597e-01
5.746020e-01
5.743678e-01
5.740944e-01
5.738114e-01
5.734684e-01
5.732797e-01
0.000000e+00
1.000000e+00
5.733263e-01
5.735915e-01
5.739319e-01
5.742746e-01
5.745996e-01
5.748728e-01
5.750570e-01
5.751224e-01
5.750574e-01
5.748735e-01
5.746009e-01
5.742806e-01
5.739431e-01
5.735580e-01
5.730301e-01
0.000000e+00
1.000000e+00
5.731424e-01
5.732018e-01
5.733213e-01
5.734386e-01
5.735499e-01
5.736434e-01
5.737065e-01
5.737289e-01
5.737065e-01
5.736437e-01
5.735528e-01
5.734480e-01
5.733334e-01
5.731978e-01
5.728160e-01
0.000000e+00
1.000000e+00
5.727564e-01
5.724124e-01
5.720818e-01
5.717414e-01
5.714186e-01
5.711474e-01
5.709647e-01
5.709000e-01
5.709648e-01
5.711481e-01
5.714255e-01
5.717634e-01
5.721042e-01
5.724274e-01
5.724816e-01
0.000000e+00
1.000000e+00
5.722180e-01
5.713097e-01
5.703523e-01
5.693732e-01
5.684450e-01
5.676651e-01
5.671399e-01
5.669543e-01
5.671415e-01
5.676695e-01
5.684592e-01
5.694090e-01
5.703890e-01
5.713400e-01
5.719846e-01
0.000000e+00
1.000000e+00
5.715680e-01
5.699854e-01
5.682768e-01
5.665316e-01
5.648770e-01
5.634871e-01
5.625512e-01
5.622210e-01
5.625556e-01
5.634977e-01
5.649008e-01
5.665724e-01
5.683145e-01
5.700229e-01
5.713683e-01
0.000000e+00
1.000000e+00
5.635412e-01
5.531252e-01
5.418981e-01
5.304193e-01
5.195426e-01
5.104130e-01
5.042744e-01
5.021204e-01
5.043311e-01
5.105173e-01
5.196741e-01
5.305847e-01
5.420204e-01
5.532137e-01
5.634055e-01
0.000000e+00
1.000000e+00
5.641370e-01
5.544412e-01
5.439586e-01
5.332397e-01
5.230837e-01
5.145596e-01
5.088290e-01
5.068193e-01
5.088847e-01
5.146605e-01
5.232191e-01
5.333879e-01
5.440685e-01
5.545311e-01
5.640233e-01
0.000000e+00
1.000000e+00
5.649300e-01
5.561156e-01
5.465755e-01
5.368204e-01
5.275768e-01
5.198184e-01
5.146022e-01
5.127724e-01
5.146512e-01
5.199064e-01
5.277003e-01
5.369571e-01
5.466750e-01
5.562187e-01
5.648769e-01
0.000000e+00
1.000000e+00
5.658730e-01
5.581082e-01
5.496937e-01
5.410892e-01
5.329350e-01
5.260903e-01
5.214882e-01
5.198734e-01
5.215304e-01
5.261653e-01
5.330425e-01
5.412124e-01
5.497829e-01
5.582942e-01
5.656599e-01
0.000000e+00
1.000000e+00
5.669277e-01
5.603587e-01
5.532151e-01
5.459105e-01
5.389873e-01
5.331751e-01
5.292666e-01
5.278945e-01
5.293007e-01
5.332353e-01
5.390744e-01
5.460173e-01
5.532992e-01
5.606188e-01
5.661934e-01
0.000000e+00
1.000000e+00
5.680702e-01
5.627705e-01
5.569852e-01
5.510718e-01
5.454666e-01
5.407602e-01
5.375945e-01
5.364822e-01
5.376197e-01
5.408049e-01
5.455302e-01
5.511611e-01
5.570573e-01
5.629240e-01
5.674924e-01
0.000000e+00
1.000000e+00
5.692506e-01
5.652103e-01
5.608003e-01
5.562946e-01
5.520234e-01
5.484364e-01
5.460229e-01
5.451738e-01
5.460392e-01
5.484661e-01
5.520642e-01
5.563620e-01
5.608514e-01
5.652382e-01
5.690978e-01
0.000000e+00
1.000000e+00
5.703713e-01
5.675274e-01
5.644269e-01
5.612599e-01
5.582573e-01
5.557352e-01
5.540374e-01
5.534389e-01
5.540459e-01
5.557514e-01
5.582792e-01
5.613038e-01
5.644607e-01
5.675259e-01
5.703704e-01
0.000000e+00
1.000000e+00
5.713587e-01
5.695740e-01
5.676309e-01
5.656468e-01
5.637654e-01
5.621846e-01
5.611199e-01
5.607436e-01
5.611224e-01
5.621902e-01
5.637735e-01
5.656698e-01
5.676517e-01
5.695799e-01
5.716117e-01
0.000000e+00
1.000000e+00
5.721581e-01
5.712192e-01
5.702082e-01
5.691756e-01
5.681964e-01
5.673733e-01
5.668186e-01
5.666219e-01
5.668177e-01
5.673719e-01
5.681946e-01
5.691832e-01
5.702211e-01
5.712776e-01
5.726846e-01
0.000000e+00
1.000000e+00
5.727270e-01
5.723693e-01
5.720123e-01
5.716459e-01
5.712984e-01
5.710063e-01
5.708092e-01
5.707391e-01
5.708078e-01
5.710033e-01
5.712936e-01
5.716429e-01
5.720171e-01
5.724650e-01
5.735019e-01
0.000000e+00
1.000000e+00
5.730364e-01
5.729800e-01
5.729724e-01
5.729606e-01
5.729493e-01
5.729398e-01
5.729333e-01
5.729310e-01
5.729330e-01
5.729388e-01
5.729469e-01
5.729584e-01
5.729739e-01
5.730082e-01
5.737694e-01
0.000000e+00
1.000000e+00
5.730773e-01
5.730558e-01
5.730955e-01
5.731292e-01
5.731612e-01
5.731881e-01
5.732063e-01
5.732129e-01
5.732068e-01
5.731890e-01
5.731617e-01
5.731294e-01
5.730950e-01
5.730088e-01
5.734641e-01
0.000000e+00
1.000000e+00
5.728781e-01
5.726482e-01
5.724563e-01
5.722542e-01
5.720625e-01
5.719015e-01
5.717930e-01
5.717548e-01
5.717936e-01
5.719031e-01
5.720666e-01
5.722591e-01
5.724612e-01
5.725963e-01
5.730313e-01
0.000000e+00
1.000000e+00
5.724743e-01
5.718351e-01
5.711785e-01
5.705044e-01
5.698653e-01
5.693283e-01
5.689665e-01
5.688387e-01
5.689673e-01
5.693311e-01
5.698749e-01
5.705202e-01
5.711946e-01
5.717974e-01
5.725343e-01
0.000000e+00
1.000000e+00
5.719240e-01
5.707056e-01
5.694074e-01
5.680795e-01
5.668204e-01
5.657626e-01
5.650503e-01
5.647987e-01
5.650529e-01
5.657696e-01
5.668370e-01
5.681049e-01
5.694360e-01
5.706837e-01
5.718772e-01
0.000000e+00
1.000000e+00
5.712680e-01
5.693565e-01
5.672933e-01
5.651849e-01
5.631860e-01
5.615069e-01
5.603763e-01
5.599777e-01
5.603821e-01
5.615203e-01
5.632109e-01
5.652173e-01
5.673247e-01
5.693563e-01
5.710742e-01
0.000000e+00
1.000000e+00
5.636201e-01
5.532941e-01
5.421630e-01
5.307819e-01
5.199987e-01
5.109481e-01
5.048632e-01
5.027290e-01
5.049220e-01
5.110580e-01
5.201292e-01
5.309635e-01
5.422733e-01
5.533979e-01
5.634317e-01
0.000000e+00
1.000000e+00
5.641920e-01
5.545295e-01
5.440956e-01
5.334268e-01
5.233185e-01
5.148348e-01
5.091317e-01
5.071323e-01
5.091887e-01
5.149394e-01
5.234559e-01
5.335820e-01
5.441975e-01
5.546261e-01
5.640294e-01
0.000000e+00
1.000000e+00
5.649496e-01
5.561328e-01
5.466029e-01
5.368581e-01
5.276245e-01
5.198748e-01
5.146650e-01
5.128380e-01
5.147157e-01
5.199668e-01
5.277544e-01
5.369948e-01
5.467044e-01
5.562512e-01
5.648808e-01
0.000000e+00
1.000000e+00
5.658650e-01
5.580735e-01
5.496403e-01
5.410162e-01
5.328436e-01
5.259839e-01
5.213720e-01
5.197544e-01
5.214161e-01
5.260626e-01
5.329591e-01
5.411373e-01
5.497378e-01
5.582886e-01
5.654759e-01
0.000000e+00
1.000000e+00
5.669069e-01
5.602926e-01
5.531123e-01
5.457697e-01
5.388108e-01
5.329689e-01
5.290408e-01
5.276624e-01
5.290766e-01
5.330326e-01
5.389055e-01
5.458781e-01
5.532063e-01
5.605665e-01
5.660353e-01
0.000000e+00
1.000000e+00
5.680446e-01
5.626923e-01
5.568640e-01
5.509059e-01
5.452585e-01
5.405169e-01
5.373278e-01
5.362078e-01
5.373545e-01
5.405646e-01
5.453287e-01
5.509998e-01
5.569419e-01
5.628559e-01
5.673106e-01
0.000000e+00
1.000000e+00
5.692247e-01
5.651368e-01
5.606867e-01
5.561391e-01
5.518283e-01
5.482083e-01
5.457727e-01
5.449162e-01
5.457902e-01
5.482403e-01
5.518746e-01
5.562109e-01
5.607384e-01
5.651653e-01
5.690367e-01
0.000000e+00
1.000000e+00
5.703505e-01
5.674695e-01
5.643375e-01
5.611376e-01
5.581039e-01
5.555558e-01
5.538406e-01
5.532362e-01
5.538498e-01
5.555736e-01
5.581302e-01
5.611838e-01
5.643707e-01
5.674644e-01
5.704842e-01
0.000000e+00
1.000000e+00
5.713463e-01
5.695351e-01
5.675706e-01
5.655643e-01
5.636619e-01
5.620636e-01
5.609870e-01
5.606065e-01
5.609896e-01
5.620695e-01
5.636729e-01
5.655887e-01
5.675913e-01
5.695434e-01
5.715382e-01
0.000000e+00
1.000000e+00
5.721614e-01
5.711950e-01
5.701702e-01
5.691236e-01
5.681310e-01
5.672968e-01
5.667344e-01
5.665347e-01
5.667328e-01
5.672945e-01
5.681304e-01
5.691319e-01
5.701810e-01
5.712334e-01
5.721666e-01
0.000000e+00
1.000000e+00
5.727304e-01
5.723489e-01
5.719810e-01
5.716028e-01
5.712441e-01
5.709425e-01
5.707389e-01
5.706661e-01
5.707363e-01
5.709375e-01
5.712379e-01
5.715993e-01
5.719825e-01
5.724183e-01
5.728150e-01
0.000000e+00
1.000000e+00
5.730264e-01
5.729503e-01
5.729269e-01
5.728980e-01
5.728706e-01
5.728474e-01
5.728316e-01
5.728256e-01
5.728302e-01
5.728444e-01
5.728662e-01
5.728941e-01
5.729243e-01
5.730513e-01
5.737054e-01
0.000000e+00
1.000000e+00
5.730619e-01
5.730040e-01
5.730154e-01
5.730193e-01
5.730231e-01
5.730261e-01
5.730282e-01
5.730289e-01
5.730281e-01
5.730254e-01
5.730212e-01
5.730162e-01
5.730090e-01
5.730557e-01
5.738379e-01
0.000000e+00
1.000000e+00
5.728346e-01
5.725629e-01
5.723251e-01
5.720743e-01
5.718365e-01
5.716368e-01
5.715022e-01
5.714548e-01
5.715027e-01
5.716376e-01
5.718372e-01
5.720729e-01
5.723231e-01
5.725502e-01
5.734829e-01
0.000000e+00
1.000000e+00
5.724139e-01
5.717109e-01
5.709858e-01
5.702405e-01
5.695339e-01
5.689401e-01
5.685401e-01
5.683986e-01
5.685408e-01
5.689430e-01
5.695407e-01
5.702476e-01
5.709956e-01
5.716717e-01
5.729026e-01
0.000000e+00
1.000000e+00
5.718521e-01
5.705405e-01
5.691502e-01
5.677274e-01
5.663783e-01
5.652449e-01
5.644816e-01
5.642121e-01
5.644843e-01
5.652524e-01
5.663929e-01
5.677443e-01
5.691721e-01
5.704893e-01
5.722562e-01
0.000000e+00
1.000000e+00
5.711795e-01
5.691526e-01
5.669744e-01
5.647482e-01
5.626377e-01
5.608648e-01
5.596712e-01
5.592503e-01
5.596773e-01
5.608789e-01
5.626610e-01
5.647733e-01
5.670004e-01
5.690933e-01
5.712874e-01
0.000000e+00
1.000000e+00
5.639189e-01
5.539799e-01
5.432368e-01
5.322513e-01
5.218436e-01
5.131088e-01
5.072371e-01
5.051789e-01
5.072969e-01
5.132220e-01
5.219731e-01
5.324375e-01
5.433436e-01
5.541005e-01
5.636714e-01
0.000000e+00
1.000000e+00
5.644846e-01
5.551671e-01
5.450922e-01
5.347902e-01
5.250296e-01
5.168380e-01
5.113318e-01
5.094022e-01
5.113888e-01
5.169437e-01
5.251652e-01
5.349480e-01
5.451893e-01
5.552651e-01
5.643357e-01
0.000000e+00
1.000000e+00
5.652192e-01
5.567273e-01
5.475331e-01
5.381314e-01
5.292229e-01
5.217464e-01
5.167208e-01
5.149593e-01
5.167720e-01
5.218398e-01
5.293533e-01
5.382703e-01
5.476331e-01
5.568546e-01
5.651584e-01
0.000000e+00
1.000000e+00
5.661208e-01
5.586385e-01
5.505232e-01
5.422248e-01
5.343609e-01
5.277605e-01
5.233236e-01
5.217680e-01
5.233680e-01
5.278405e-01
5.344783e-01
5.423487e-01
5.506262e-01
5.588646e-01
5.656723e-01
0.000000e+00
1.000000e+00
5.671653e-01
5.608412e-01
5.539684e-01
5.469415e-01
5.402818e-01
5.346914e-01
5.309329e-01
5.296146e-01
5.309691e-01
5.347563e-01
5.403793e-01
5.470549e-01
5.540674e-01
5.611045e-01
5.662980e-01
0.000000e+00
1.000000e+00
5.683103e-01
5.632355e-01
5.577125e-01
5.520672e-01
5.467165e-01
5.422242e-01
5.392031e-01
5.381427e-01
5.392301e-01
5.422729e-01
5.467904e-01
5.521661e-01
5.577915e-01
5.633875e-01
5.676370e-01
0.000000e+00
1.000000e+00
5.694901e-01
5.656834e-01
5.615420e-01
5.573102e-01
5.532987e-01
5.499302e-01
5.476641e-01
5.468675e-01
5.476816e-01
5.499628e-01
5.533490e-01
5.573871e-01
5.616020e-01
5.657226e-01
5.693332e-01
0.000000e+00
1.000000e+00
5.706162e-01
5.680249e-01
5.652067e-01
5.623279e-01
5.595986e-01
5.573063e-01
5.557634e-01
5.552198e-01
5.557721e-01
5.573239e-01
5.596283e-01
5.623806e-01
5.652551e-01
5.680259e-01
5.707791e-01
0.000000e+00
1.000000e+00
5.716177e-01
5.700981e-01
5.684512e-01
5.667702e-01
5.651762e-01
5.638371e-01
5.629351e-01
5.626161e-01
5.629368e-01
5.638419e-01
5.651890e-01
5.668018e-01
5.684883e-01
5.701103e-01
5.720257e-01
0.000000e+00
1.000000e+00
5.724401e-01
5.717575e-01
5.710500e-01
5.703284e-01
5.696441e-01
5.690689e-01
5.686811e-01
5.685430e-01
5.686788e-01
5.690653e-01
5.696435e-01
5.703413e-01
5.710740e-01
5.717935e-01
5.725236e-01
0.000000e+00
1.000000e+00
5.730131e-01
5.728989e-01
5.728412e-01
5.727810e-01
5.727238e-01
5.726757e-01
5.726428e-01
5.726303e-01
5.726400e-01
5.726706e-01
5.727189e-01
5.727823e-01
5.728554e-01
5.728901e-01
5.719908e-01
0.000000e+00
1.000000e+00
5.732997e-01
5.734738e-01
5.737474e-01
5.740216e-01
5.742816e-01
5.745000e-01
5.746470e-01
5.746984e-01
5.746451e-01
5.744973e-01
5.742800e-01
5.740227e-01
5.737553e-01
5.734770e-01
5.726506e-01
0.000000e+00
1.000000e+00
5.733070e-01
5.734885e-01
5.737765e-01
5.740614e-01
5.743315e-01
5.745583e-01
5.747110e-01
5.747646e-01
5.747096e-01
5.745565e-01
5.743303e-01
5.740599e-01
5.737777e-01
5.735694e-01
5.735239e-01
0.000000e+00
1.000000e+00
5.730469e-01
5.729971e-01
5.730104e-01
5.730124e-01
5.730143e-01
5.730159e-01
5.730169e-01
5.730168e-01
5.730157e-01
5.730138e-01
5.730113e-01
5.730077e-01
5.730097e-01
5.730824e-01
5.737388e-01
0.000000e+00
1.000000e+00
5.726103e-01
5.720912e-01
5.715839e-01
5.710594e-01
5.705622e-01
5.701444e-01
5.698629e-01
5.697633e-01
5.698629e-01
5.701451e-01
5.705633e-01
5.710595e-01
5.715912e-01
5.721342e-01
5.733527e-01
0.000000e+00
1.000000e+00
5.720215e-01
5.708640e-01
5.696572e-01
5.684218e-01
5.672505e-01
5.662666e-01
5.656041e-01
5.653701e-01
5.656062e-01
5.662729e-01
5.672615e-01
5.684328e-01
5.696777e-01
5.708752e-01
5.728379e-01
0.000000e+00
1.000000e+00
5.713031e-01
5.694200e-01
5.673932e-01
5.653217e-01
5.633578e-01
5.617082e-01
5.605976e-01
5.602061e-01
5.606033e-01
5.617217e-01
5.633784e-01
5.653415e-01
5.674184e-01
5.693681e-01
5.721106e-01
0.000000e+00
1.000000e+00
5.644501e-01
5.551683e-01
5.450955e-01
5.347947e-01
5.250355e-01
5.168458e-01
5.113413e-01
5.094131e-01
5.114004e-01
5.169579e-01
5.251626e-01
5.349744e-01
5.451991e-01
5.552974e-01
5.641512e-01
0.000000e+00
1.000000e+00
5.650220e-01
5.563431e-01
5.469299e-01
5.373052e-01
5.281857e-01
5.205324e-01
5.153886e-01
5.135867e-01
5.154440e-01
5.206354e-01
5.283164e-01
5.374567e-01
5.470255e-01
5.564366e-01
5.649414e-01
0.000000e+00
1.000000e+00
5.657571e-01
5.578928e-01
5.493544e-01
5.406243e-01
5.323521e-01
5.254097e-01
5.207437e-01
5.191091e-01
5.207936e-01
5.255011e-01
5.324793e-01
5.407603e-01
5.494558e-01
5.580225e-01
5.656958e-01
0.000000e+00
1.000000e+00
5.666646e-01
5.597993e-01
5.523370e-01
5.447077e-01
5.374778e-01
5.314095e-01
5.273308e-01
5.259016e-01
5.273740e-01
5.314877e-01
5.375930e-01
5.448318e-01
5.524436e-01
5.600181e-01
5.661803e-01
0.000000e+00
1.000000e+00
5.677111e-01
5.620021e-01
5.557830e-01
5.494258e-01
5.434007e-01
5.383430e-01
5.349430e-01
5.337513e-01
5.349779e-01
5.384062e-01
5.434977e-01
5.495415e-01
5.558853e-01
5.622426e-01
5.668877e-01
0.000000e+00
1.000000e+00
5.688577e-01
5.644007e-01
5.595344e-01
5.545618e-01
5.498485e-01
5.458916e-01
5.432307e-01
5.422973e-01
5.432563e-01
5.459385e-01
5.499238e-01
5.546646e-01
5.596234e-01
5.645580e-01
5.682975e-01
0.000000e+00
1.000000e+00
5.700412e-01
5.668548e-01
5.633737e-01
5.598182e-01
5.564479e-01
5.536180e-01
5.517143e-01
5.510453e-01
5.517300e-01
5.536484e-01
5.565006e-01
5.599042e-01
5.634532e-01
5.669346e-01
5.697728e-01
0.000000e+00
1.000000e+00
5.711733e-01
5.692004e-01
5.670447e-01
5.648445e-01
5.627587e-01
5.610069e-01
5.598278e-01
5.594122e-01
5.598342e-01
5.610210e-01
5.627895e-01
5.649103e-01
5.671147e-01
5.692227e-01
5.712775e-01
0.000000e+00
1.000000e+00
5.721814e-01
5.712703e-01
5.702848e-01
5.692808e-01
5.683288e-01
5.675290e-01
5.669901e-01
5.667989e-01
5.669894e-01
5.675291e-01
5.683389e-01
5.693214e-01
5.703399e-01
5.712916e-01
5.726549e-01
0.000000e+00
1.000000e+00
5.730001e-01
5.729150e-01
5.728619e-01
5.728094e-01
5.727596e-01
5.727176e-01
5.726889e-01
5.726776e-01
5.726853e-01
5.727113e-01
5.727568e-01
5.728260e-01
5.729059e-01
5.729583e-01
5.730856e-01
0.000000e+00
1.000000e+00
5.735648e-01
5.740280e-01
5.746099e-01
5.752029e-01
5.757652e-01
5.762377e-01
5.765559e-01
5.766680e-01
5.765541e-01
5.762357e-01
5.757677e-01
5.752158e-01
5.746495e-01
5.740211e-01
5.728629e-01
0.000000e+00
1.000000e+00
5.738455e-01
5.745605e-01
5.754502e-01
5.763536e-01
5.772105e-01
5.779307e-01
5.784164e-01
5.785890e-01
5.784187e-01
5.779370e-01
5.772232e-01
5.763709e-01
5.754852e-01
5.744862e-01
5.726374e-01
0.000000e+00
1.000000e+00
5.738413e-01
5.745204e-01
5.753948e-01
5.762779e-01
5.771156e-01
5.778199e-01
5.782950e-01
5.784643e-01
5.782979e-01
5.778263e-01
5.771272e-01
5.762910e-01
5.754217e-01
5.744562e-01
5.723436e-01
0.000000e+00
1.000000e+00
5.735576e-01
5.739602e-01
5.745316e-01
5.750955e-01
5.756302e-01
5.760796e-01
5.763822e-01
5.764891e-01
5.763815e-01
5.760794e-01
5.756333e-01
5.750981e-01
5.745495e-01
5.739956e-01
5.726086e-01
0.000000e+00
1.000000e+00
5.730690e-01
5.729897e-01
5.729946e-01
5.729914e-01
5.729885e-01
5.729866e-01
5.729856e-01
5.729854e-01
5.729857e-01
5.729871e-01
5.729892e-01
5.729921e-01
5.730134e-01
5.730795e-01
5.730417e-01
0.000000e+00
1.000000e+00
5.724287e-01
5.716924e-01
5.709546e-01
5.701980e-01
5.694808e-01
5.688784e-01
5.684732e-01