<?xml version="1.0"?>
<VTKFile type="StructuredGrid" version="0.1">
  <StructuredGrid WholeExtent="0 16 0 16 0 16">
    <Piece Extent="0 16 0 16 0 16">
      <PointData Scalars="temperature" Vectors="velocity">
        <DataArray type="Float32" Name="temperature" format="ascii">
1.000000e+00
5.726331e-01
5.722876e-01
5.718493e-01
5.714203e-01
5.710142e-01
5.706738e-01
5.704446e-01
5.703618e-01
5.704391e-01
5.706674e-01
5.710363e-01
5.716445e-01
5.720662e-01
5.733165e-01
5.682767e-01
0.000000e+00
1.000000e+00
5.734831e-01
5.738528e-01
5.743122e-01
5.747927e-01
5.752488e-01
5.756323e-01
5.758897e-01
5.759769e-01
5.758766e-01
5.756077e-01
5.752283e-01
5.749492e-01
5.745294e-01
5.746904e-01
5.699986e-01
0.000000e+00
1.000000e+00
5.744508e-01
5.756970e-01
5.772148e-01
5.787674e-01
5.802397e-01
5.814763e-01
5.823079e-01
5.825975e-01
5.822940e-01
5.814548e-01
5.802258e-01
5.788683e-01
5.774751e-01
5.766017e-01
5.696903e-01
0.000000e+00
1.000000e+00
5.755555e-01
5.777856e-01
5.805023e-01
5.832694e-01
5.858938e-01
5.880991e-01
5.895832e-01
5.901055e-01
5.895782e-01
5.881038e-01
5.859302e-01
5.834141e-01
5.807790e-01
5.787379e-01
5.704170e-01
0.000000e+00
1.000000e+00
5.767850e-01
5.800520e-01
5.840765e-01
5.881628e-01
5.920395e-01
5.952993e-01
5.974969e-01
5.982772e-01
5.975099e-01
5.953433e-01
5.921412e-01
5.883723e-01
5.843474e-01
5.808474e-01
5.721562e-01
0.000000e+00
1.000000e+00
5.780818e-01
5.824088e-01
5.878038e-01
5.932653e-01
5.984458e-01
6.028028e-01
6.057440e-01
6.067955e-01
6.057798e-01
6.028892e-01
5.986118e-01
5.935315e-01
5.880774e-01
5.830489e-01
5.736247e-01
0.000000e+00
1.000000e+00
5.794072e-01
5.847468e-01
5.915156e-01
5.983473e-01
6.048277e-01
6.102793e-01
6.139623e-01
6.152856e-01
6.140242e-01
6.104131e-01
6.050718e-01
5.986787e-01
5.917970e-01
5.851895e-01
5.762831e-01
0.000000e+00
1.000000e+00
5.806822e-01
5.869445e-01
5.950236e-01
6.031506e-01
6.108600e-01
6.173482e-01
6.217370e-01
6.233234e-01
6.218353e-01
6.175529e-01
6.112135e-01
6.035673e-01
5.953307e-01
5.873429e-01
5.781973e-01
0.000000e+00
1.000000e+00
5.818141e-01
5.888854e-01
5.981392e-01
6.074152e-01
6.162154e-01
6.236262e-01
6.286473e-01
6.304764e-01
6.287990e-01
6.239355e-01
6.166991e-01
6.079240e-01
5.984873e-01
5.892794e-01
5.797957e-01
0.000000e+00
1.000000e+00
5.827329e-01
5.904689e-01
6.006917e-01
6.109071e-01
6.206012e-01
6.287712e-01
6.343172e-01
6.363545e-01
6.345323e-01
6.291976e-01
6.212023e-01
6.115060e-01
6.011060e-01
5.909031e-01
5.810283e-01
0.000000e+00
1.000000e+00
5.834711e-01
5.915975e-01
6.025420e-01
6.134419e-01
6.237899e-01
6.325171e-01
6.384500e-01
6.406442e-01
6.387215e-01
6.330408e-01
6.244831e-01
6.141199e-01
6.030437e-01
5.920881e-01
5.815648e-01
0.000000e+00
1.000000e+00
5.839925e-01
5.922142e-01
6.036098e-01
6.149110e-01
6.256426e-01
6.346970e-01
6.408577e-01
6.431440e-01
6.411623e-01
6.352793e-01
6.264006e-01
6.156414e-01
6.041546e-01
5.927673e-01
5.817689e-01
0.000000e+00
1.000000e+00
5.841175e-01
5.923574e-01
6.038837e-01
6.152870e-01
6.261142e-01
6.352501e-01
6.414726e-01
6.437880e-01
6.417866e-01
6.358565e-01
6.269180e-01
6.160439e-01
6.044010e-01
5.929457e-01
5.818325e-01
0.000000e+00
1.000000e+00
5.839446e-01
5.920387e-01
6.033751e-01
6.145864e-01
6.252364e-01
6.342281e-01
6.403580e-01
6.426467e-01
6.406660e-01
6.348373e-01
6.260677e-01
6.153417e-01
6.038261e-01
5.926306e-01
5.817883e-01
0.000000e+00
1.000000e+00
5.837046e-01
5.911841e-01
6.021524e-01
6.129250e-01
6.231574e-01
6.317945e-01
6.376794e-01
6.398776e-01
6.379750e-01
6.323739e-01
6.239719e-01
6.136489e-01
6.025896e-01
5.918498e-01
5.814328e-01
0.000000e+00
1.000000e+00
5.830149e-01
5.900295e-01
6.003447e-01
6.104513e-01
6.200503e-01
6.281503e-01
6.336650e-01
6.357205e-01
6.339468e-01
6.286882e-01
6.208224e-01
6.111335e-01
6.007857e-01
5.906737e-01
5.810521e-01
0.000000e+00
1.000000e+00
5.820250e-01
5.886466e-01
5.980643e-01
6.073238e-01
6.161178e-01
6.235358e-01
6.285818e-01
6.304574e-01
6.288386e-01
6.240371e-01
6.168352e-01
6.079589e-01
5.985253e-01
5.891978e-01
5.803860e-01
0.000000e+00
1.000000e+00
5.733877e-01
5.736952e-01
5.740658e-01
5.744552e-01
5.748245e-01
5.751347e-01
5.753426e-01
5.754127e-01
5.753309e-01
5.751129e-01
5.748080e-01
5.745884e-01
5.742392e-01
5.745449e-01
5.681818e-01
0.000000e+00
1.000000e+00
5.742577e-01
5.753025e-01
5.765978e-01
5.779223e-01
5.791780e-01
5.802327e-01
5.809418e-01
5.811887e-01
5.809293e-01
5.802118e-01
5.791602e-01
5.780084e-01
5.768167e-01
5.757065e-01
5.729191e-01
0.000000e+00
1.000000e+00
5.752593e-01
5.771935e-01
5.795767e-01
5.820015e-01
5.843010e-01
5.862329e-01
5.875330e-01
5.879907e-01
5.875274e-01
5.862314e-01
5.843197e-01
5.821150e-01
5.798390e-01
5.776545e-01
5.730516e-01
0.000000e+00
1.000000e+00
5.764037e-01
5.793294e-01
5.829425e-01
5.866098e-01
5.900884e-01
5.930126e-01
5.949832e-01
5.956821e-01
5.949912e-01
5.930432e-01
5.901648e-01
5.867913e-01
5.832083e-01
5.797271e-01
5.744606e-01
0.000000e+00
1.000000e+00
5.776711e-01
5.816386e-01
5.865911e-01
5.916047e-01
5.963598e-01
6.003585e-01
6.030568e-01
6.040201e-01
6.030847e-01
6.004273e-01
5.964967e-01
5.918484e-01
5.868734e-01
5.820010e-01
5.763179e-01
0.000000e+00
1.000000e+00
5.790167e-01
5.840242e-01
5.903753e-01
5.967858e-01
6.028660e-01
6.079801e-01
6.114337e-01
6.126725e-01
6.114853e-01
6.080922e-01
6.030730e-01
5.971006e-01
5.906754e-01
5.843907e-01
5.771809e-01
0.000000e+00
1.000000e+00
5.803659e-01
5.863685e-01
5.941115e-01
6.019014e-01
6.092902e-01
6.155074e-01
6.197110e-01
6.212271e-01
6.197954e-01
6.156838e-01
6.095991e-01
6.023063e-01
5.944393e-01
5.867238e-01
5.788744e-01
0.000000e+00
1.000000e+00
5.816320e-01
5.885429e-01
5.975966e-01
6.066716e-01
6.152805e-01
6.225284e-01
6.274367e-01
6.292207e-01
6.275732e-01
6.228081e-01
6.157248e-01
6.071765e-01
5.979758e-01
5.889552e-01
5.801278e-01
0.000000e+00
1.000000e+00
5.827475e-01
5.904190e-01
6.006258e-01
6.108166e-01
6.204857e-01
6.286335e-01
6.341632e-01
6.361930e-01
6.343731e-01
6.290488e-01
6.210736e-01
6.114176e-01
6.010821e-01
5.908854e-01
5.810444e-01
0.000000e+00
1.000000e+00
5.836726e-01
5.918788e-01
6.030156e-01
6.140872e-01
6.245977e-01
6.334641e-01
6.394946e-01
6.417300e-01
6.397822e-01
6.340106e-01
6.253087e-01
6.147698e-01
6.035896e-01
5.924076e-01
5.817199e-01
0.000000e+00
1.000000e+00
5.844308e-01
5.928107e-01
6.046238e-01
6.162988e-01
6.273883e-01
6.367503e-01
6.431276e-01
6.455061e-01
6.434722e-01
6.373898e-01
6.281944e-01
6.170686e-01
6.052994e-01
5.934404e-01
5.821822e-01
0.000000e+00
1.000000e+00
5.849420e-01
5.931630e-01
6.053824e-01
6.173566e-01
6.287309e-01
6.383355e-01
6.448812e-01
6.473274e-01
6.452500e-01
6.390191e-01
6.296089e-01
6.182208e-01
6.060553e-01
5.939472e-01
5.823393e-01
0.000000e+00
1.000000e+00
5.850484e-01
5.930016e-01
6.052970e-01
6.172492e-01
6.285985e-01
6.381826e-01
6.447189e-01
6.471612e-01
6.450832e-01
6.388768e-01
6.295234e-01
6.181582e-01
6.059020e-01
5.938888e-01
5.823122e-01
0.000000e+00
1.000000e+00
5.848487e-01
5.923725e-01
6.044016e-01
6.160280e-01
6.270661e-01
6.363868e-01
6.427446e-01
6.451230e-01
6.430872e-01
6.370640e-01
6.279981e-01
6.169158e-01
6.049524e-01
5.932959e-01
5.823498e-01
0.000000e+00
1.000000e+00
5.843232e-01
5.913634e-01
6.027957e-01
6.138293e-01
6.243020e-01
6.331412e-01
6.391656e-01
6.414207e-01
6.394871e-01
6.337768e-01
6.251889e-01
6.146379e-01
6.033165e-01
5.922685e-01
5.818997e-01
0.000000e+00
1.000000e+00
5.832267e-01
5.901596e-01
6.006118e-01
6.108225e-01
6.205165e-01
6.286944e-01
6.342614e-01
6.363384e-01
6.345577e-01
6.292710e-01
6.213218e-01
6.115423e-01
6.011194e-01
5.908671e-01
5.812913e-01
0.000000e+00
1.000000e+00
5.820026e-01
5.886292e-01
5.979641e-01
6.071848e-01
6.159401e-01
6.233226e-01
6.283408e-01
6.302039e-01
6.286013e-01
6.238254e-01
6.166336e-01
6.078073e-01
5.984324e-01
5.892112e-01
5.813163e-01
0.000000e+00
1.000000e+00
5.740398e-01
5.749033e-01
5.759713e-01
5.770642e-01
5.781003e-01
5.789704e-01
5.795551e-01
5.797586e-01
5.795440e-01
5.789509e-01
5.780830e-01
5.771288e-01
5.761212e-01
5.755075e-01
5.694773e-01
0.000000e+00
1.000000e+00
5.749082e-01
5.765372e-01
5.785467e-01
5.805908e-01
5.825291e-01
5.841572e-01
5.852530e-01
5.856388e-01
5.852472e-01
5.841510e-01
5.825328e-01
5.806699e-01
5.787510e-01
5.768004e-01
5.739604e-01
0.000000e+00
1.000000e+00
5.759326e-01
5.784583e-01
5.815732e-01
5.847345e-01
5.877327e-01
5.902528e-01
5.919506e-01
5.925523e-01
5.919550e-01
5.902709e-01
5.877801e-01
5.848802e-01
5.818167e-01
5.788115e-01
5.741878e-01
0.000000e+00
1.000000e+00
5.771289e-01
5.806208e-01
5.849882e-01
5.894100e-01
5.936035e-01
5.971293e-01
5.995076e-01
6.003555e-01
5.995285e-01
5.971802e-01
5.937059e-01
5.896242e-01
5.852534e-01
5.809290e-01
5.755177e-01
0.000000e+00
1.000000e+00
5.784310e-01
5.829508e-01
5.886805e-01
5.944656e-01
5.999519e-01
6.045656e-01
6.076806e-01
6.087964e-01
6.077223e-01
6.046548e-01
6.001172e-01
5.947516e-01
5.889777e-01
5.832839e-01
5.771471e-01
0.000000e+00
1.000000e+00
5.797828e-01
5.853473e-01
5.924919e-01
5.996836e-01
6.065045e-01
6.122426e-01
6.161209e-01
6.175168e-01
6.161900e-01
6.123863e-01
6.067616e-01
6.000542e-01
5.928209e-01
5.857152e-01
5.781529e-01
0.000000e+00
1.000000e+00
5.811249e-01
5.876835e-01
5.962252e-01
6.047938e-01
6.129213e-01
6.197626e-01
6.243926e-01
6.260700e-01
6.245059e-01
6.199991e-01
6.133094e-01
6.052613e-01
5.966021e-01
5.880802e-01
5.796194e-01
0.000000e+00
1.000000e+00
5.823982e-01
5.898151e-01
5.996606e-01
6.094954e-01
6.188255e-01
6.266849e-01
6.320145e-01
6.339643e-01
6.321989e-01
6.270589e-01
6.193653e-01
6.100551e-01
6.001303e-01
5.902758e-01
5.806963e-01
0.000000e+00
1.000000e+00
5.835189e-01
5.916026e-01
6.025797e-01
6.134901e-01
6.238446e-01
6.325767e-01
6.385130e-01
6.407098e-01
6.387868e-01
6.331036e-01
6.245300e-01
6.141453e-01
6.031597e-01
5.921345e-01
5.815484e-01
0.000000e+00
1.000000e+00
5.844462e-01
5.929136e-01
6.047891e-01
6.165193e-01
6.276598e-01
6.370656e-01
6.434742e-01
6.458671e-01
6.438260e-01
6.377144e-01
6.284736e-01
6.173088e-01
6.054260e-01
5.935616e-01
5.821955e-01
0.000000e+00
1.000000e+00
5.851953e-01
5.936219e-01
6.061500e-01
6.184047e-01
6.300469e-01
6.398806e-01
6.465861e-01
6.490998e-01
6.469803e-01
6.405938e-01
6.309455e-01
6.192999e-01
6.068210e-01
5.944755e-01
5.825786e-01
0.000000e+00
1.000000e+00
5.856674e-01
5.936716e-01
6.066114e-01
6.190657e-01
6.308887e-01
6.408722e-01
6.476791e-01
6.502291e-01
6.480780e-01
6.416005e-01
6.318344e-01
6.200175e-01
6.073188e-01
5.947905e-01
5.827245e-01
0.000000e+00
1.000000e+00
5.856602e-01
5.931750e-01
6.061938e-01
6.185011e-01
6.301738e-01
6.400296e-01
6.467510e-01
6.492632e-01
6.471267e-01
6.407463e-01
6.311496e-01
6.194878e-01
6.068877e-01
5.944909e-01
5.827906e-01
0.000000e+00
1.000000e+00
5.853426e-01
5.922991e-01
6.049367e-01
6.167766e-01
6.280044e-01
6.374845e-01
6.439500e-01
6.463669e-01
6.442922e-01
6.381709e-01
6.289810e-01
6.177318e-01
6.055783e-01
5.936642e-01
5.828247e-01
0.000000e+00
1.000000e+00
5.844961e-01
5.912787e-01
6.029582e-01
6.140577e-01
6.245868e-01
6.334740e-01
6.395304e-01
6.417953e-01
6.398481e-01
6.341093e-01
6.255115e-01
6.149204e-01
6.035270e-01
5.924060e-01
5.821759e-01
0.000000e+00
1.000000e+00
5.831434e-01
5.900332e-01
6.004108e-01
6.105483e-01
6.201717e-01
6.282905e-01
6.338170e-01
6.358763e-01
6.341079e-01
6.288560e-01
6.209971e-01
6.112961e-01
6.009369e-01
5.908307e-01
5.816731e-01
0.000000e+00
1.000000e+00
5.817953e-01
5.883212e-01
5.974294e-01
6.064533e-01
6.150217e-01
6.222464e-01
6.271563e-01
6.289762e-01
6.274088e-01
6.227309e-01
6.157188e-01
6.070885e-01
5.979218e-01
5.889892e-01
5.816072e-01
0.000000e+00
1.000000e+00
5.745432e-01
5.758312e-01
5.774392e-01
5.790745e-01
5.806248e-01
5.819270e-01
5.828033e-01
5.831114e-01
5.827971e-01
5.819176e-01
5.806196e-01
5.791264e-01
5.775861e-01
5.762096e-01
5.713533e-01
0.000000e+00
1.000000e+00
5.754112e-01
5.774683e-01
5.800201e-01
5.826082e-01
5.850624e-01
5.871247e-01
5.885140e-01
5.890057e-01
5.885150e-01
5.871316e-01
5.850852e-01
5.827120e-01
5.802125e-01
5.776306e-01
5.750781e-01
0.000000e+00
1.000000e+00
5.764425e-01
5.793925e-01
5.830539e-01
5.867614e-01
5.902773e-01
5.932327e-01
5.952257e-01
5.959352e-01
5.952392e-01
5.932656e-01
5.903431e-01
5.869323e-01
5.832887e-01
5.796983e-01
5.751127e-01
0.000000e+00
1.000000e+00
5.776335e-01
5.815588e-01
5.864771e-01
5.914480e-01
5.961620e-01
6.001258e-01
6.028012e-01
6.037581e-01
6.028321e-01
6.001906e-01
5.962823e-01
5.916875e-01
5.867452e-01
5.818397e-01
5.762286e-01
0.000000e+00
1.000000e+00
5.789395e-01
5.838891e-01
5.901718e-01
5.965064e-01
6.025139e-01
6.075670e-01
6.109807e-01
6.122069e-01
6.110334e-01
6.076751e-01
6.027141e-01
5.968246e-01
5.904760e-01
5.842105e-01
5.776752e-01
0.000000e+00
1.000000e+00
5.802973e-01
5.862745e-01
5.939708e-01
6.017070e-01
6.090442e-01
6.152184e-01
6.193942e-01
6.209016e-01
6.194798e-01
6.154002e-01
6.093666e-01
6.021095e-01
5.943238e-01
5.866388e-01
5.787850e-01
0.000000e+00
1.000000e+00
5.816534e-01
5.885769e-01
5.976644e-01
6.067626e-01
6.153930e-01
6.226596e-01
6.275818e-01
6.293726e-01
6.277249e-01
6.229641e-01
6.158677e-01
6.072566e-01
5.980894e-01
5.889920e-01
5.800429e-01
0.000000e+00
1.000000e+00
5.829382e-01
5.906421e-01
6.010200e-01
6.113558e-01
6.211622e-01
6.294265e-01
6.350376e-01
6.371023e-01
6.352685e-01
6.298919e-01
6.217930e-01
6.119387e-01
6.015644e-01
5.911321e-01
5.810530e-01
0.000000e+00
1.000000e+00
5.840475e-01
5.923243e-01
6.038089e-01
6.151740e-01
6.259633e-01
6.350677e-01
6.412657e-01
6.435734e-01
6.415934e-01
6.356885e-01
6.267372e-01
6.158704e-01
6.044684e-01
5.929174e-01
5.818767e-01
0.000000e+00
1.000000e+00
5.849821e-01
5.934705e-01
6.058294e-01
6.179537e-01
6.294712e-01
6.392002e-01
6.458352e-01
6.483242e-01
6.462326e-01
6.399235e-01
6.303651e-01
6.188171e-01
6.065153e-01
5.942502e-01
5.824159e-01
0.000000e+00
1.000000e+00
5.857372e-01
5.939365e-01
6.069517e-01
6.195247e-01
6.314644e-01
6.415495e-01
6.484295e-01
6.510142e-01
6.488518e-01
6.423097e-01
6.324242e-01
6.204842e-01
6.076242e-01
5.950475e-01
5.828192e-01
0.000000e+00
1.000000e+00
5.861518e-01
5.936510e-01
6.071431e-01
6.198147e-01
6.318306e-01
6.419766e-01
6.488944e-01
6.514870e-01
6.493052e-01
6.427282e-01
6.328153e-01
6.207796e-01
6.078790e-01
5.952096e-01
5.831111e-01
0.000000e+00
1.000000e+00
5.858665e-01
5.928631e-01
6.064303e-01
6.188292e-01
6.305809e-01
6.405039e-01
6.472694e-01
6.497934e-01
6.476396e-01
6.412234e-01
6.315824e-01
6.198450e-01
6.071802e-01
5.947334e-01
5.831627e-01
0.000000e+00
1.000000e+00
5.852472e-01
5.919847e-01
6.048549e-01
6.166568e-01
6.278476e-01
6.372986e-01
6.437443e-01
6.461449e-01
6.440678e-01
6.379712e-01
6.288436e-01
6.176506e-01
6.055185e-01
5.937261e-01
5.830951e-01
0.000000e+00
1.000000e+00
5.842139e-01
5.910242e-01
6.025525e-01
6.134932e-01
6.238721e-01
6.326342e-01
6.386089e-01
6.408373e-01
6.389062e-01
6.332443e-01
6.248060e-01
6.143825e-01
6.031375e-01
5.922728e-01
5.824764e-01
0.000000e+00
1.000000e+00
5.827713e-01
5.896660e-01
5.997064e-01
6.095753e-01
6.189429e-01
6.268447e-01
6.322259e-01
6.342305e-01
6.324994e-01
6.273744e-01
6.197590e-01
6.103229e-01
6.002422e-01
5.904831e-01
5.819067e-01
0.000000e+00
1.000000e+00
5.813589e-01
5.877634e-01
5.964594e-01
6.051197e-01
6.133402e-01
6.202694e-01
6.249777e-01
6.267207e-01
6.252084e-01
6.207115e-01
6.140039e-01
6.057247e-01
5.969395e-01
5.883394e-01
5.811337e-01
0.000000e+00
1.000000e+00
5.748717e-01
5.764028e-01
5.783470e-01
5.803176e-01
5.821860e-01
5.837558e-01
5.848129e-01
5.851864e-01
5.848107e-01
5.837533e-01
5.821879e-01
5.803827e-01
5.784923e-01
5.766551e-01
5.724812e-01
0.000000e+00
1.000000e+00
5.757407e-01
5.780113e-01
5.808835e-01
5.837904e-01
5.865468e-01
5.888633e-01
5.904246e-01
5.909788e-01
5.904303e-01
5.888782e-01
5.865796e-01
5.839102e-01
5.810789e-01
5.781475e-01
5.756681e-01
0.000000e+00
1.000000e+00
5.767587e-01
5.799032e-01
5.838714e-01
5.878811e-01
5.916834e-01
5.948797e-01
5.970361e-01
5.978055e-01
5.970554e-01
5.949203e-01
5.917570e-01
5.880644e-01
5.841139e-01
5.801878e-01
5.758268e-01
0.000000e+00
1.000000e+00
5.778871e-01
5.820417e-01
5.872488e-01
5.925043e-01
5.974881e-01
6.016793e-01
6.045092e-01
6.055233e-01
6.045458e-01
6.017515e-01
5.976258e-01
5.927592e-01
5.875251e-01
5.823144e-01
5.768957e-01
0.000000e+00
1.000000e+00
5.791371e-01
5.843459e-01
5.908941e-01
5.974933e-01
6.037520e-01
6.090173e-01
6.125758e-01
6.138559e-01
6.126348e-01
6.091400e-01
6.039919e-01
5.978320e-01
5.912085e-01
5.846684e-01
5.780412e-01
0.000000e+00
1.000000e+00
5.804931e-01
5.866943e-01
5.946320e-01
6.026099e-01
6.101765e-01
6.165449e-01
6.208537e-01
6.224118e-01
6.209505e-01
6.167568e-01
6.105592e-01
6.030333e-01
5.949989e-01
5.870605e-01
5.791420e-01
0.000000e+00
1.000000e+00
5.818744e-01
5.889390e-01
5.982442e-01
6.075554e-01
6.163879e-01
6.238261e-01
6.288669e-01
6.307056e-01
6.290306e-01
6.241767e-01
6.169237e-01
6.080910e-01
5.986733e-01
5.893712e-01
5.802150e-01
0.000000e+00
1.000000e+00
5.831580e-01
5.909229e-01
6.014911e-01
6.120014e-01
6.219741e-01
6.303808e-01
6.360915e-01
6.381998e-01
6.363517e-01
6.308977e-01
6.226569e-01
6.126690e-01
6.020214e-01
5.914306e-01
5.811708e-01
0.000000e+00
1.000000e+00
5.842358e-01
5.925004e-01
6.041376e-01
6.156272e-01
6.265363e-01
6.357438e-01
6.420153e-01
6.443571e-01
6.423713e-01
6.364108e-01
6.273513e-01
6.164190e-01
6.047959e-01
5.931082e-01
5.819698e-01
0.000000e+00
1.000000e+00
5.851390e-01
5.935131e-01
6.059792e-01
6.181672e-01
6.297450e-01
6.395251e-01
6.461957e-01
6.487015e-01
6.466103e-01
6.402811e-01
6.306686e-01
6.190367e-01
6.067884e-01
5.943028e-01
5.825710e-01
0.000000e+00
1.000000e+00
5.858168e-01
5.938268e-01
6.068938e-01
6.194545e-01
6.313788e-01
6.414498e-01
6.483183e-01
6.508968e-01
6.487414e-01
6.422252e-01
6.323644e-01
6.204169e-01
6.077155e-01
5.950033e-01
5.831277e-01
0.000000e+00
1.000000e+00
5.860218e-01
5.934007e-01
6.068619e-01
6.194253e-01
6.313360e-01
6.413944e-01
6.482521e-01
6.508123e-01
6.486443e-01
6.421394e-01
6.323435e-01
6.204405e-01
6.076354e-01
5.950888e-01
5.834291e-01
0.000000e+00
1.000000e+00
5.856830e-01
5.924636e-01
6.059000e-01
6.180900e-01
6.296454e-01
6.394056e-01
6.460628e-01
6.485357e-01
6.463992e-01
6.400988e-01
6.306534e-01
6.191236e-01
6.066250e-01
5.945008e-01
5.833723e-01
0.000000e+00
1.000000e+00
5.850353e-01
5.914336e-01
6.040593e-01
6.155607e-01
6.264682e-01
6.356817e-01
6.419683e-01
6.443097e-01
6.422580e-01
6.363133e-01
6.274541e-01
6.165508e-01
6.047104e-01
5.933340e-01
5.832501e-01
0.000000e+00
1.000000e+00
5.838175e-01
5.904426e-01
6.015129e-01
6.120635e-01
6.220750e-01
6.305286e-01
6.362959e-01
6.384538e-01
6.365704e-01
6.310892e-01
6.229871e-01
6.129434e-01
6.021052e-01
5.916453e-01
5.822738e-01
0.000000e+00
1.000000e+00
5.822824e-01
5.889402e-01
5.984568e-01
6.078563e-01
6.167800e-01
6.243080e-01
6.294362e-01
6.313532e-01
6.296961e-01
6.247866e-01
6.175619e-01
6.085771e-01
5.989851e-01
5.896361e-01
5.812588e-01
0.000000e+00
1.000000e+00
5.807969e-01
5.869011e-01
5.950353e-01
6.031637e-01
6.108783e-01
6.173791e-01
6.217952e-01
6.234321e-01
6.220061e-01
6.177745e-01
6.114945e-01
6.037245e-01
5.954907e-01
5.873448e-01
5.797846e-01
0.000000e+00
1.000000e+00
5.749541e-01
5.765571e-01
5.785901e-01
5.806502e-01
5.826035e-01
5.842448e-01
5.853503e-01
5.857411e-01
5.853483e-01
5.842424e-01
5.826037e-01
5.807149e-01
5.787448e-01
5.767279e-01
5.727925e-01
0.000000e+00
1.000000e+00
5.758090e-01
5.780998e-01
5.810230e-01
5.839814e-01
5.867867e-01
5.891443e-01
5.907335e-01
5.912978e-01
5.907398e-01
5.891590e-01
5.868161e-01
5.841013e-01
5.812241e-01
5.782444e-01
5.754843e-01
0.000000e+00
1.000000e+00
5.768011e-01
5.799204e-01
5.839018e-01
5.879232e-01
5.917364e-01
5.949420e-01
5.971048e-01
5.978768e-01
5.971244e-01
5.949814e-01
5.918112e-01
5.881177e-01
5.841455e-01
5.801966e-01
5.757610e-01
0.000000e+00
1.000000e+00
5.778958e-01
5.819872e-01
5.871681e-01
5.923945e-01
5.973507e-01
6.015185e-01
6.043328e-01
6.053413e-01
6.043689e-01
6.015893e-01
5.975045e-01
5.926700e-01
5.874503e-01
5.822651e-01
5.768538e-01
0.000000e+00
1.000000e+00
5.791006e-01
5.842195e-01
5.907005e-01
5.972292e-01
6.034206e-01
6.086290e-01
6.121492e-01
6.134156e-01
6.122072e-01
6.087524e-01
6.036918e-01
5.975914e-01
5.910179e-01
5.845491e-01
5.778831e-01
0.000000e+00
1.000000e+00
5.803824e-01
5.864992e-01
5.943236e-01
6.021874e-01
6.096457e-01
6.159227e-01
6.201697e-01
6.217052e-01
6.202656e-01
6.161384e-01
6.100579e-01
6.026475e-01
5.946807e-01
5.868657e-01
5.790000e-01
0.000000e+00
1.000000e+00
5.816911e-01
5.886762e-01
5.978150e-01
6.069662e-01
6.156474e-01
6.229580e-01
6.279121e-01
6.297184e-01
6.280752e-01
6.233131e-01
6.162040e-01
6.075635e-01
5.982105e-01
5.890956e-01
5.800304e-01
0.000000e+00
1.000000e+00
5.829556e-01
5.905805e-01
6.009285e-01
6.112314e-01
6.210076e-01
6.292477e-01
6.348440e-01
6.369082e-01
6.351022e-01
6.297632e-01
6.216980e-01
6.119845e-01
6.013989e-01
5.910566e-01
5.809573e-01
0.000000e+00
1.000000e+00
5.839881e-01
5.920740e-01
6.034302e-01
6.146609e-01
6.253235e-01
6.343206e-01
6.404454e-01
6.427287e-01
6.407940e-01
6.349744e-01
6.261232e-01
6.155518e-01
6.040379e-01
5.926295e-01
5.818710e-01
0.000000e+00
1.000000e+00
5.847437e-01
5.930293e-01
6.051200e-01
6.169886e-01
6.282622e-01
6.377827e-01
6.442722e-01
6.467028e-01
6.446690e-01
6.385173e-01
6.291603e-01
6.179375e-01
6.059186e-01
5.937198e-01
5.826199e-01
0.000000e+00
1.000000e+00
5.852366e-01
5.933289e-01
6.058770e-01
6.180476e-01
6.296035e-01
6.393635e-01
6.460198e-01
6.485064e-01
6.464095e-01
6.401123e-01
6.305818e-01
6.190339e-01
6.067072e-01
5.943342e-01
5.831851e-01
0.000000e+00
1.000000e+00
5.854232e-01
5.928157e-01
6.056566e-01
6.177639e-01
6.292478e-01
6.389492e-01
6.455674e-01
6.480313e-01
6.459149e-01
6.396611e-01
6.302609e-01
6.187987e-01
6.064246e-01
5.943329e-01
5.834282e-01
0.000000e+00
1.000000e+00
5.851434e-01
5.916984e-01
6.045097e-01
6.161895e-01
6.272612e-01
6.366136e-01
6.429963e-01
6.453737e-01
6.432909e-01
6.372568e-01
6.282497e-01
6.172071e-01
6.051953e-01
5.936079e-01
5.832574e-01
0.000000e+00
1.000000e+00
5.845175e-01
5.905125e-01
6.025103e-01
6.134471e-01
6.238161e-01
6.325734e-01
6.385495e-01
6.407855e-01
6.388145e-01
6.331379e-01
6.247527e-01
6.143848e-01
6.031455e-01
5.922778e-01
5.826816e-01
0.000000e+00
1.000000e+00
5.833522e-01
5.894164e-01
5.998376e-01
6.097701e-01
6.191944e-01
6.271496e-01
6.325758e-01
6.346144e-01
6.328432e-01
6.276372e-01
6.200409e-01
6.105877e-01
6.004074e-01
5.904607e-01
5.812050e-01
0.000000e+00
1.000000e+00
5.817165e-01
5.878367e-01
5.966830e-01
6.054248e-01
6.137234e-01
6.207211e-01
6.254840e-01
6.272671e-01
6.257344e-01
6.211330e-01
6.144301e-01
6.060793e-01
5.971740e-01
5.884128e-01
5.800578e-01
0.000000e+00
1.000000e+00
5.801728e-01
5.857495e-01
5.931894e-01
6.006344e-01
6.076992e-01
6.136498e-01
6.176866e-01
6.191797e-01
6.178754e-01
6.139915e-01
6.082422e-01
6.011312e-01
5.935983e-01
5.861364e-01
5.789168e-01
0.000000e+00
1.000000e+00
5.747672e-01
5.762470e-01
5.780962e-01
5.799736e-01
5.817538e-01
5.832497e-01
5.842569e-01
5.846122e-01
5.842526e-01
5.832417e-01
5.817407e-01
5.800107e-01
5.782548e-01
5.763651e-01
5.729962e-01
0.000000e+00
1.000000e+00
5.755880e-01
5.776836e-01
5.803618e-01
5.830760e-01
5.856498e-01
5.878130e-01
5.892708e-01
5.897875e-01
5.892727e-01
5.878182e-01
5.856625e-01
5.831904e-01
5.805681e-01
5.778329e-01
5.752897e-01
0.000000e+00
1.000000e+00
5.765197e-01
5.793938e-01
5.830642e-01
5.867761e-01
5.902961e-01
5.932549e-01
5.952505e-01
5.959616e-01
5.952644e-01
5.932827e-01
5.903624e-01
5.869892e-01
5.833155e-01
5.796594e-01
5.755152e-01
0.000000e+00
1.000000e+00
5.775689e-01
5.813485e-01
5.861510e-01
5.910022e-01
5.956026e-01
5.994710e-01
6.020820e-01
6.030162e-01
6.021111e-01
5.995277e-01
5.957600e-01
5.912996e-01
5.864421e-01
5.816221e-01
5.765762e-01
0.000000e+00
1.000000e+00
5.787437e-01
5.834655e-01
5.895045e-01
5.955933e-01
6.013675e-01
6.062241e-01
6.095051e-01
6.106834e-01
6.095535e-01
6.063275e-01
6.016439e-01
5.959769e-01
5.898264e-01
5.837946e-01
5.775387e-01
0.000000e+00
1.000000e+00
5.799496e-01
5.856367e-01
5.929553e-01
6.003164e-01
6.072976e-01
6.131719e-01
6.171443e-01
6.185772e-01
6.172244e-01
6.133601e-01
6.077139e-01
6.008013e-01
5.933060e-01
5.859982e-01
5.785864e-01
0.000000e+00
1.000000e+00
5.811449e-01
5.877229e-01
5.962858e-01
6.048739e-01
6.130206e-01
6.198794e-01
6.245240e-01
6.262109e-01
6.246609e-01
6.201992e-01
6.135798e-01
6.054842e-01
5.966596e-01
5.881153e-01
5.795813e-01
0.000000e+00
1.000000e+00
5.823122e-01
5.895532e-01
5.992498e-01
6.089338e-01
6.181223e-01
6.258638e-01
6.311156e-01
6.330418e-01
6.313355e-01
6.263336e-01
6.188021e-01
6.096856e-01
5.996842e-01
5.899719e-01
5.806028e-01
0.000000e+00
1.000000e+00
5.832525e-01
5.909895e-01
6.016151e-01
6.121760e-01
6.222010e-01
6.306550e-01
6.364018e-01
6.385296e-01
6.367030e-01
6.312501e-01
6.229684e-01
6.130749e-01
6.021456e-01
5.914709e-01
5.816641e-01
0.000000e+00
1.000000e+00
5.839108e-01
5.919103e-01
6.031867e-01
6.143343e-01
6.249209e-01
6.338571e-01
6.399444e-01
6.422089e-01
6.402885e-01
6.345259e-01
6.257638e-01
6.153135e-01
6.038498e-01
5.925030e-01
5.824104e-01
0.000000e+00
1.000000e+00
5.843588e-01
5.921735e-01
6.038321e-01
6.152307e-01
6.260571e-01
6.352032e-01
6.414455e-01
6.437714e-01
6.417838e-01
6.358924e-01
6.269787e-01
6.162154e-01
6.045633e-01
5.930326e-01
5.828909e-01
0.000000e+00
1.000000e+00
5.845568e-01
5.916897e-01
6.035136e-01
6.148147e-01
6.255410e-01
6.346033e-01
6.407918e-01
6.431066e-01
6.410993e-01
6.352557e-01
6.265015e-01
6.157828e-01
6.042174e-01
5.929194e-01
5.830103e-01
0.000000e+00
1.000000e+00
5.842800e-01
5.906664e-01
6.022928e-01
6.131493e-01
6.234452e-01
6.321396e-01
6.380729e-01
6.402975e-01
6.383479e-01
6.327095e-01
6.243636e-01
6.140707e-01
6.029269e-01
5.920771e-01
5.824471e-01
0.000000e+00
1.000000e+00
5.834787e-01
5.895149e-01
6.002629e-01
6.103609e-01
6.199391e-01
6.280246e-01
6.335387e-01
6.356071e-01
6.337998e-01
6.285042e-01
6.207803e-01
6.111888e-01
6.008427e-01
5.906948e-01
5.811498e-01
0.000000e+00
1.000000e+00
5.823572e-01
5.881676e-01
5.975840e-01
6.066752e-01
6.153030e-01
6.225819e-01
6.275419e-01
6.294054e-01
6.278045e-01
6.229867e-01
6.160430e-01
6.073817e-01
5.980866e-01
5.889597e-01
5.799149e-01
0.000000e+00
1.000000e+00
5.808676e-01
5.864609e-01
5.944443e-01
6.023555e-01
6.098645e-01
6.161929e-01
6.204936e-01
6.220991e-01
6.207250e-01
6.165358e-01
6.104667e-01
6.029153e-01
5.948712e-01
5.869451e-01
5.791958e-01
0.000000e+00
1.000000e+00
5.793901e-01
5.843754e-01
5.909909e-01
5.976232e-01
6.039156e-01
6.092127e-01
6.128006e-01
6.141185e-01
6.129579e-01
6.094941e-01
6.043688e-01
5.980442e-01
5.913439e-01
5.847133e-01
5.779965e-01
0.000000e+00
1.000000e+00
5.743475e-01
5.754518e-01
5.768393e-01
5.782525e-01
5.795925e-01
5.807178e-01
5.814746e-01
5.817394e-01
5.814648e-01
5.806990e-01
5.795612e-01
5.782642e-01
5.769903e-01
5.755644e-01
5.727652e-01
0.000000e+00
1.000000e+00
5.750898e-01
5.767430e-01
5.788757e-01
5.810415e-01
5.830957e-01
5.848219e-01
5.859845e-01
5.863951e-01
5.859815e-01
5.848150e-01
5.830805e-01
5.811293e-01
5.790987e-01
5.769064e-01
5.747433e-01
0.000000e+00
1.000000e+00
5.759202e-01
5.783043e-01
5.813375e-01
5.844121e-01
5.873280e-01
5.897796e-01
5.914325e-01
5.920193e-01
5.914370e-01
5.897871e-01
5.873595e-01
5.846262e-01
5.816151e-01
5.785695e-01
5.749980e-01
0.000000e+00
1.000000e+00
5.768706e-01
5.801100e-01
5.841813e-01
5.883049e-01
5.922159e-01
5.955042e-01
5.977230e-01
5.985140e-01
5.977391e-01
5.955343e-01
5.923442e-01
5.886142e-01
5.844955e-01
5.803833e-01
5.759672e-01
0.000000e+00
1.000000e+00
5.779710e-01
5.820801e-01
5.872969e-01
5.925708e-01
5.975726e-01
6.017789e-01
6.046187e-01
6.056351e-01
6.046501e-01
6.018437e-01
5.978202e-01
5.929625e-01
5.876370e-01
5.824019e-01
5.768623e-01
0.000000e+00
1.000000e+00
5.791203e-01
5.841116e-01
5.905247e-01
5.969901e-01
6.031221e-01
6.082806e-01
6.117661e-01
6.130180e-01
6.118194e-01
6.084126e-01
6.035164e-01
5.974721e-01
5.908894e-01
5.844542e-01
5.778236e-01
0.000000e+00
1.000000e+00
5.802291e-01
5.860792e-01
5.936587e-01
6.012798e-01
6.085092e-01
6.145936e-01
6.187089e-01
6.201945e-01
6.188007e-01
6.148405e-01
6.090468e-01
6.018566e-01
5.940455e-01
5.864312e-01
5.788636e-01
0.000000e+00
1.000000e+00
5.812616e-01
5.878283e-01
5.964632e-01
6.051199e-01
6.133333e-01
6.202499e-01
6.249350e-01
6.266384e-01
6.250886e-01
6.206365e-01
6.139798e-01
6.058060e-01
5.968900e-01
5.881952e-01
5.800085e-01
0.000000e+00
1.000000e+00
5.821121e-01
5.892129e-01
5.987085e-01
6.081948e-01
6.171985e-01
6.247871e-01
6.299392e-01
6.318279e-01
6.301627e-01
6.252955e-01
6.179191e-01
6.090059e-01
5.991873e-01
5.896419e-01
5.810705e-01
0.000000e+00
1.000000e+00
5.827410e-01
5.901105e-01
6.002082e-01
6.102466e-01
6.197762e-01
6.278162e-01
6.332905e-01
6.353165e-01
6.335650e-01
6.283979e-01
6.205482e-01
6.111407e-01
6.007619e-01
5.906376e-01
5.817507e-01
0.000000e+00
1.000000e+00
5.831904e-01
5.903856e-01
6.008193e-01
6.110880e-01
6.208401e-01
6.290755e-01
6.346965e-01
6.368016e-01
6.349936e-01
6.296822e-01
6.216599e-01
6.120011e-01
6.014329e-01
5.911043e-01
5.821526e-01
0.000000e+00
1.000000e+00
5.833258e-01
5.900161e-01
6.005100e-01
6.106794e-01
6.203363e-01
6.284925e-01
6.340618e-01
6.361598e-01
6.343527e-01
6.290614e-01
6.211750e-01
6.115374e-01
6.011219e-01
5.909049e-01
5.818502e-01
0.000000e+00
1.000000e+00
5.829227e-01
5.891804e-01
5.993374e-01
6.090803e-01
6.183280e-01
6.261345e-01
6.314596e-01
6.334627e-01
6.317335e-01
6.266218e-01
6.191270e-01
6.098610e-01
5.998915e-01
5.900608e-01
5.806331e-01
0.000000e+00
1.000000e+00
5.821331e-01
5.880449e-01
5.973986e-01
6.064195e-01
6.149815e-01
6.222049e-01
6.271254e-01
6.289715e-01
6.273804e-01
6.226015e-01
6.156947e-01
6.070995e-01
5.978811e-01
5.888168e-01
5.796097e-01
0.000000e+00
1.000000e+00
5.811582e-01
5.865774e-01
5.948349e-01
6.029001e-01
6.105554e-01
6.170098e-01
6.214005e-01
6.230459e-01
6.216386e-01
6.173413e-01
6.111642e-01
6.034743e-01
5.952510e-01
5.871977e-01
5.790273e-01
0.000000e+00
1.000000e+00
5.798410e-01
5.848515e-01
5.918310e-01
5.987742e-01
6.053633e-01
6.109131e-01
6.146780e-01