<?xml version="1.0"?>
<VTKFile type="StructuredGrid" version="0.1">
  <StructuredGrid WholeExtent="0 16 0 16 0 16">
    <Piece Extent="0 16 0 16 0 16">
      <PointData Scalars="temperature" Vectors="velocity">
        <DataArray type="Float32" Name="temperature" format="ascii">
1.000000e+00
5.818433e-01
5.881510e-01
5.972095e-01
6.061501e-01
6.146386e-01
6.217947e-01
6.266569e-01
6.284598e-01
6.268916e-01
6.221973e-01
6.152177e-01
6.066767e-01
5.976086e-01
5.887222e-01
5.796002e-01
0.000000e+00
1.000000e+00
5.807866e-01
5.864073e-01
5.943570e-01
6.022384e-01
6.097190e-01
6.160213e-01
6.202972e-01
6.218770e-01
6.204990e-01
6.163616e-01
6.102409e-01
6.027186e-01
5.947426e-01
5.868934e-01
5.789280e-01
0.000000e+00
1.000000e+00
5.795361e-01
5.844329e-01
5.911423e-01
5.978333e-01
6.041829e-01
6.095289e-01
6.131493e-01
6.144754e-01
6.133044e-01
6.098016e-01
6.046012e-01
5.982093e-01
5.914648e-01
5.848021e-01
5.780176e-01
0.000000e+00
1.000000e+00
5.782061e-01
5.822615e-01
5.876509e-01
5.930520e-01
5.981762e-01
6.024881e-01
6.054025e-01
6.064574e-01
6.055006e-01
6.026999e-01
5.985032e-01
5.933605e-01
5.879474e-01
5.825620e-01
5.770149e-01
0.000000e+00
1.000000e+00
5.768878e-01
5.799702e-01
5.840023e-01
5.880574e-01
5.919037e-01
5.951386e-01
5.973215e-01
5.981010e-01
5.973622e-01
5.952810e-01
5.921444e-01
5.883063e-01
5.842776e-01
5.802232e-01
5.759220e-01
0.000000e+00
1.000000e+00
5.756263e-01
5.776640e-01
5.803491e-01
5.830572e-01
5.856259e-01
5.877856e-01
5.892412e-01
5.897548e-01
5.892408e-01
5.878430e-01
5.857779e-01
5.832415e-01
5.806010e-01
5.778839e-01
5.748311e-01
0.000000e+00
1.000000e+00
5.744534e-01
5.754586e-01
5.768654e-01
5.782885e-01
5.796384e-01
5.807727e-01
5.815356e-01
5.818012e-01
5.815210e-01
5.807608e-01
5.796878e-01
5.783908e-01
5.770786e-01
5.756507e-01
5.737571e-01
0.000000e+00
1.000000e+00
5.734031e-01
5.734673e-01
5.737277e-01
5.739925e-01
5.742435e-01
5.744541e-01
5.745946e-01
5.746403e-01
5.745825e-01
5.744336e-01
5.742598e-01
5.740493e-01
5.738804e-01
5.736286e-01
5.727901e-01
0.000000e+00
1.000000e+00
5.725435e-01
5.717942e-01
5.711007e-01
5.703952e-01
5.697263e-01
5.691643e-01
5.687855e-01
5.686500e-01
5.687829e-01
5.691653e-01
5.697777e-01
5.704593e-01
5.712264e-01
5.719477e-01
5.719395e-01
0.000000e+00
1.000000e+00
5.718772e-01
5.705311e-01
5.691226e-01
5.676857e-01
5.663234e-01
5.651794e-01
5.644097e-01
5.641383e-01
5.644148e-01
5.651978e-01
5.663882e-01
5.677568e-01
5.692349e-01
5.706631e-01
5.713918e-01
0.000000e+00
1.000000e+00
5.714473e-01
5.697333e-01
5.678713e-01
5.659720e-01
5.641712e-01
5.626593e-01
5.616431e-01
5.612870e-01
5.616548e-01
5.626936e-01
5.642429e-01
5.660527e-01
5.679686e-01
5.698062e-01
5.713748e-01
0.000000e+00
1.000000e+00
5.713083e-01
5.694147e-01
5.673736e-01
5.652914e-01
5.633175e-01
5.616603e-01
5.605467e-01
5.601572e-01
5.605623e-01
5.617025e-01
5.633958e-01
5.653852e-01
5.674677e-01
5.694817e-01
5.712386e-01
0.000000e+00
1.000000e+00
5.713464e-01
5.695637e-01
5.676074e-01
5.656120e-01
5.637208e-01
5.621331e-01
5.610660e-01
5.606927e-01
5.610810e-01
5.621740e-01
5.638036e-01
5.657224e-01
5.677138e-01
5.696518e-01
5.710583e-01
0.000000e+00
1.000000e+00
5.716083e-01
5.701386e-01
5.685028e-01
5.668384e-01
5.652610e-01
5.639368e-01
5.630464e-01
5.627342e-01
5.630569e-01
5.639676e-01
5.653413e-01
5.669683e-01
5.686335e-01
5.702389e-01
5.714631e-01
0.000000e+00
1.000000e+00
5.720827e-01
5.710686e-01
5.699559e-01
5.688280e-01
5.677593e-01
5.668623e-01
5.662590e-01
5.660463e-01
5.662628e-01
5.668772e-01
5.678249e-01
5.689793e-01
5.701164e-01
5.711994e-01
5.719055e-01
0.000000e+00
1.000000e+00
5.727185e-01
5.722728e-01
5.718447e-01
5.714144e-01
5.710071e-01
5.706657e-01
5.704360e-01
5.703540e-01
5.704334e-01
5.706638e-01
5.710430e-01
5.715674e-01
5.720258e-01
5.724411e-01
5.724112e-01
0.000000e+00
1.000000e+00
5.734617e-01
5.736713e-01
5.740441e-01
5.744263e-01
5.747894e-01
5.750952e-01
5.753013e-01
5.753730e-01
5.752963e-01
5.750856e-01
5.747964e-01
5.745514e-01
5.742654e-01
5.738854e-01
5.728715e-01
0.000000e+00
1.000000e+00
5.830054e-01
5.893365e-01
5.994789e-01
6.092751e-01
6.185739e-01
6.264183e-01
6.317554e-01
6.337387e-01
6.320037e-01
6.268523e-01
6.192148e-01
6.098491e-01
5.998813e-01
5.901380e-01
5.805111e-01
0.000000e+00
1.000000e+00
5.819946e-01
5.877010e-01
5.967838e-01
6.055791e-01
6.139269e-01
6.209662e-01
6.257526e-01
6.275304e-01
6.259735e-01
6.213358e-01
6.145457e-01
6.061527e-01
5.972256e-01
5.884465e-01
5.798134e-01
0.000000e+00
1.000000e+00
5.806813e-01
5.858958e-01
5.936910e-01
6.013345e-01
6.085895e-01
6.147043e-01
6.188567e-01
6.203918e-01
6.190427e-01
6.150127e-01
6.091091e-01
6.017955e-01
5.940665e-01
5.864400e-01
5.788321e-01
0.000000e+00
1.000000e+00
5.792887e-01
5.838366e-01
5.902728e-01
5.966465e-01
6.026956e-01
6.077904e-01
6.112448e-01
6.125138e-01
6.113910e-01
6.080409e-01
6.031120e-01
5.970236e-01
5.906067e-01
5.842416e-01
5.778038e-01
0.000000e+00
1.000000e+00
5.778992e-01
5.815989e-01
5.866440e-01
5.916745e-01
5.964473e-01
6.004643e-01
6.031824e-01
6.041718e-01
6.032835e-01
6.006564e-01
5.967644e-01
5.919785e-01
5.869448e-01
5.819115e-01
5.766923e-01
0.000000e+00
1.000000e+00
5.765687e-01
5.792938e-01
5.829593e-01
5.866293e-01
5.901104e-01
5.930382e-01
5.950150e-01
5.957253e-01
5.950657e-01
5.931653e-01
5.903315e-01
5.868667e-01
5.832274e-01
5.795442e-01
5.755810e-01
0.000000e+00
1.000000e+00
5.753503e-01
5.770538e-01
5.794041e-01
5.817624e-01
5.839993e-01
5.858797e-01
5.871469e-01
5.875952e-01
5.871546e-01
5.859303e-01
5.841263e-01
5.819246e-01
5.796392e-01
5.772620e-01
5.745000e-01
0.000000e+00
1.000000e+00
5.742385e-01
5.750138e-01
5.761711e-01
5.773369e-01
5.784424e-01
5.793711e-01
5.799956e-01
5.802135e-01
5.799858e-01
5.793685e-01
5.784834e-01
5.774105e-01
5.763449e-01
5.751754e-01
5.735181e-01
0.000000e+00
1.000000e+00
5.733211e-01
5.732806e-01
5.734374e-01
5.735952e-01
5.737450e-01
5.738708e-01
5.739549e-01
5.739826e-01
5.739483e-01
5.738618e-01
5.737589e-01
5.736309e-01
5.735477e-01
5.734087e-01
5.726330e-01
0.000000e+00
1.000000e+00
5.726299e-01
5.719574e-01
5.713650e-01
5.707561e-01
5.701791e-01
5.696942e-01
5.693674e-01
5.692504e-01
5.693636e-01
5.696913e-01
5.702042e-01
5.707882e-01
5.714363e-01
5.720677e-01
5.720512e-01
0.000000e+00
1.000000e+00
5.722075e-01
5.711083e-01
5.700360e-01
5.689368e-01
5.678948e-01
5.670197e-01
5.664309e-01
5.662232e-01
5.664330e-01
5.670310e-01
5.679340e-01
5.689800e-01
5.700947e-01
5.711788e-01
5.720408e-01
0.000000e+00
1.000000e+00
5.720062e-01
5.707572e-01
5.694882e-01
5.681869e-01
5.669535e-01
5.659176e-01
5.652208e-01
5.649759e-01
5.652264e-01
5.659361e-01
5.670009e-01
5.682469e-01
5.695516e-01
5.708256e-01
5.718890e-01
0.000000e+00
1.000000e+00
5.720268e-01
5.708925e-01
5.696965e-01
5.684723e-01
5.673119e-01
5.663375e-01
5.656818e-01
5.654511e-01
5.656869e-01
5.663547e-01
5.673609e-01
5.685501e-01
5.697748e-01
5.709763e-01
5.717313e-01
0.000000e+00
1.000000e+00
5.723124e-01
5.714638e-01
5.705866e-01
5.696913e-01
5.688427e-01
5.681300e-01
5.676503e-01
5.674809e-01
5.676520e-01
5.681388e-01
5.688841e-01
5.697887e-01
5.706893e-01
5.715624e-01
5.721188e-01
0.000000e+00
1.000000e+00
5.727992e-01
5.723968e-01
5.720476e-01
5.716917e-01
5.713547e-01
5.710717e-01
5.708810e-01
5.708127e-01
5.708784e-01
5.710694e-01
5.713779e-01
5.717957e-01
5.721772e-01
5.725242e-01
5.725341e-01
0.000000e+00
1.000000e+00
5.734534e-01
5.736061e-01
5.739493e-01
5.742962e-01
5.746256e-01
5.749026e-01
5.750890e-01
5.751536e-01
5.750842e-01
5.748940e-01
5.746299e-01
5.743838e-01
5.741198e-01
5.737705e-01
5.731075e-01
0.000000e+00
1.000000e+00
5.741999e-01
5.750084e-01
5.761593e-01
5.773229e-01
5.784268e-01
5.793551e-01
5.799809e-01
5.802020e-01
5.799784e-01
5.793486e-01
5.784309e-01
5.774237e-01
5.763927e-01
5.752226e-01
5.735552e-01
0.000000e+00
1.000000e+00
5.838454e-01
5.900347e-01
6.012978e-01
6.117740e-01
6.217114e-01
6.300979e-01
6.358081e-01
6.379295e-01
6.360472e-01
6.305699e-01
6.224132e-01
6.123991e-01
6.016996e-01
5.912781e-01
5.810955e-01
0.000000e+00
1.000000e+00
5.828229e-01
5.885702e-01
5.987741e-01
6.083128e-01
6.173597e-01
6.249916e-01
6.301867e-01
6.321156e-01
6.303902e-01
6.254065e-01
6.180371e-01
6.089290e-01
5.992160e-01
5.897029e-01
5.804446e-01
0.000000e+00
1.000000e+00
5.815840e-01
5.869678e-01
5.958058e-01
6.042383e-01
6.122381e-01
6.189837e-01
6.235720e-01
6.252721e-01
6.237478e-01
6.193411e-01
6.128219e-01
6.047446e-01
5.961847e-01
5.877800e-01
5.794914e-01
0.000000e+00
1.000000e+00
5.802168e-01
5.850514e-01
5.924634e-01
5.996520e-01
6.064734e-01
6.122220e-01
6.161277e-01
6.175723e-01
6.162776e-01
6.125143e-01
6.069534e-01
6.000671e-01
5.927967e-01
5.856300e-01
5.784723e-01
0.000000e+00
1.000000e+00
5.788140e-01
5.828905e-01
5.888619e-01
5.947142e-01
6.002674e-01
6.049442e-01
6.081165e-01
6.092858e-01
6.082367e-01
6.051681e-01
6.006459e-01
5.950492e-01
5.891562e-01
5.833160e-01
5.773677e-01
0.000000e+00
1.000000e+00
5.774265e-01
5.806164e-01
5.851585e-01
5.896406e-01
5.938928e-01
5.974710e-01
5.998930e-01
6.007798e-01
5.999761e-01
5.976306e-01
5.941724e-01
5.898998e-01
5.854105e-01
5.809326e-01
5.762431e-01
0.000000e+00
1.000000e+00
5.761395e-01
5.783653e-01
5.815439e-01
5.846911e-01
5.876759e-01
5.901860e-01
5.918815e-01
5.924962e-01
5.919266e-01
5.902849e-01
5.878609e-01
5.848789e-01
5.817544e-01
5.786054e-01
5.751402e-01
0.000000e+00
1.000000e+00
5.749807e-01
5.762892e-01
5.782264e-01
5.801492e-01
5.819724e-01
5.835047e-01
5.845380e-01
5.849086e-01
5.845538e-01
5.835420e-01
5.820654e-01
5.802561e-01
5.783941e-01
5.764711e-01
5.741442e-01
0.000000e+00
1.000000e+00
5.740186e-01
5.745118e-01
5.753965e-01
5.762765e-01
5.771112e-01
5.778127e-01
5.782856e-01
5.784540e-01
5.782881e-01
5.778206e-01
5.771404e-01
5.763113e-01
5.754995e-01
5.746407e-01
5.732485e-01
0.000000e+00
1.000000e+00
5.732929e-01
5.731358e-01
5.732331e-01
5.733140e-01
5.733912e-01
5.734565e-01
5.735005e-01
5.735151e-01
5.734964e-01
5.734507e-01
5.733901e-01
5.733178e-01
5.732805e-01
5.732312e-01
5.726275e-01
0.000000e+00
1.000000e+00
5.728132e-01
5.722437e-01
5.718348e-01
5.713997e-01
5.709873e-01
5.706409e-01
5.704076e-01
5.703246e-01
5.704054e-01
5.706390e-01
5.709943e-01
5.714065e-01
5.718550e-01
5.723091e-01
5.725253e-01
0.000000e+00
1.000000e+00
5.725517e-01
5.718661e-01
5.712396e-01
5.705847e-01
5.699637e-01
5.694420e-01
5.690907e-01
5.689666e-01
5.690914e-01
5.694468e-01
5.699846e-01
5.706113e-01
5.712610e-01
5.719313e-01
5.723386e-01
0.000000e+00
1.000000e+00
5.725912e-01
5.719896e-01
5.714248e-01
5.708386e-01
5.702830e-01
5.698162e-01
5.695018e-01
5.693906e-01
5.695024e-01
5.698208e-01
5.703052e-01
5.708855e-01
5.714650e-01
5.720630e-01
5.722509e-01
0.000000e+00
1.000000e+00
5.728890e-01
5.725591e-01
5.723127e-01
5.720547e-01
5.718100e-01
5.716045e-01
5.714659e-01
5.714161e-01
5.714637e-01
5.716027e-01
5.718228e-01
5.721079e-01
5.723764e-01
5.726477e-01
5.725518e-01
0.000000e+00
1.000000e+00
5.733901e-01
5.734969e-01
5.737841e-01
5.740695e-01
5.743404e-01
5.745681e-01
5.747212e-01
5.747742e-01
5.747170e-01
5.745604e-01
5.743401e-01
5.741197e-01
5.738921e-01
5.736179e-01
5.729399e-01
0.000000e+00
1.000000e+00
5.740625e-01
5.747130e-01
5.757008e-01
5.766945e-01
5.776372e-01
5.784296e-01
5.789634e-01
5.791518e-01
5.789600e-01
5.784216e-01
5.776338e-01
5.767637e-01
5.758744e-01
5.748791e-01
5.735453e-01
0.000000e+00
1.000000e+00
5.748164e-01
5.761219e-01
5.779234e-01
5.797381e-01
5.814595e-01
5.829070e-01
5.838832e-01
5.842299e-01
5.838844e-01
5.829064e-01
5.814898e-01
5.798793e-01
5.781548e-01
5.763321e-01
5.740950e-01
0.000000e+00
1.000000e+00
5.842395e-01
5.906416e-01
6.025341e-01
6.134592e-01
6.238224e-01
6.325713e-01
6.385340e-01
6.407452e-01
6.387662e-01
6.330796e-01
6.245830e-01
6.141384e-01
6.029332e-01
5.920307e-01
5.814916e-01
0.000000e+00
1.000000e+00
5.833793e-01
5.892068e-01
6.001651e-01
6.102171e-01
6.197501e-01
6.277961e-01
6.332784e-01
6.353132e-01
6.334707e-01
6.282552e-01
6.204766e-01
6.108693e-01
6.006014e-01
5.905605e-01
5.808596e-01
0.000000e+00
1.000000e+00
5.823204e-01
5.876445e-01
5.973142e-01
6.063118e-01
6.148449e-01
6.220434e-01
6.269451e-01
6.287647e-01
6.271087e-01
6.224466e-01
6.154824e-01
6.068641e-01
5.977102e-01
5.887324e-01
5.799578e-01
0.000000e+00
1.000000e+00
5.810372e-01
5.858312e-01
5.940497e-01
6.018340e-01
6.092185e-01
6.154442e-01
6.196797e-01
6.212514e-01
6.198187e-01
6.157840e-01
6.097485e-01
6.022869e-01
5.943965e-01
5.866319e-01
5.789557e-01
0.000000e+00
1.000000e+00
5.796373e-01
5.837439e-01
5.904809e-01
5.969393e-01
6.030671e-01
6.082299e-01
6.117377e-01
6.130376e-01
6.118525e-01
6.085014e-01
6.034905e-01
5.973059e-01
5.907861e-01
5.843382e-01
5.778662e-01
0.000000e+00
1.000000e+00
5.781800e-01
5.815114e-01
5.867664e-01
5.918473e-01
5.966681e-01
6.007271e-01
6.034803e-01
6.044965e-01
6.035696e-01
6.009260e-01
5.969898e-01
5.921324e-01
5.870253e-01
5.819466e-01
5.767350e-01
0.000000e+00
1.000000e+00
5.767779e-01
5.792705e-01
5.831049e-01
5.868305e-01
5.903651e-01
5.933393e-01
5.953527e-01
5.960892e-01
5.954113e-01
5.934639e-01
5.905905e-01
5.870384e-01
5.833131e-01
5.795842e-01
5.756122e-01
0.000000e+00
1.000000e+00
5.755351e-01
5.771774e-01
5.797162e-01
5.821892e-01
5.845349e-01
5.865074e-01
5.878400e-01
5.883212e-01
5.878665e-01
5.865647e-01
5.846660e-01
5.823198e-01
5.798758e-01
5.773958e-01
5.745985e-01
0.000000e+00
1.000000e+00
5.745333e-01
5.753641e-01
5.768069e-01
5.782067e-01
5.795344e-01
5.806508e-01
5.814042e-01
5.816736e-01
5.814110e-01
5.806685e-01
5.795896e-01
5.782608e-01
5.769121e-01
5.755179e-01
5.737142e-01
0.000000e+00
1.000000e+00
5.737469e-01
5.739493e-01
5.745657e-01
5.751378e-01
5.756805e-01
5.761367e-01
5.764442e-01
5.765523e-01
5.764416e-01
5.761348e-01
5.756816e-01
5.751342e-01
5.746022e-01
5.740595e-01
5.730758e-01
0.000000e+00
1.000000e+00
5.731993e-01
5.730323e-01
5.731047e-01
5.731379e-01
5.731694e-01
5.731957e-01
5.732131e-01
5.732186e-01
5.732104e-01
5.731902e-01
5.731600e-01
5.731252e-01
5.731053e-01
5.731003e-01
5.728757e-01
0.000000e+00
1.000000e+00
5.729510e-01
5.726394e-01
5.724690e-01
5.722685e-01
5.720783e-01
5.719183e-01
5.718104e-01
5.717721e-01
5.718100e-01
5.719186e-01
5.720821e-01
5.722701e-01
5.724633e-01
5.726945e-01
5.726239e-01
0.000000e+00
1.000000e+00
5.729970e-01
5.727584e-01
5.726416e-01
5.725051e-01
5.723756e-01
5.722668e-01
5.721933e-01
5.721671e-01
5.721927e-01
5.722669e-01
5.723817e-01
5.725185e-01
5.726495e-01
5.728116e-01
5.726244e-01
0.000000e+00
1.000000e+00
5.733021e-01
5.733328e-01
5.735365e-01
5.737305e-01
5.739144e-01
5.740690e-01
5.741728e-01
5.742087e-01
5.741700e-01
5.740641e-01
5.739132e-01
5.737474e-01
5.735775e-01
5.734095e-01
5.728436e-01
0.000000e+00
1.000000e+00
5.738168e-01
5.742820e-01
5.750270e-01
5.757715e-01
5.764777e-01
5.770711e-01
5.774707e-01
5.776113e-01
5.774668e-01
5.770620e-01
5.764676e-01
5.758025e-01
5.751271e-01
5.743979e-01
5.732910e-01
0.000000e+00
1.000000e+00
5.744917e-01
5.755128e-01
5.769674e-01
5.784287e-01
5.798146e-01
5.809796e-01
5.817649e-01
5.820430e-01
5.817634e-01
5.809738e-01
5.798201e-01
5.785253e-01
5.771415e-01
5.756737e-01
5.739047e-01
0.000000e+00
1.000000e+00
5.752630e-01
5.769351e-01
5.792121e-01
5.815024e-01
5.836746e-01
5.855010e-01
5.867332e-01
5.871717e-01
5.867384e-01
5.855117e-01
5.837400e-01
5.816777e-01
5.794282e-01
5.771342e-01
5.744818e-01
0.000000e+00
1.000000e+00
5.843334e-01
5.910259e-01
6.030536e-01
6.141799e-01
6.247308e-01
6.336365e-01
6.397049e-01
6.419560e-01
6.399487e-01
6.341617e-01
6.255377e-01
6.149142e-01
6.034781e-01
5.923570e-01
5.816650e-01
0.000000e+00
1.000000e+00
5.836147e-01
5.897621e-01
6.008353e-01
6.111406e-01
6.209114e-01
6.291558e-01
6.347711e-01
6.368501e-01
6.349776e-01
6.296364e-01
6.216659e-01
6.118102e-01
6.012693e-01
5.909711e-01
5.810460e-01
0.000000e+00
1.000000e+00
5.824921e-01
5.883342e-01
5.981052e-01
6.073903e-01
6.161976e-01
6.236274e-01
6.286865e-01
6.305588e-01
6.288624e-01
6.240542e-01
6.168652e-01
6.079665e-01
5.985060e-01
5.892292e-01
5.801878e-01
0.000000e+00
1.000000e+00
5.811640e-01
5.865299e-01
5.949144e-01
6.030113e-01
6.106944e-01
6.171733e-01
6.215820e-01
6.232120e-01
6.217323e-01
6.175378e-01
6.112534e-01
6.034839e-01
5.952614e-01
5.871736e-01
5.792085e-01
0.000000e+00
1.000000e+00
5.798242e-01
5.844062e-01
5.913745e-01
5.981579e-01
6.045950e-01
6.100196e-01
6.137063e-01
6.150667e-01
6.138315e-01
6.103156e-01
6.050423e-01
5.985401e-01
5.916803e-01
5.848989e-01
5.781310e-01
0.000000e+00
1.000000e+00
5.784088e-01
5.821360e-01
5.876500e-01
5.930533e-01
5.981798e-01
6.024966e-01
6.054247e-01
6.065008e-01
6.055231e-01
6.027179e-01
5.985176e-01
5.933478e-01
5.879063e-01
5.824991e-01
5.769887e-01
0.000000e+00
1.000000e+00
5.770316e-01
5.798417e-01
5.839418e-01
5.879746e-01
5.917997e-01
5.950181e-01
5.971967e-01
5.979921e-01
5.972645e-01
5.951660e-01
5.920367e-01
5.881899e-01
5.841494e-01
5.801103e-01
5.758537e-01
0.000000e+00
1.000000e+00
5.757831e-01
5.776887e-01
5.804836e-01
5.832392e-01
5.858526e-01
5.880503e-01
5.895354e-01
5.900727e-01
5.895714e-01
5.881305e-01
5.859987e-01
5.833822e-01
5.806409e-01
5.778747e-01
5.748840e-01
0.000000e+00
1.000000e+00
5.747628e-01
5.758202e-01
5.774967e-01
5.791524e-01
5.807229e-01
5.820437e-01
5.829359e-01
5.832570e-01
5.829512e-01
5.820763e-01
5.807948e-01
5.792301e-01
5.776179e-01
5.759482e-01
5.740549e-01
0.000000e+00
1.000000e+00
5.739789e-01
5.743599e-01
5.751876e-01
5.759905e-01
5.767524e-01
5.773932e-01
5.778254e-01
5.779792e-01
5.778275e-01
5.773995e-01
5.767693e-01
5.760028e-01
5.752379e-01
5.744408e-01
5.733796e-01
0.000000e+00
1.000000e+00
5.734373e-01
5.734077e-01
5.736849e-01
5.739323e-01
5.741668e-01
5.743638e-01
5.744962e-01
5.745426e-01
5.744940e-01
5.743589e-01
5.741579e-01
5.739189e-01
5.736870e-01
5.734454e-01
5.730498e-01
0.000000e+00
1.000000e+00
5.731753e-01
5.729964e-01
5.730298e-01
5.730358e-01
5.730414e-01
5.730460e-01
5.730490e-01
5.730500e-01
5.730486e-01
5.730447e-01
5.730374e-01
5.730275e-01
5.730179e-01
5.730330e-01
5.728596e-01
0.000000e+00
1.000000e+00
5.732010e-01
5.731140e-01
5.732040e-01
5.732747e-01
5.733418e-01
5.733981e-01
5.734358e-01
5.734490e-01
5.734351e-01
5.733967e-01
5.733400e-01
5.732714e-01
5.732031e-01
5.731524e-01
5.728839e-01
0.000000e+00
1.000000e+00
5.735084e-01
5.737011e-01
5.741195e-01
5.745287e-01
5.749167e-01
5.752426e-01
5.754620e-01
5.755388e-01
5.754592e-01
5.752369e-01
5.749094e-01
5.745304e-01
5.741583e-01
5.737740e-01
5.729828e-01
0.000000e+00
1.000000e+00
5.740267e-01
5.746719e-01
5.756439e-01
5.766161e-01
5.775380e-01
5.783127e-01
5.788345e-01
5.790183e-01
5.788304e-01
5.783023e-01
5.775235e-01
5.766482e-01
5.757503e-01
5.747828e-01
5.734205e-01
0.000000e+00
1.000000e+00
5.747052e-01
5.759284e-01
5.776235e-01
5.793269e-01
5.809423e-01
5.823003e-01
5.832158e-01
5.835404e-01
5.832153e-01
5.822968e-01
5.809559e-01
5.794423e-01
5.778114e-01
5.760802e-01
5.740458e-01
0.000000e+00
1.000000e+00
5.755042e-01
5.773737e-01
5.799069e-01
5.824537e-01
5.848692e-01
5.869003e-01
5.882708e-01
5.887593e-01
5.882797e-01
5.869214e-01
5.849500e-01
5.826395e-01
5.801203e-01
5.775607e-01
5.746865e-01
0.000000e+00
1.000000e+00
5.842548e-01
5.911446e-01
6.027975e-01
6.138360e-01
6.243076e-01
6.331451e-01
6.391644e-01
6.414044e-01
6.394332e-01
6.336691e-01
6.251397e-01
6.145899e-01
6.032368e-01
5.922414e-01
5.816218e-01
0.000000e+00
1.000000e+00
5.834663e-01
5.899652e-01
6.006921e-01
6.109474e-01
6.206771e-01
6.288854e-01
6.344713e-01
6.365390e-01
6.347089e-01
6.293712e-01
6.214437e-01
6.116183e-01
6.011273e-01
5.909086e-01
5.810016e-01
0.000000e+00
1.000000e+00
5.822741e-01
5.884971e-01
5.980506e-01
6.073172e-01
6.161117e-01
6.235279e-01
6.285724e-01
6.304347e-01
6.287798e-01
6.239615e-01
6.167932e-01
6.079090e-01
5.984681e-01
5.892230e-01
5.801809e-01
0.000000e+00
1.000000e+00
5.810023e-01
5.866463e-01
5.949182e-01
6.030172e-01
6.107030e-01
6.171813e-01
6.215842e-01
6.232050e-01
6.217616e-01
6.175524e-01
6.112710e-01
6.034999e-01
5.952784e-01
5.871997e-01
5.792175e-01
0.000000e+00
1.000000e+00
5.797146e-01
5.844974e-01
5.913974e-01
5.981894e-01
6.046343e-01
6.100633e-01
6.137483e-01
6.150997e-01
6.138953e-01
6.103663e-01
6.050885e-01
5.985817e-01
5.917177e-01
5.849368e-01
5.781425e-01
0.000000e+00
1.000000e+00
5.783467e-01
5.821846e-01
5.876528e-01
5.930589e-01
5.981880e-01
6.025060e-01
6.054318e-01
6.064991e-01
6.055451e-01
6.027392e-01
5.985343e-01
5.933686e-01
5.879287e-01
5.825280e-01
5.769901e-01
0.000000e+00
1.000000e+00
5.770103e-01
5.798454e-01
5.838989e-01
5.879182e-01
5.917309e-01
5.949392e-01
5.971089e-01
5.978951e-01
5.971846e-01
5.951044e-01
5.919774e-01
5.881523e-01
5.841297e-01
5.801146e-01
5.758411e-01
0.000000e+00
1.000000e+00
5.757497e-01
5.776532e-01
5.803834e-01
5.831037e-01
5.856838e-01
5.878534e-01
5.893175e-01
5.898436e-01
5.893551e-01
5.879455e-01
5.858370e-01
5.832617e-01
5.805644e-01
5.778441e-01
5.749012e-01
0.000000e+00
1.000000e+00
5.746931e-01
5.757424e-01
5.773376e-01
5.789351e-01
5.804499e-01
5.817233e-01
5.825823e-01
5.828899e-01
5.825968e-01
5.817598e-01
5.805243e-01
5.790193e-01
5.774764e-01
5.758712e-01
5.741459e-01
0.000000e+00
1.000000e+00
5.739120e-01
5.742446e-01
5.749786e-01
5.757047e-01
5.763936e-01
5.769729e-01
5.773636e-01
5.775025e-01
5.773654e-01
5.769794e-01
5.764102e-01
5.757239e-01
5.750421e-01
5.743158e-01
5.734627e-01
0.000000e+00
1.000000e+00
5.733621e-01
5.732696e-01
5.734483e-01
5.736083e-01
5.737599e-01
5.738871e-01
5.739725e-01
5.740016e-01
5.739687e-01
5.738794e-01
5.737494e-01
5.736022e-01
5.734603e-01
5.732974e-01
5.729697e-01
0.000000e+00
1.000000e+00
5.731164e-01
5.728539e-01
5.727914e-01
5.727092e-01
5.726311e-01
5.725654e-01
5.725209e-01
5.725048e-01
5.725193e-01
5.725611e-01
5.726239e-01
5.727056e-01
5.727865e-01
5.728597e-01
5.728059e-01
0.000000e+00
1.000000e+00
5.731498e-01
5.729819e-01
5.729887e-01
5.729795e-01
5.729707e-01
5.729631e-01
5.729578e-01
5.729554e-01
5.729562e-01
5.729592e-01
5.729639e-01
5.729774e-01
5.729947e-01
5.729879e-01
5.728094e-01
0.000000e+00
1.000000e+00
5.734506e-01
5.735939e-01
5.739460e-01
5.742906e-01
5.746174e-01
5.748918e-01
5.750763e-01
5.751405e-01
5.750726e-01
5.748838e-01
5.746050e-01
5.742841e-01
5.739863e-01
5.736368e-01
5.730633e-01
0.000000e+00
1.000000e+00
5.739787e-01
5.746002e-01
5.755251e-01
5.764533e-01
5.773333e-01
5.780728e-01
5.785706e-01
5.787456e-01
5.785656e-01
5.780604e-01
5.773125e-01
5.764672e-01
5.756332e-01
5.746868e-01
5.734537e-01
0.000000e+00
1.000000e+00
5.747021e-01
5.758941e-01
5.775654e-01
5.792473e-01
5.808423e-01
5.821830e-01
5.830867e-01
5.834067e-01
5.830853e-01
5.821779e-01
5.808452e-01
5.793421e-01
5.777636e-01
5.760257e-01
5.740278e-01
0.000000e+00
1.000000e+00
5.755208e-01
5.773752e-01
5.799101e-01
5.824583e-01
5.848750e-01
5.869070e-01
5.882780e-01
5.887666e-01
5.882869e-01
5.869285e-01
5.849486e-01
5.826355e-01
5.801330e-01
5.775465e-01
5.746683e-01
0.000000e+00
1.000000e+00
5.836429e-01
5.908007e-01
6.017667e-01
6.124082e-01
6.225123e-01
6.310399e-01
6.368485e-01
6.390167e-01
6.371360e-01
6.315473e-01
6.233396e-01
6.131345e-01
6.021901e-01
5.915857e-01
5.813070e-01
0.000000e+00
1.000000e+00
5.828703e-01
5.896009e-01
5.997257e-01
6.096074e-01
6.189905e-01
6.269063e-01
6.322904e-01
6.342918e-01
6.325526e-01
6.273864e-01
6.197448e-01
6.102499e-01
6.001497e-01
5.903023e-01
5.806915e-01
0.000000e+00
1.000000e+00
5.818003e-01
5.880600e-01
5.971265e-01
6.060395e-01
6.145034e-01
6.216408e-01
6.264895e-01
6.282852e-01
6.267226e-01
6.220729e-01
6.151755e-01
6.066193e-01
5.975472e-01
5.886517e-01
5.798981e-01
0.000000e+00
1.000000e+00
5.805926e-01
5.861695e-01
5.940103e-01
6.017670e-01
6.091318e-01
6.153392e-01
6.195506e-01
6.211016e-01
6.197464e-01
6.157117e-01
6.096948e-01
6.022522e-01
5.943889e-01
5.866471e-01
5.789403e-01
0.000000e+00
1.000000e+00
5.793123e-01
5.839901e-01
5.904818e-01
5.969330e-01
6.030568e-01
6.082152e-01
6.117093e-01
6.129871e-01
6.118633e-01
6.085232e-01
6.035097e-01
5.973370e-01
5.908287e-01
5.843833e-01
5.778646e-01
0.000000e+00
1.000000e+00
5.779476e-01
5.816429e-01
5.867100e-01
5.917668e-01
5.965656e-01
6.006052e-01
6.033366e-01
6.043267e-01
6.034423e-01
6.008426e-01
5.969116e-01
5.920928e-01
5.870176e-01
5.819598e-01
5.767087e-01
0.000000e+00
1.000000e+00
5.765969e-01
5.792683e-01
5.829145e-01
5.865694e-01
5.900366e-01
5.929530e-01
5.949212e-01
5.956269e-01
5.949761e-01
5.931075e-01
5.902804e-01
5.868190e-01
5.831761e-01
5.795159e-01
5.755435e-01
0.000000e+00
1.000000e+00
5.753353e-01
5.770248e-01
5.793463e-01
5.816840e-01
5.839012e-01
5.857648e-01
5.870201e-01
5.874652e-01
5.870352e-01
5.858294e-01
5.840401e-01
5.818468e-01
5.795643e-01
5.772143e-01
5.745811e-01
0.000000e+00
1.000000e+00
5.742821e-01
5.750686e-01
5.762544e-01
5.774517e-01
5.785871e-01
5.795411e-01
5.801834e-01
5.804098e-01
5.801826e-01
5.795518e-01
5.786335e-01
5.775215e-01
5.764072e-01
5.751973e-01
5.738365e-01
0.000000e+00
1.000000e+00
5.734958e-01
5.735481e-01
5.738625e-01
5.741764e-01
5.744743e-01
5.747246e-01
5.748928e-01
5.749509e-01
5.748880e-01
5.747174e-01
5.744762e-01
5.742049e-01
5.739439e-01
5.736200e-01
5.731474e-01
0.000000e+00
1.000000e+00
5.729625e-01
5.725645e-01
5.723219e-01
5.720660e-01
5.718232e-01
5.716189e-01
5.714805e-01
5.714296e-01
5.714742e-01
5.716072e-01
5.718165e-01
5.720867e-01
5.723600e-01
5.726016e-01
5.726101e-01
0.000000e+00
1.000000e+00
5.727219e-01
5.721574e-01
5.716836e-01
5.711921e-01
5.707258e-01
5.703336e-01
5.700689e-01
5.699741e-01
5.700652e-01
5.703261e-01
5.707221e-01
5.712159e-01
5.717027e-01
5.721812e-01
5.724121e-01
0.000000e+00
1.000000e+00
5.727935e-01
5.723110e-01
5.719234e-01
5.715209e-01
5.711390e-01
5.708178e-01
5.706010e-01
5.705234e-01
5.705982e-01
5.708117e-01
5.711329e-01
5.715468e-01
5.719494e-01
5.723434e-01
5.724014e-01
0.000000e+00
1.000000e+00
5.731022e-01
5.729628e-01
5.729449e-01
5.729197e-01
5.728957e-01
5.728752e-01
5.728608e-01
5.728542e-01
5.728559e-01
5.728652e-01
5.728809e-01
5.729338e-01
5.729947e-01
5.730007e-01
5.728515e-01
0.000000e+00
1.000000e+00
5.736540e-01
5.740193e-01
5.746025e-01
5.751898e-01
5.757467e-01
5.762145e-01
5.765290e-01
5.766385e-01
5.765224e-01
5.762000e-01
5.757222e-01
5.751956e-01
5.747050e-01
5.740983e-01
5.733438e-01
0.000000e+00
1.000000e+00
5.744178e-01
5.753680e-01
5.767285e-01
5.781013e-01
5.794032e-01
5.804976e-01
5.812350e-01
5.814953e-01
5.812311e-01
5.804875e-01
5.793870e-01
5.781599e-01
5.769249e-01
5.754971e-01
5.739272e-01
0.000000e+00
1.000000e+00
5.752715e-01
5.769036e-01
5.791603e-01
5.814316e-01
5.835858e-01
5.853970e-01
5.866186e-01
5.870531e-01
5.866232e-01
5.854074e-01
5.836292e-01
5.815898e-01
5.794014e-01
5.770727e-01
5.745081e-01
0.000000e+00
1.000000e+00
5.828414e-01
5.898388e-01
5.999760e-01
6.099393e-01
6.194007e-01
6.273837e-01
6.328179e-01
6.348478e-01
6.331042e-01
6.278576e-01
6.201728e-01
6.105846e-01
6.003718e-01
5.904438e-01
5.807605e-01
0.000000e+00
1.000000e+00
5.820724e-01
5.886120e-01
5.979444e-01
6.071538e-01
6.158988e-01
6.232731e-01
6.282839e-01
6.301454e-01
6.285436e-01
6.237273e-01
6.165983e-01
6.077400e-01
5.983566e-01
5.891654e-01
5.801463e-01
0.000000e+00
1.000000e+00
5.810745e-01
5.870228e-01
5.953393e-01
6.035835e-01
6.114108e-01
6.180078e-01
6.224835e-01
6.241368e-01
6.227102e-01
6.184235e-01
6.120398e-01
6.041306e-01
5.957633e-01
5.875161e-01
5.793505e-01
0.000000e+00
1.000000e+00
5.798930e-01
5.850945e-01
5.922046e-01
5.992896e-01
6.060149e-01
6.116797e-01
6.155169e-01
6.169218e-01
6.156951e-01
6.120393e-01
6.065436e-01
5.997601e-01
5.926024e-01
5.855100e-01
5.783904e-01
0.000000e+00
1.000000e+00
5.785920e-01
5.828813e-01
5.886453e-01
5.944156e-01
5.998918e-01
6.045017e-01
6.076188e-01
6.087476e-01
6.077385e-01
6.047896e-01
6.003179e-01
5.948180e-01
5.890204e-01
5.832340e-01
5.773063e-01
0.000000e+00
1.000000e+00
5.772274e-01
5.804918e-01
5.848314e-01
5.891937e-01
5.933327e-01
5.968150e-01
5.991657e-01
6.000066e-01
5.992257e-01
5.970109e-01
5.936531e-01
5.895261e-01
5.851755e-01
5.807866e-01
5.761414e-01
0.000000e+00
1.000000e+00
5.758783e-01
5.780718e-01
5.809882e-01
5.839323e-01
5.867253e-01
5.890740e-01
5.906571e-01
5.912168e-01
5.906703e-01
5.891626e-01
5.869288e-01
5.841812e-01
5.812957e-01
5.783168e-01
5.749658e-01
0.000000e+00
1.000000e+00
5.746263e-01
5.757863e-01
5.773743e-01
5.789848e-01
5.805124e-01
5.817962e-01
5.826601e-01
5.829624e-01
5.826523e-01
5.818064e-01
5.805916e-01
5.791237e-01
5.776342e-01
5.759884e-01
5.739794e-01
0.000000e+00
1.000000e+00
5.735618e-01
5.738022e-01
5.742499e-01
5.747069e-01
5.751404e-01
5.755043e-01
5.757485e-01
5.758317e-01
5.757385e-01
5.754908e-01
5.751558e-01
5.747808e-01
5.744205e-01
5.739370e-01
5.731991e-01
0.000000e+00
1.000000e+00
5.727606e-01
5.722687e-01
5.718426e-01
5.714106e-01
5.710010e-01
5.706567e-01
5.704240e-01
5.703393e-01
5.704172e-01
5.706474e-01
5.710209e-01
5.714868e-01
5.719622e-01
5.723566e-01
5.724913e-01
0.000000e+00
1.000000e+00
5.722553e-01
5.712893e-01
5.703088e-01
5.693097e-01
5.683623e-01
5.675661e-01
5.670292e-01
5.668378e-01
5.670259e-01
5.675626e-01
5.683877e-01
5.693857e-01
5.703946e-01
5.713463e-01
5.720407e-01
0.000000e+00
1.000000e+00
5.720449e-01
5.709051e-01
5.697072e-01
5.684857e-01
5.673273e-01
5.663537e-01
5.656976e-01
5.654649e-01
5.656971e-01
5.663538e-01
5.673503e-01
5.685567e-01
5.697672e-01
5.709575e-01
5.716894e-01
0.000000e+00
1.000000e+00
5.721360e-01
5.710977e-01
5.700087e-01
5.688991e-01
5.678467e-01
5.669622e-01
5.663662e-01
5.661551e-01
5.663663e-01
5.669618e-01
5.678595e-01
5.689774e-01
5.700706e-01
5.711543e-01
5.717200e-01
0.000000e+00
1.000000e+00
5.724986e-01
5.718013e-01
5.711128e-01
5.704112e-01
5.697457e-01
5.691861e-01
5.688085e-01
5.686737e-01
5.688051e-01
5.691793e-01
5.697406e-01
5.704944e-01
5.711898e-01
5.718539e-01
5.722201e-01
0.000000e+00
1.000000e+00
5.730777e-01
5.729194e-01
5.728680e-01
5.728147e-01
5.727641e-01
5.727214e-01
5.726918e-01
5.726794e-01
5.726853e-01
5.727081e-01
5.727449e-01
5.728689e-01
5.729715e-01
5.729997e-01
5.728887e-01
0.000000e+00
1.000000e+00
5.738538e-01
5.743389e-01
5.751016e-01
5.758737e-01
5.766060e-01
5.772215e-01
5.776358e-01