<?xml version="1.0"?>
<VTKFile type="StructuredGrid" version="0.1">
  <StructuredGrid WholeExtent="0 16 0 16 0 16">
    <Piece Extent="0 16 0 16 0 16">
      <PointData Scalars="temperature" Vectors="velocity">
        <DataArray type="Float32" Name="temperature" format="ascii">
1.000000e+00
5.655236e-01
5.579064e-01
5.493504e-01
5.406273e-01
5.323678e-01
5.254442e-01
5.208024e-01
5.191950e-01
5.209060e-01
5.256318e-01
5.326082e-01
5.409506e-01
5.496656e-01
5.583044e-01
5.648923e-01
0.000000e+00
1.000000e+00
5.664105e-01
5.597520e-01
5.522220e-01
5.445552e-01
5.372953e-01
5.312097e-01
5.271301e-01
5.257185e-01
5.272242e-01
5.313800e-01
5.375172e-01
5.448848e-01
5.525336e-01
5.602143e-01
5.651923e-01
0.000000e+00
1.000000e+00
5.674543e-01
5.618270e-01
5.554683e-01
5.489968e-01
5.428670e-01
5.377269e-01
5.342789e-01
5.330832e-01
5.343506e-01
5.378566e-01
5.430333e-01
5.492987e-01
5.557672e-01
5.624798e-01
5.654366e-01
0.000000e+00
1.000000e+00
5.685603e-01
5.640642e-01
5.589735e-01
5.537948e-01
5.488892e-01
5.447751e-01
5.420149e-01
5.410571e-01
5.420711e-01
5.448766e-01
5.490144e-01
5.540747e-01
5.592588e-01
5.648025e-01
5.659931e-01
0.000000e+00
1.000000e+00
5.697164e-01
5.663965e-01
5.626273e-01
5.587963e-01
5.551670e-01
5.521230e-01
5.500802e-01
5.493699e-01
5.501191e-01
5.521947e-01
5.552496e-01
5.590506e-01
5.628933e-01
5.670466e-01
5.672038e-01
0.000000e+00
1.000000e+00
5.708830e-01
5.687257e-01
5.662770e-01
5.637921e-01
5.614379e-01
5.594632e-01
5.581372e-01
5.576739e-01
5.581575e-01
5.595032e-01
5.614769e-01
5.640145e-01
5.665211e-01
5.692234e-01
5.687148e-01
0.000000e+00
1.000000e+00
5.720114e-01
5.709392e-01
5.697483e-01
5.685440e-01
5.674029e-01
5.664456e-01
5.658016e-01
5.655741e-01
5.658040e-01
5.664515e-01
5.673940e-01
5.687144e-01
5.699750e-01
5.712680e-01
5.706834e-01
0.000000e+00
1.000000e+00
5.730421e-01
5.729210e-01
5.728615e-01
5.728061e-01
5.727537e-01
5.727097e-01
5.726791e-01
5.726653e-01
5.726691e-01
5.726896e-01
5.727113e-01
5.728732e-01
5.730435e-01
5.731418e-01
5.721639e-01
0.000000e+00
1.000000e+00
5.739175e-01
5.745649e-01
5.754506e-01
5.763514e-01
5.772055e-01
5.779228e-01
5.784047e-01
5.785719e-01
5.783929e-01
5.778992e-01
5.771650e-01
5.763538e-01
5.756120e-01
5.747233e-01
5.731951e-01
0.000000e+00
1.000000e+00
5.745735e-01
5.757885e-01
5.773835e-01
5.789982e-01
5.805297e-01
5.818167e-01
5.826833e-01
5.829887e-01
5.826778e-01
5.818054e-01
5.805127e-01
5.790374e-01
5.775641e-01
5.759185e-01
5.741531e-01
0.000000e+00
1.000000e+00
5.749815e-01
5.765408e-01
5.785772e-01
5.806326e-01
5.825821e-01
5.842207e-01
5.853252e-01
5.857168e-01
5.853266e-01
5.842242e-01
5.825986e-01
5.807359e-01
5.787538e-01
5.766613e-01
5.747461e-01
0.000000e+00
1.000000e+00
5.751260e-01
5.768085e-01
5.790044e-01
5.812177e-01
5.833169e-01
5.850815e-01
5.862712e-01
5.866940e-01
5.862769e-01
5.850949e-01
5.833575e-01
5.813446e-01
5.791631e-01
5.769229e-01
5.749407e-01
0.000000e+00
1.000000e+00
5.750272e-01
5.766085e-01
5.786904e-01
5.807879e-01
5.827774e-01
5.844497e-01
5.855773e-01
5.859781e-01
5.855829e-01
5.844641e-01
5.828223e-01
5.809081e-01
5.788398e-01
5.767308e-01
5.747785e-01
0.000000e+00
1.000000e+00
5.747030e-01
5.759847e-01
5.777087e-01
5.794435e-01
5.810891e-01
5.824724e-01
5.834049e-01
5.837357e-01
5.834071e-01
5.824810e-01
5.811228e-01
5.795371e-01
5.778540e-01
5.761076e-01
5.742193e-01
0.000000e+00
1.000000e+00
5.741875e-01
5.750047e-01
5.761660e-01
5.773313e-01
5.784368e-01
5.793663e-01
5.799928e-01
5.802142e-01
5.799912e-01
5.793672e-01
5.784546e-01
5.773905e-01
5.762995e-01
5.751324e-01
5.735099e-01
0.000000e+00
1.000000e+00
5.735286e-01
5.737470e-01
5.741864e-01
5.746211e-01
5.750342e-01
5.753824e-01
5.756175e-01
5.757004e-01
5.756158e-01
5.753822e-01
5.750478e-01
5.746724e-01
5.743066e-01
5.738908e-01
5.728996e-01
0.000000e+00
1.000000e+00
5.727740e-01
5.722920e-01
5.718980e-01
5.714883e-01
5.711016e-01
5.707787e-01
5.705629e-01
5.704878e-01
5.705668e-01
5.707898e-01
5.711377e-01
5.715634e-01
5.720143e-01
5.724537e-01
5.721678e-01
0.000000e+00
1.000000e+00
5.648715e-01
5.562507e-01
5.467705e-01
5.370950e-01
5.279324e-01
5.202505e-01
5.150980e-01
5.133105e-01
5.152036e-01
5.204422e-01
5.281826e-01
5.373946e-01
5.470890e-01
5.568645e-01
5.636319e-01
0.000000e+00
1.000000e+00
5.656025e-01
5.579737e-01
5.494611e-01
5.407774e-01
5.325556e-01
5.256645e-01
5.210458e-01
5.194483e-01
5.211541e-01
5.258602e-01
5.328222e-01
5.411011e-01
5.498151e-01
5.589002e-01
5.632263e-01
0.000000e+00
1.000000e+00
5.665979e-01
5.599810e-01
5.525937e-01
5.450621e-01
5.379288e-01
5.319476e-01
5.279361e-01
5.265450e-01
5.280198e-01
5.320978e-01
5.381332e-01
5.453643e-01
5.529312e-01
5.610254e-01
5.636269e-01
0.000000e+00
1.000000e+00
5.676739e-01
5.621847e-01
5.560421e-01
5.497820e-01
5.438523e-01
5.388798e-01
5.355439e-01
5.343865e-01
5.356114e-01
5.390006e-01
5.440103e-01
5.500674e-01
5.563589e-01
5.630710e-01
5.648809e-01
0.000000e+00
1.000000e+00
5.688150e-01
5.645206e-01
5.596981e-01
5.547864e-01
5.501334e-01
5.462308e-01
5.436117e-01
5.427019e-01
5.436621e-01
5.463210e-01
5.502442e-01
5.550440e-01
5.599873e-01
5.651057e-01
5.668045e-01
0.000000e+00
1.000000e+00
5.699813e-01
5.668884e-01
5.634046e-01
5.598599e-01
5.565014e-01
5.536840e-01
5.517923e-01
5.511332e-01
5.518246e-01
5.537436e-01
5.565675e-01
5.600811e-01
5.636582e-01
5.672287e-01
5.688486e-01
0.000000e+00
1.000000e+00
5.711215e-01
5.691691e-01
5.669766e-01
5.647494e-01
5.626388e-01
5.608678e-01
5.596775e-01
5.592605e-01
5.596921e-01
5.608966e-01
5.626631e-01
5.649275e-01
5.671987e-01
5.693803e-01
5.707346e-01
0.000000e+00
1.000000e+00
5.721738e-01
5.712371e-01
5.702192e-01
5.691884e-01
5.682112e-01
5.673907e-01
5.668379e-01
5.666417e-01
5.668370e-01
5.673901e-01
5.681968e-01
5.693064e-01
5.704049e-01
5.714083e-01
5.717706e-01
0.000000e+00
1.000000e+00
5.730781e-01
5.729748e-01
5.729492e-01
5.729258e-01
5.729036e-01
5.728844e-01
5.728704e-01
5.728624e-01
5.728606e-01
5.728649e-01
5.728667e-01
5.729598e-01
5.730875e-01
5.730875e-01
5.725925e-01
0.000000e+00
1.000000e+00
5.737771e-01
5.742873e-01
5.750171e-01
5.757574e-01
5.764593e-01
5.770487e-01
5.774447e-01
5.775821e-01
5.774351e-01
5.770292e-01
5.764277e-01
5.757573e-01
5.751352e-01
5.743625e-01
5.737537e-01
0.000000e+00
1.000000e+00
5.742242e-01
5.751148e-01
5.763265e-01
5.775504e-01
5.787110e-01
5.796862e-01
5.803427e-01
5.805739e-01
5.803379e-01
5.796763e-01
5.786986e-01
5.775815e-01
5.764470e-01
5.752030e-01
5.741806e-01
0.000000e+00
1.000000e+00
5.744009e-01
5.754375e-01
5.768422e-01
5.782566e-01
5.795980e-01
5.807252e-01
5.814848e-01
5.817535e-01
5.814842e-01
5.807246e-01
5.796042e-01
5.783181e-01
5.769558e-01
5.755264e-01
5.741902e-01
0.000000e+00
1.000000e+00
5.743198e-01
5.752747e-01
5.765899e-01
5.779113e-01
5.791645e-01
5.802177e-01
5.809275e-01
5.811791e-01
5.809281e-01
5.802203e-01
5.791774e-01
5.779712e-01
5.766922e-01
5.753632e-01
5.741743e-01
0.000000e+00
1.000000e+00
5.740139e-01
5.746745e-01
5.756463e-01
5.766193e-01
5.775423e-01
5.783180e-01
5.788406e-01
5.790255e-01
5.788400e-01
5.783187e-01
5.775521e-01
5.766607e-01
5.757394e-01
5.747607e-01
5.736662e-01
0.000000e+00
1.000000e+00
5.735114e-01
5.737068e-01
5.741249e-01
5.745363e-01
5.749268e-01
5.752553e-01
5.754767e-01
5.755547e-01
5.754754e-01
5.752552e-01
5.749365e-01
5.745693e-01
5.742101e-01
5.738198e-01
5.727721e-01
0.000000e+00
1.000000e+00
5.728611e-01
5.724549e-01
5.721576e-01
5.718430e-01
5.715457e-01
5.712968e-01
5.711299e-01
5.710713e-01
5.711315e-01
5.713026e-01
5.715694e-01
5.718918e-01
5.722421e-01
5.725964e-01
5.721714e-01
0.000000e+00
1.000000e+00
5.721193e-01
5.710041e-01
5.698796e-01
5.687246e-01
5.676314e-01
5.667150e-01
5.660998e-01
5.658846e-01
5.661088e-01
5.667366e-01
5.676829e-01
5.687952e-01
5.699819e-01
5.711535e-01
5.716155e-01
0.000000e+00
1.000000e+00
5.642199e-01
5.548780e-01
5.446213e-01
5.341529e-01
5.242396e-01
5.159283e-01
5.103540e-01
5.084205e-01
5.104689e-01
5.161382e-01
5.245112e-01
5.344632e-01
5.449569e-01
5.555660e-01
5.629081e-01
0.000000e+00
1.000000e+00
5.648919e-01
5.564828e-01
5.471321e-01
5.375898e-01
5.285552e-01
5.209832e-01
5.159080e-01
5.141528e-01
5.160270e-01
5.211993e-01
5.288467e-01
5.379228e-01
5.474868e-01
5.573822e-01
5.631289e-01
0.000000e+00
1.000000e+00
5.658420e-01
5.584062e-01
5.501331e-01
5.416940e-01
5.337014e-01
5.270002e-01
5.225063e-01
5.209481e-01
5.226007e-01
5.271703e-01
5.339363e-01
5.419901e-01
5.504692e-01
5.593093e-01
5.636252e-01
0.000000e+00
1.000000e+00
5.668922e-01
5.605633e-01
5.535075e-01
5.463122e-01
5.394970e-01
5.337821e-01
5.299487e-01
5.286184e-01
5.300261e-01
5.339213e-01
5.396871e-01
5.465881e-01
5.538192e-01
5.612690e-01
5.646503e-01
0.000000e+00
1.000000e+00
5.680273e-01
5.628903e-01
5.571488e-01
5.512963e-01
5.457522e-01
5.411023e-01
5.379821e-01
5.368981e-01
5.380416e-01
5.412090e-01
5.458926e-01
5.515436e-01
5.574261e-01
5.633105e-01
5.665546e-01
0.000000e+00
1.000000e+00
5.692003e-01
5.652849e-01
5.608967e-01
5.564265e-01
5.521911e-01
5.486380e-01
5.462524e-01
5.454219e-01
5.462938e-01
5.487125e-01
5.522837e-01
5.566336e-01
5.611348e-01
5.655270e-01
5.683294e-01
0.000000e+00
1.000000e+00
5.703569e-01
5.676229e-01
5.645571e-01
5.614369e-01
5.584800e-01
5.559987e-01
5.543314e-01
5.537488e-01
5.543551e-01
5.560430e-01
5.585301e-01
5.615994e-01
5.647616e-01
5.677914e-01
5.699725e-01
0.000000e+00
1.000000e+00
5.714343e-01
5.697694e-01
5.679202e-01
5.660406e-01
5.642590e-01
5.627631e-01
5.617565e-01
5.614024e-01
5.617645e-01
5.627796e-01
5.642720e-01
5.661598e-01
5.680927e-01
5.699200e-01
5.710253e-01
0.000000e+00
1.000000e+00
5.723682e-01
5.715957e-01
5.707854e-01
5.699631e-01
5.691831e-01
5.685276e-01
5.680854e-01
5.679276e-01
5.680816e-01
5.685210e-01
5.691654e-01
5.700258e-01
5.709173e-01
5.716811e-01
5.718397e-01
0.000000e+00
1.000000e+00
5.731016e-01
5.729955e-01
5.729863e-01
5.729763e-01
5.729665e-01
5.729578e-01
5.729507e-01
5.729457e-01
5.729422e-01
5.729407e-01
5.729369e-01
5.729793e-01
5.730719e-01
5.730236e-01
5.730654e-01
0.000000e+00
1.000000e+00
5.735882e-01
5.738986e-01
5.744119e-01
5.749284e-01
5.754180e-01
5.758290e-01
5.761052e-01
5.762012e-01
5.760990e-01
5.758163e-01
5.753979e-01
5.749244e-01
5.744739e-01
5.739448e-01
5.736154e-01
0.000000e+00
1.000000e+00
5.737973e-01
5.742798e-01
5.750191e-01
5.757598e-01
5.764621e-01
5.770521e-01
5.774494e-01
5.775893e-01
5.774469e-01
5.770474e-01
5.764560e-01
5.757724e-01
5.750731e-01
5.743337e-01
5.736314e-01
0.000000e+00
1.000000e+00
5.737382e-01
5.741562e-01
5.748312e-01
5.755026e-01
5.761393e-01
5.766743e-01
5.770346e-01
5.771619e-01
5.770336e-01
5.766734e-01
5.761405e-01
5.755199e-01
5.748809e-01
5.742102e-01
5.736573e-01
0.000000e+00
1.000000e+00
5.734427e-01
5.735803e-01
5.739282e-01
5.742666e-01
5.745876e-01
5.748573e-01
5.750389e-01
5.751028e-01
5.750377e-01
5.748567e-01
5.745914e-01
5.742820e-01
5.739779e-01
5.736359e-01
5.732002e-01
0.000000e+00
1.000000e+00
5.729599e-01
5.726273e-01
5.724304e-01
5.722161e-01
5.720134e-01
5.718433e-01
5.717289e-01
5.716884e-01
5.717292e-01
5.718461e-01
5.720265e-01
5.722389e-01
5.724827e-01
5.727210e-01
5.722639e-01
0.000000e+00
1.000000e+00
5.723292e-01
5.713838e-01
5.704779e-01
5.695432e-01
5.686578e-01
5.679148e-01
5.674153e-01
5.672401e-01
5.674209e-01
5.679288e-01
5.686917e-01
5.695876e-01
5.705482e-01
5.715181e-01
5.716179e-01
0.000000e+00
1.000000e+00
5.716056e-01
5.699393e-01
5.682125e-01
5.664421e-01
5.647652e-01
5.633583e-01
5.624130e-01
5.620826e-01
5.624273e-01
5.633898e-01
5.648216e-01
5.665069e-01
5.683073e-01
5.700732e-01
5.710958e-01
0.000000e+00
1.000000e+00
5.637405e-01
5.538648e-01
5.430381e-01
5.319855e-01
5.215197e-01
5.127458e-01
5.068622e-01
5.048226e-01
5.069868e-01
5.129747e-01
5.218085e-01
5.323144e-01
5.434022e-01
5.545389e-01
5.624618e-01
0.000000e+00
1.000000e+00
5.643656e-01
5.553553e-01
5.453724e-01
5.351812e-01
5.255325e-01
5.174461e-01
5.120267e-01
5.101528e-01
5.121547e-01
5.176801e-01
5.258337e-01
5.355400e-01
5.457379e-01
5.561121e-01
5.629368e-01
0.000000e+00
1.000000e+00
5.652665e-01
5.571915e-01
5.482375e-01
5.390993e-01
5.304452e-01
5.231901e-01
5.183251e-01
5.166393e-01
5.184295e-01
5.233789e-01
5.306926e-01
5.394154e-01
5.485737e-01
5.578938e-01
5.635660e-01
0.000000e+00
1.000000e+00
5.662882e-01
5.592971e-01
5.515301e-01
5.436055e-01
5.360998e-01
5.298064e-01
5.255854e-01
5.241212e-01
5.256724e-01
5.299631e-01
5.363053e-01
5.438920e-01
5.518412e-01
5.598479e-01
5.644960e-01
0.000000e+00
1.000000e+00
5.674145e-01
5.616090e-01
5.551467e-01
5.485554e-01
5.423118e-01
5.370756e-01
5.335623e-01
5.323421e-01
5.336303e-01
5.371979e-01
5.424691e-01
5.488067e-01
5.554185e-01
5.619336e-01
5.662912e-01
0.000000e+00
1.000000e+00
5.685953e-01
5.640235e-01
5.589250e-01
5.537272e-01
5.488026e-01
5.446714e-01
5.418981e-01
5.409330e-01
5.419470e-01
5.447591e-01
5.489116e-01
5.539324e-01
5.591515e-01
5.642282e-01
5.680105e-01
0.000000e+00
1.000000e+00
5.697698e-01
5.664115e-01
5.626629e-01
5.588436e-01
5.552243e-01
5.521871e-01
5.501468e-01
5.494345e-01
5.501773e-01
5.522427e-01
5.552898e-01
5.589987e-01
5.628489e-01
5.665799e-01
5.695303e-01
0.000000e+00
1.000000e+00
5.708743e-01
5.686297e-01
5.661368e-01
5.635989e-01
5.611933e-01
5.591737e-01
5.578155e-01
5.573390e-01
5.578299e-01
5.592012e-01
5.612219e-01
5.637062e-01
5.662877e-01
5.687896e-01
5.704605e-01
0.000000e+00
1.000000e+00
5.718391e-01
5.705384e-01
5.691291e-01
5.676952e-01
5.663355e-01
5.651932e-01
5.644237e-01
5.641516e-01
5.644255e-01
5.651976e-01
5.663346e-01
5.677564e-01
5.692436e-01
5.706260e-01
5.712580e-01
0.000000e+00
1.000000e+00
5.726032e-01
5.720206e-01
5.714563e-01
5.708812e-01
5.703356e-01
5.698767e-01
5.695666e-01
5.694552e-01
5.695614e-01
5.698663e-01
5.703153e-01
5.708945e-01
5.715257e-01
5.720240e-01
5.725493e-01
0.000000e+00
1.000000e+00
5.731240e-01
5.729965e-01
5.729935e-01
5.729860e-01
5.729785e-01
5.729719e-01
5.729667e-01
5.729633e-01
5.729615e-01
5.729607e-01
5.729585e-01
5.729701e-01
5.730213e-01
5.730092e-01
5.731914e-01
0.000000e+00
1.000000e+00
5.733652e-01
5.734344e-01
5.736888e-01
5.739379e-01
5.741740e-01
5.743723e-01
5.745056e-01
5.745522e-01
5.745036e-01
5.743678e-01
5.741654e-01
5.739311e-01
5.737035e-01
5.734581e-01
5.732560e-01
0.000000e+00
1.000000e+00
5.733293e-01
5.733501e-01
5.735631e-01
5.737659e-01
5.739580e-01
5.741194e-01
5.742281e-01
5.742664e-01
5.742278e-01
5.741189e-01
5.739559e-01
5.737647e-01
5.735757e-01
5.733760e-01
5.732930e-01
0.000000e+00
1.000000e+00
5.730450e-01
5.727970e-01
5.726990e-01
5.725829e-01
5.724728e-01
5.723803e-01
5.723179e-01
5.722956e-01
5.723176e-01
5.723806e-01
5.724741e-01
5.725832e-01
5.727119e-01
5.728207e-01
5.729110e-01
0.000000e+00
1.000000e+00
5.725625e-01
5.718556e-01
5.712217e-01
5.705607e-01
5.699344e-01
5.694084e-01
5.690544e-01
5.689296e-01
5.690564e-01
5.694143e-01
5.699483e-01
5.705747e-01
5.712502e-01
5.719279e-01
5.719534e-01
0.000000e+00
1.000000e+00
5.719437e-01
5.706178e-01
5.692788e-01
5.679013e-01
5.665962e-01
5.655006e-01
5.647640e-01
5.645058e-01
5.647726e-01
5.655197e-01
5.666291e-01
5.679384e-01
5.693370e-01
5.707373e-01
5.712499e-01
0.000000e+00
1.000000e+00
5.712428e-01
5.691773e-01
5.670194e-01
5.648088e-01
5.627145e-01
5.609573e-01
5.597767e-01
5.593643e-01
5.597944e-01
5.609939e-01
5.627680e-01
5.648659e-01
5.670963e-01
5.692906e-01
5.707130e-01
0.000000e+00
1.000000e+00
5.634704e-01
5.532866e-01
5.421353e-01
5.307495e-01
5.199687e-01
5.109320e-01
5.048732e-01
5.027743e-01
5.050056e-01
5.111768e-01
5.202729e-01
5.310960e-01
5.425319e-01
5.539294e-01
5.622192e-01
0.000000e+00
1.000000e+00
5.640601e-01
5.546742e-01
5.443103e-01
5.337270e-01
5.237077e-01
5.153112e-01
5.096844e-01
5.077396e-01
5.098190e-01
5.155586e-01
5.240136e-01
5.341165e-01
5.446953e-01
5.552739e-01
5.629270e-01
0.000000e+00
1.000000e+00
5.649142e-01
5.564291e-01
5.470493e-01
5.374730e-01
5.284047e-01
5.208031e-01
5.157067e-01
5.139418e-01
5.158191e-01
5.210075e-01
5.286556e-01
5.378291e-01
5.473905e-01
5.569352e-01
5.638023e-01
0.000000e+00
1.000000e+00
5.659077e-01
5.584855e-01
5.502644e-01
5.418731e-01
5.339259e-01
5.272629e-01
5.227948e-01
5.212459e-01
5.228897e-01
5.274343e-01
5.341349e-01
5.421961e-01
5.505746e-01
5.588993e-01
5.646451e-01
0.000000e+00
1.000000e+00
5.670232e-01
5.607817e-01
5.538552e-01
5.467876e-01
5.400931e-01
5.344792e-01
5.307133e-01
5.294061e-01
5.307885e-01
5.346148e-01
5.402565e-01
5.470673e-01
5.541268e-01
5.610468e-01
5.663056e-01
0.000000e+00
1.000000e+00
5.682106e-01
5.632129e-01
5.576588e-01
5.519937e-01
5.466268e-01
5.421249e-01
5.391033e-01
5.380526e-01
5.391584e-01
5.422239e-01
5.467436e-01
5.522225e-01
5.578874e-01
5.634194e-01
5.678268e-01
0.000000e+00
1.000000e+00
5.694050e-01
5.656456e-01
5.614660e-01
5.572050e-01
5.531673e-01
5.497793e-01
5.475038e-01
5.467101e-01
5.475394e-01
5.498438e-01
5.532408e-01
5.573780e-01
5.616551e-01
5.658495e-01
5.690632e-01
0.000000e+00
1.000000e+00
5.705373e-01
5.679288e-01
5.650409e-01
5.620985e-01
5.593096e-01
5.569684e-01
5.553943e-01
5.548428e-01
5.554126e-01
5.570025e-01
5.593451e-01
5.622163e-01
5.651929e-01
5.681241e-01
5.699185e-01
0.000000e+00
1.000000e+00
5.715345e-01
5.699125e-01
5.681494e-01
5.663539e-01
5.646515e-01
5.632214e-01
5.622585e-01
5.619189e-01
5.622633e-01
5.632310e-01
5.646570e-01
5.664180e-01
5.682622e-01
5.700258e-01
5.708227e-01
0.000000e+00
1.000000e+00
5.723308e-01
5.714692e-01
5.705918e-01
5.696976e-01
5.688494e-01
5.681363e-01
5.676551e-01
5.674836e-01
5.676515e-01
5.681291e-01
5.688335e-01
5.697147e-01
5.706613e-01
5.714834e-01
5.721372e-01
0.000000e+00
1.000000e+00
5.728836e-01
5.725104e-01
5.722298e-01
5.719402e-01
5.716653e-01
5.714339e-01
5.712772e-01
5.712201e-01
5.712719e-01
5.714225e-01
5.716445e-01
5.719223e-01
5.722498e-01
5.725119e-01
5.728849e-01
0.000000e+00
1.000000e+00
5.731551e-01
5.729985e-01
5.730027e-01
5.729985e-01
5.729943e-01
5.729905e-01
5.729876e-01
5.729858e-01
5.729850e-01
5.729844e-01
5.729824e-01
5.729833e-01
5.730000e-01
5.729997e-01
5.730624e-01
0.000000e+00
1.000000e+00
5.731438e-01
5.729475e-01
5.729293e-01
5.728978e-01
5.728679e-01
5.728425e-01
5.728253e-01
5.728190e-01
5.728245e-01
5.728405e-01
5.728623e-01
5.728883e-01
5.729208e-01
5.729525e-01
5.731311e-01
0.000000e+00
1.000000e+00
5.728781e-01
5.724125e-01
5.720944e-01
5.717547e-01
5.714326e-01
5.711617e-01
5.709791e-01
5.709143e-01
5.709788e-01
5.711611e-01
5.714302e-01
5.717477e-01
5.720920e-01
5.724188e-01
5.728491e-01
0.000000e+00
1.000000e+00
5.724016e-01
5.714771e-01
5.706286e-01
5.697482e-01
5.689135e-01
5.682122e-01
5.677401e-01
5.675734e-01
5.677420e-01
5.682172e-01
5.689217e-01
5.697550e-01
5.706486e-01
5.715230e-01
5.718737e-01
0.000000e+00
1.000000e+00
5.717762e-01
5.702379e-01
5.686850e-01
5.670878e-01
5.655741e-01
5.643031e-01
5.634481e-01
5.631479e-01
5.634562e-01
5.643206e-01
5.655993e-01
5.671156e-01
5.687293e-01
5.703254e-01
5.711814e-01
0.000000e+00
1.000000e+00
5.710622e-01
5.687932e-01
5.664189e-01
5.639860e-01
5.616811e-01
5.597468e-01
5.584468e-01
5.579920e-01
5.584640e-01
5.597816e-01
5.617269e-01
5.640337e-01
5.664804e-01
5.688864e-01
5.705440e-01
0.000000e+00
1.000000e+00
5.634307e-01
5.531976e-01
5.419977e-01
5.305608e-01
5.197324e-01
5.106570e-01
5.045737e-01
5.024679e-01
5.047112e-01
5.109131e-01
5.200494e-01
5.309291e-01
5.423551e-01
5.537307e-01
5.624521e-01
0.000000e+00
1.000000e+00
5.639994e-01
5.545039e-01
5.440458e-01
5.333645e-01
5.232527e-01
5.147793e-01
5.091017e-01
5.071401e-01
5.092398e-01
5.150344e-01
5.235646e-01
5.337838e-01
5.443880e-01
5.549190e-01
5.633441e-01
0.000000e+00
1.000000e+00
5.648149e-01
5.561931e-01
5.466833e-01
5.369722e-01
5.277768e-01
5.200695e-01
5.149033e-01
5.131156e-01
5.150210e-01
5.202846e-01
5.280351e-01
5.373642e-01
5.470009e-01
5.565371e-01
5.642398e-01
0.000000e+00
1.000000e+00
5.657867e-01
5.582111e-01
5.498378e-01
5.412894e-01
5.331938e-01
5.264070e-01
5.218570e-01
5.202811e-01
5.219572e-01
5.265890e-01
5.334102e-01
5.416457e-01
5.501287e-01
5.585307e-01
5.650451e-01
0.000000e+00
1.000000e+00
5.668932e-01
5.604966e-01
5.534116e-01
5.461805e-01
5.393316e-01
5.335887e-01
5.297371e-01
5.284015e-01
5.298174e-01
5.337340e-01
5.395044e-01
5.464904e-01
5.536692e-01
5.607685e-01
5.663008e-01
0.000000e+00
1.000000e+00
5.680869e-01
5.629453e-01
5.572418e-01
5.514229e-01
5.459106e-01
5.412872e-01
5.381848e-01
5.371071e-01
5.382442e-01
5.413944e-01
5.460387e-01
5.516814e-01
5.574660e-01
5.632091e-01
5.675037e-01
0.000000e+00
1.000000e+00
5.693005e-01
5.654196e-01
5.611132e-01
5.567221e-01
5.525614e-01
5.490705e-01
5.467265e-01
5.459097e-01
5.467653e-01
5.491410e-01
5.526455e-01
5.569259e-01
5.613032e-01
5.656825e-01
5.686756e-01
0.000000e+00
1.000000e+00
5.704596e-01
5.677612e-01
5.647790e-01
5.617401e-01
5.588599e-01
5.564422e-01
5.548171e-01
5.542482e-01
5.548373e-01
5.564797e-01
5.589026e-01
5.618894e-01
5.649320e-01
5.680082e-01
5.695744e-01
0.000000e+00
1.000000e+00
5.714883e-01
5.698111e-01
5.679906e-01
5.661366e-01
5.643788e-01
5.629024e-01
5.619083e-01
5.615578e-01
5.619134e-01
5.629124e-01
5.643866e-01
5.662281e-01
5.681037e-01
5.699659e-01
5.705386e-01
0.000000e+00
1.000000e+00
5.723173e-01
5.714320e-01
5.705331e-01
5.696173e-01
5.687487e-01
5.680184e-01
5.675255e-01
5.673495e-01
5.675209e-01
5.680094e-01
5.687303e-01
5.696508e-01
5.706067e-01
5.714763e-01
5.719503e-01
0.000000e+00
1.000000e+00
5.729001e-01
5.725273e-01
5.722555e-01
5.719755e-01
5.717097e-01
5.714859e-01
5.713341e-01
5.712783e-01
5.713274e-01
5.714718e-01
5.716849e-01
5.719642e-01
5.722830e-01
5.725434e-01
5.727771e-01
0.000000e+00
1.000000e+00
5.731964e-01
5.730545e-01
5.730894e-01
5.731175e-01
5.731438e-01
5.731656e-01
5.731797e-01
5.731836e-01
5.731758e-01
5.731573e-01
5.731295e-01
5.731027e-01
5.730906e-01
5.730562e-01
5.730061e-01
0.000000e+00
1.000000e+00
5.732044e-01
5.730262e-01
5.730513e-01
5.730652e-01
5.730781e-01
5.730888e-01
5.730957e-01
5.730975e-01
5.730939e-01
5.730854e-01
5.730718e-01
5.730558e-01
5.730440e-01
5.730234e-01
5.731851e-01
0.000000e+00
1.000000e+00
5.729537e-01
5.724993e-01
5.722284e-01
5.719384e-01
5.716633e-01
5.714319e-01
5.712758e-01
5.712201e-01
5.712748e-01
5.714303e-01
5.716598e-01
5.719308e-01
5.722259e-01
5.725132e-01
5.729914e-01
0.000000e+00
1.000000e+00
5.724906e-01
5.715602e-01
5.707564e-01
5.699234e-01
5.691336e-01
5.684699e-01
5.680229e-01
5.678647e-01
5.680237e-01
5.684730e-01
5.691388e-01
5.699279e-01
5.707743e-01
5.716073e-01
5.720524e-01
0.000000e+00
1.000000e+00
5.718782e-01
5.703099e-01
5.687942e-01
5.672374e-01
5.657620e-01
5.645229e-01
5.636890e-01
5.633956e-01
5.636952e-01
5.645369e-01
5.657821e-01
5.672613e-01
5.688354e-01
5.703702e-01
5.714883e-01
0.000000e+00
1.000000e+00
5.711882e-01
5.688506e-01
5.665023e-01
5.641003e-01
5.618244e-01
5.599141e-01
5.586299e-01
5.581800e-01
5.586449e-01
5.599448e-01
5.618636e-01
5.641412e-01
5.665558e-01
5.688987e-01
5.707152e-01
0.000000e+00
1.000000e+00
5.636301e-01
5.536257e-01
5.426687e-01
5.314786e-01
5.208848e-01
5.120071e-01
5.060578e-01
5.040004e-01
5.061975e-01
5.122685e-01
5.212098e-01
5.318545e-01
5.429776e-01
5.540434e-01
5.631066e-01
0.000000e+00
1.000000e+00
5.641926e-01
5.548801e-01
5.446345e-01
5.341695e-01
5.242627e-01
5.159617e-01
5.104004e-01
5.084801e-01
5.105385e-01
5.162179e-01
5.245793e-01
5.345896e-01
5.449334e-01
5.551766e-01
5.639326e-01
0.000000e+00
1.000000e+00
5.649809e-01
5.565269e-01
5.472071e-01
5.376892e-01
5.286773e-01
5.211246e-01
5.160631e-01
5.143132e-01
5.161828e-01
5.213442e-01
5.289447e-01
5.380906e-01
5.474763e-01
5.567795e-01
5.647548e-01
0.000000e+00
1.000000e+00
5.659410e-01
5.585239e-01
5.503284e-01
5.419611e-01
5.340373e-01
5.273954e-01
5.229436e-01
5.214031e-01
5.230461e-01
5.275824e-01
5.342643e-01
5.423280e-01
5.505837e-01
5.587993e-01
5.655802e-01
0.000000e+00
1.000000e+00
5.670469e-01
5.608098e-01
5.539024e-01
5.468525e-01
5.401755e-01
5.345773e-01
5.308238e-01
5.295237e-01
5.309064e-01
5.347273e-01
5.403599e-01
5.471764e-01
5.541443e-01
5.611248e-01
5.664370e-01
0.000000e+00
1.000000e+00
5.682479e-01
5.632798e-01
5.577657e-01
5.521404e-01
5.468117e-01
5.423428e-01
5.393448e-01
5.383048e-01
5.394062e-01
5.424536e-01
5.469514e-01
5.524187e-01
5.579879e-01
5.636117e-01
5.674098e-01
0.000000e+00
1.000000e+00
5.694778e-01
5.657937e-01
5.616988e-01
5.575240e-01
5.535684e-01
5.502501e-01
5.480225e-01
5.472472e-01
5.480623e-01
5.503224e-01
5.536621e-01
5.577543e-01
5.618925e-01
5.661101e-01
5.686656e-01
0.000000e+00
1.000000e+00
5.706632e-01
5.681874e-01
5.654453e-01
5.626524e-01
5.600056e-01
5.577841e-01
5.562912e-01
5.557686e-01
5.563104e-01
5.578202e-01
5.600529e-01
5.628334e-01
5.656109e-01
5.684907e-01
5.695752e-01
0.000000e+00
1.000000e+00
5.717231e-01
5.702932e-01
5.687444e-01
5.671687e-01
5.656749e-01
5.644203e-01
5.635753e-01
5.632765e-01
5.635773e-01
5.644247e-01
5.656781e-01
5.672933e-01
5.688802e-01
5.705081e-01
5.705726e-01
0.000000e+00
1.000000e+00
5.725833e-01
5.719655e-01
5.713681e-01
5.707608e-01
5.701846e-01
5.697000e-01
5.693722e-01
5.692536e-01
5.693641e-01
5.696835e-01
5.701555e-01
5.708131e-01
5.714630e-01
5.720617e-01
5.720609e-01
0.000000e+00
1.000000e+00
5.731909e-01
5.731011e-01
5.731549e-01
5.732072e-01
5.732565e-01
5.732974e-01
5.733238e-01
5.733305e-01
5.733150e-01
5.732790e-01
5.732254e-01
5.732030e-01
5.732064e-01
5.731538e-01
5.729247e-01
0.000000e+00
1.000000e+00
5.735018e-01
5.736535e-01
5.740298e-01
5.744051e-01
5.747609e-01
5.750596e-01
5.752603e-01
5.753302e-01
5.752562e-01
5.750512e-01
5.747476e-01
5.744005e-01
5.740576e-01
5.736825e-01
5.731567e-01
0.000000e+00
1.000000e+00
5.735133e-01
5.736344e-01
5.740071e-01
5.743739e-01
5.747217e-01
5.750137e-01
5.752104e-01
5.752799e-01
5.752098e-01
5.750127e-01
5.747193e-01
5.743740e-01
5.740219e-01
5.736497e-01
5.734432e-01
0.000000e+00
1.000000e+00
5.732551e-01
5.731019e-01
5.731759e-01
5.732356e-01
5.732922e-01
5.733395e-01
5.733712e-01
5.733821e-01
5.733704e-01
5.733385e-01
5.732899e-01
5.732315e-01
5.731845e-01
5.731183e-01
5.732695e-01
0.000000e+00
1.000000e+00
5.727748e-01
5.721452e-01
5.716761e-01
5.711822e-01
5.707139e-01
5.703203e-01
5.700549e-01
5.699605e-01
5.700540e-01
5.703202e-01
5.707161e-01
5.711841e-01
5.716954e-01
5.721678e-01
5.723259e-01
0.000000e+00
1.000000e+00
5.721360e-01
5.708683e-01
5.696717e-01
5.684387e-01
5.672700e-01
5.662884e-01
5.656274e-01
5.653941e-01
5.656304e-01
5.662972e-01
5.672867e-01
5.684599e-01
5.697203e-01
5.708986e-01
5.720424e-01
0.000000e+00
1.000000e+00
5.714260e-01
5.693767e-01
5.673291e-01
5.652323e-01
5.632456e-01
5.615780e-01
5.604566e-01
5.600629e-01
5.604678e-01
5.616025e-01
5.632798e-01
5.652698e-01
5.673893e-01
5.693784e-01
5.712185e-01
0.000000e+00
1.000000e+00
5.640646e-01
5.545654e-01
5.441388e-01
5.334900e-01
5.234092e-01
5.149626e-01
5.093036e-01
5.073488e-01
5.094422e-01
5.152223e-01
5.237325e-01
5.338592e-01
5.444285e-01
5.550701e-01
5.637578e-01
0.000000e+00
1.000000e+00
5.646349e-01
5.558007e-01
5.460735e-01
5.361383e-01
5.267331e-01
5.188527e-01
5.135741e-01
5.117527e-01
5.137088e-01
5.191028e-01
5.270458e-01
5.365369e-01
5.463559e-01
5.560744e-01
5.644845e-01
0.000000e+00
1.000000e+00
5.654124e-01
5.574334e-01
5.486249e-01
5.396298e-01
5.311132e-01
5.239763e-01
5.191947e-01
5.175433e-01
5.193129e-01
5.241937e-01
5.313835e-01
5.400135e-01
5.488849e-01
5.576691e-01
5.652900e-01
0.000000e+00
1.000000e+00
5.663719e-01
5.594306e-01
5.517464e-01
5.439020e-01
5.364737e-01
5.302479e-01
5.260760e-01
5.246344e-01
5.261773e-01
5.304333e-01
5.367058e-01
5.442590e-01
5.519933e-01
5.597005e-01
5.662170e-01
0.000000e+00
1.000000e+00
5.674855e-01
5.617302e-01
5.553419e-01
5.488231e-01
5.426494e-01
5.374738e-01
5.340046e-01
5.328050e-01
5.340861e-01
5.376222e-01
5.428399e-01
5.491490e-01
5.555819e-01
5.620903e-01
5.669314e-01
0.000000e+00
1.000000e+00
5.686971e-01
5.642273e-01
5.592476e-01
5.541693e-01
5.493589e-01
5.453253e-01
5.426201e-01
5.416833e-01
5.426801e-01
5.454338e-01
5.495044e-01
5.544615e-01
5.594807e-01
5.646427e-01
5.677225e-01
0.000000e+00
1.000000e+00
5.699448e-01
5.667795e-01
5.632401e-01
5.596343e-01
5.562180e-01
5.533526e-01
5.514296e-01
5.507610e-01
5.514664e-01
5.534201e-01
5.563140e-01
5.598919e-01
5.634622e-01
5.671834e-01
5.689391e-01
0.000000e+00
1.000000e+00
5.711596e-01
5.692177e-01
5.670558e-01
5.648574e-01
5.627742e-01
5.610262e-01
5.598514e-01
5.594395e-01
5.598651e-01
5.610525e-01
5.628149e-01
5.650770e-01
5.672603e-01
5.695979e-01
5.698768e-01
0.000000e+00
1.000000e+00
5.722533e-01
5.713671e-01
5.704243e-01
5.694689e-01
5.685631e-01
5.678023e-01
5.672892e-01
5.671057e-01
5.672841e-01
5.677918e-01
5.685466e-01
5.696211e-01
5.705907e-01
5.716502e-01
5.708992e-01
0.000000e+00
1.000000e+00
5.731434e-01
5.730758e-01
5.731078e-01
5.731429e-01
5.731760e-01
5.732030e-01
5.732195e-01
5.732211e-01
5.732055e-01
5.731737e-01
5.731286e-01
5.731899e-01
5.732285e-01
5.732286e-01
5.723260e-01
0.000000e+00
1.000000e+00
5.737707e-01
5.742360e-01
5.749365e-01
5.756469e-01
5.763203e-01
5.768856e-01
5.772651e-01
5.773961e-01
5.772535e-01
5.768620e-01
5.762872e-01
5.756557e-01
5.750343e-01
5.743315e-01
5.732965e-01
0.000000e+00
1.000000e+00
5.740881e-01
5.747988e-01
5.758308e-01
5.768712e-01
5.778577e-01
5.786865e-01
5.792444e-01
5.794406e-01
5.792395e-01
5.786779e-01
5.778540e-01
5.769006e-01
5.759126e-01
5.748704e-01
5.736023e-01
0.000000e+00
1.000000e+00
5.740924e-01
5.747749e-01
5.758031e-01
5.768331e-01
5.778098e-01
5.786306e-01
5.791836e-01
5.793792e-01
5.791832e-01
5.786311e-01
5.778188e-01
5.768660e-01
5.758663e-01
5.748311e-01
5.738511e-01
0.000000e+00
1.000000e+00
5.738115e-01
5.742232e-01
5.749434e-01
5.756558e-01
5.763313e-01
5.768988e-01
5.772810e-01
5.774160e-01
5.772801e-01
5.768986e-01
5.763357e-01
5.756722e-01
5.749928e-01
5.742829e-01
5.737529e-01
0.000000e+00
1.000000e+00
5.732926e-01
5.732355e-01
5.733947e-01
5.735354e-01
5.736688e-01
5.737807e-01
5.738556e-01
5.738811e-01
5.738528e-01
5.737778e-01
5.736696e-01
5.735429e-01
5.734368e-01
5.732813e-01
5.727720e-01
0.000000e+00
1.000000e+00
5.726044e-01
5.719190e-01
5.713261e-01
5.707038e-01
5.701142e-01
5.696190e-01
5.692854e-01