<?xml version="1.0"?>
<VTKFile type="StructuredGrid" version="0.1">
  <StructuredGrid WholeExtent="0 16 0 16 0 16">
    <Piece Extent="0 16 0 16 0 16">
      <PointData Scalars="temperature" Vectors="velocity">
        <DataArray type="Float32" Name="temperature" format="ascii">
1.000000e+00
5.650498e-01
5.568443e-01
5.476948e-01
5.383576e-01
5.295156e-01
5.221025e-01
5.171303e-01
5.154038e-01
5.172270e-01
5.222790e-01
5.297454e-01
5.386563e-01
5.479234e-01
5.571246e-01
5.649756e-01
0.000000e+00
1.000000e+00
5.658988e-01
5.586497e-01
5.505031e-01
5.421986e-01
5.343331e-01
5.277381e-01
5.233148e-01
5.217795e-01
5.234025e-01
5.278972e-01
5.345415e-01
5.424862e-01
5.507023e-01
5.588892e-01
5.658016e-01
0.000000e+00
1.000000e+00
5.669269e-01
5.607056e-01
5.537167e-01
5.465958e-01
5.398496e-01
5.341911e-01
5.303942e-01
5.290744e-01
5.304644e-01
5.343184e-01
5.400169e-01
5.468565e-01
5.539013e-01
5.609198e-01
5.667819e-01
0.000000e+00
1.000000e+00
5.680439e-01
5.629593e-01
5.572461e-01
5.514276e-01
5.459146e-01
5.412897e-01
5.381852e-01
5.371053e-01
5.382402e-01
5.413890e-01
5.460468e-01
5.516611e-01
5.574165e-01
5.631541e-01
5.678645e-01
0.000000e+00
1.000000e+00
5.692294e-01
5.653448e-01
5.609834e-01
5.565440e-01
5.523374e-01
5.488079e-01
5.464378e-01
5.456121e-01
5.464772e-01
5.488796e-01
5.524349e-01
5.567499e-01
5.611382e-01
5.655236e-01
5.689194e-01
0.000000e+00
1.000000e+00
5.704434e-01
5.677671e-01
5.647804e-01
5.617423e-01
5.588633e-01
5.564476e-01
5.548247e-01
5.542576e-01
5.548482e-01
5.564925e-01
5.589259e-01
5.619257e-01
5.649306e-01
5.678702e-01
5.706183e-01
0.000000e+00
1.000000e+00
5.716343e-01
5.701150e-01
5.684640e-01
5.667854e-01
5.651947e-01
5.638599e-01
5.629625e-01
5.626471e-01
5.629708e-01
5.638779e-01
5.652186e-01
5.669497e-01
5.686134e-01
5.702032e-01
5.720285e-01
0.000000e+00
1.000000e+00
5.727476e-01
5.722714e-01
5.718512e-01
5.714229e-01
5.710170e-01
5.706767e-01
5.704476e-01
5.703656e-01
5.704450e-01
5.706720e-01
5.710055e-01
5.715325e-01
5.719858e-01
5.723858e-01
5.727782e-01
0.000000e+00
1.000000e+00
5.737227e-01
5.741248e-01
5.747681e-01
5.754170e-01
5.760325e-01
5.765499e-01
5.768982e-01
5.770200e-01
5.768927e-01
5.765385e-01
5.760110e-01
5.754531e-01
5.749049e-01
5.742349e-01
5.735873e-01
0.000000e+00
1.000000e+00
5.744991e-01
5.755842e-01
5.770701e-01
5.785691e-01
5.799909e-01
5.811862e-01
5.819918e-01
5.822766e-01
5.819889e-01
5.811795e-01
5.799829e-01
5.786331e-01
5.772358e-01
5.756644e-01
5.742926e-01
0.000000e+00
1.000000e+00
5.750415e-01
5.765874e-01
5.786580e-01
5.807432e-01
5.827209e-01
5.843836e-01
5.855047e-01
5.859025e-01
5.855056e-01
5.843885e-01
5.827547e-01
5.808706e-01
5.788286e-01
5.766470e-01
5.744037e-01
0.000000e+00
1.000000e+00
5.753276e-01
5.771088e-01
5.794870e-01
5.818785e-01
5.841468e-01
5.860538e-01
5.873401e-01
5.877976e-01
5.873451e-01
5.860710e-01
5.842164e-01
5.820248e-01
5.796459e-01
5.772133e-01
5.742829e-01
0.000000e+00
1.000000e+00
5.753580e-01
5.771586e-01
5.795683e-01
5.819899e-01
5.842867e-01
5.862176e-01
5.875203e-01
5.879838e-01
5.875256e-01
5.862343e-01
5.843636e-01
5.821364e-01
5.797191e-01
5.772943e-01
5.744468e-01
0.000000e+00
1.000000e+00
5.751494e-01
5.767758e-01
5.789614e-01
5.811588e-01
5.832428e-01
5.849949e-01
5.861764e-01
5.865962e-01
5.861788e-01
5.850003e-01
5.832951e-01
5.812901e-01
5.791100e-01
5.769211e-01
5.742801e-01
0.000000e+00
1.000000e+00
5.747398e-01
5.760184e-01
5.777615e-01
5.795157e-01
5.811795e-01
5.825782e-01
5.835212e-01
5.838554e-01
5.835203e-01
5.825731e-01
5.811896e-01
5.796122e-01
5.779267e-01
5.761757e-01
5.739384e-01
0.000000e+00
1.000000e+00
5.741740e-01
5.749572e-01
5.760848e-01
5.772201e-01
5.782969e-01
5.792021e-01
5.798119e-01
5.800268e-01
5.798073e-01
5.791908e-01
5.782831e-01
5.772758e-01
5.762472e-01
5.751200e-01
5.734372e-01
0.000000e+00
1.000000e+00
5.734931e-01
5.736696e-01
5.740547e-01
5.744401e-01
5.748059e-01
5.751137e-01
5.753207e-01
5.753922e-01
5.753142e-01
5.751002e-01
5.747929e-01
5.745137e-01
5.741944e-01
5.738236e-01
5.728200e-01
0.000000e+00
1.000000e+00
5.645122e-01
5.553687e-01
5.454019e-01
5.352187e-01
5.255751e-01
5.174892e-01
5.120643e-01
5.101786e-01
5.121644e-01
5.176732e-01
5.258143e-01
5.355157e-01
5.456488e-01
5.556279e-01
5.641167e-01
0.000000e+00
1.000000e+00
5.652209e-01
5.570391e-01
5.480119e-01
5.387905e-01
5.300586e-01
5.227387e-01
5.178300e-01
5.161272e-01
5.179293e-01
5.229190e-01
5.302919e-01
5.391003e-01
5.482520e-01
5.573006e-01
5.649259e-01
0.000000e+00
1.000000e+00
5.661802e-01
5.590098e-01
5.510854e-01
5.429945e-01
5.353306e-01
5.289043e-01
5.245932e-01
5.230958e-01
5.246756e-01
5.290518e-01
5.355182e-01
5.432852e-01
5.512975e-01
5.592529e-01
5.658397e-01
0.000000e+00
1.000000e+00
5.672467e-01
5.612111e-01
5.545265e-01
5.477048e-01
5.412423e-01
5.358220e-01
5.321852e-01
5.309211e-01
5.322523e-01
5.359413e-01
5.413916e-01
5.479650e-01
5.547218e-01
5.614855e-01
5.670763e-01
0.000000e+00
1.000000e+00
5.684019e-01
5.635788e-01
5.582302e-01
5.527750e-01
5.476062e-01
5.432701e-01
5.403594e-01
5.393467e-01
5.404103e-01
5.433600e-01
5.477169e-01
5.530017e-01
5.584086e-01
5.639849e-01
5.676652e-01
0.000000e+00
1.000000e+00
5.696017e-01
5.660159e-01
5.620446e-01
5.579969e-01
5.541611e-01
5.509426e-01
5.487810e-01
5.480272e-01
5.488153e-01
5.510043e-01
5.542366e-01
5.581848e-01
5.622007e-01
5.663012e-01
5.686673e-01
0.000000e+00
1.000000e+00
5.707934e-01
5.684049e-01
5.657870e-01
5.631203e-01
5.605930e-01
5.584719e-01
5.570464e-01
5.565475e-01
5.570649e-01
5.585072e-01
5.606359e-01
5.632775e-01
5.659318e-01
5.684791e-01
5.705785e-01
0.000000e+00
1.000000e+00
5.719147e-01
5.706195e-01
5.692602e-01
5.678754e-01
5.665629e-01
5.654610e-01
5.647196e-01
5.644586e-01
5.647250e-01
5.654723e-01
5.665737e-01
5.680038e-01
5.693878e-01
5.706767e-01
5.717761e-01
0.000000e+00
1.000000e+00
5.729035e-01
5.725381e-01
5.722740e-01
5.720017e-01
5.717435e-01
5.715268e-01
5.713804e-01
5.713277e-01
5.713776e-01
5.715213e-01
5.717310e-01
5.720682e-01
5.723798e-01
5.725830e-01
5.725425e-01
0.000000e+00
1.000000e+00
5.737013e-01
5.740588e-01
5.746681e-01
5.752799e-01
5.758600e-01
5.763476e-01
5.766759e-01
5.767911e-01
5.766717e-01
5.763384e-01
5.758429e-01
5.753006e-01
5.747773e-01
5.741112e-01
5.736203e-01
0.000000e+00
1.000000e+00
5.742645e-01
5.751111e-01
5.763312e-01
5.775570e-01
5.787196e-01
5.796969e-01
5.803554e-01
5.805883e-01
5.803528e-01
5.796897e-01
5.787141e-01
5.776074e-01
5.764607e-01
5.751458e-01
5.740982e-01
0.000000e+00
1.000000e+00
5.745644e-01
5.756649e-01
5.772113e-01
5.787623e-01
5.802332e-01
5.814697e-01
5.823034e-01
5.825991e-01
5.823032e-01
5.814679e-01
5.802500e-01
5.788495e-01
5.773454e-01
5.757245e-01
5.737515e-01
0.000000e+00
1.000000e+00
5.746006e-01
5.757306e-01
5.773188e-01
5.789096e-01
5.804182e-01
5.816865e-01
5.825418e-01
5.828454e-01
5.825423e-01
5.816859e-01
5.804413e-01
5.790038e-01
5.774472e-01
5.758421e-01
5.737485e-01
0.000000e+00
1.000000e+00
5.743965e-01
5.753500e-01
5.767175e-01
5.780862e-01
5.793842e-01
5.804754e-01
5.812110e-01
5.814718e-01
5.812103e-01
5.804712e-01
5.793908e-01
5.781584e-01
5.768334e-01
5.754814e-01
5.736306e-01
0.000000e+00
1.000000e+00
5.739884e-01
5.745862e-01
5.755093e-01
5.764319e-01
5.773069e-01
5.780424e-01
5.785380e-01
5.787132e-01
5.785353e-01
5.780348e-01
5.772982e-01
5.764770e-01
5.756290e-01
5.747323e-01
5.732638e-01
0.000000e+00
1.000000e+00
5.734242e-01
5.735150e-01
5.738188e-01
5.741170e-01
5.743999e-01
5.746378e-01
5.747979e-01
5.748535e-01
5.747935e-01
5.746286e-01
5.743928e-01
5.741788e-01
5.739407e-01
5.736700e-01
5.727567e-01
0.000000e+00
1.000000e+00
5.727448e-01
5.722179e-01
5.717762e-01
5.713201e-01
5.708879e-01
5.705253e-01
5.702812e-01
5.701942e-01
5.702790e-01
5.705225e-01
5.708999e-01
5.714294e-01
5.718918e-01
5.723629e-01
5.721011e-01
0.000000e+00
1.000000e+00
5.639842e-01
5.542079e-01
5.435838e-01
5.327297e-01
5.224511e-01
5.138332e-01
5.080516e-01
5.060423e-01
5.081597e-01
5.140329e-01
5.227124e-01
5.330283e-01
5.438506e-01
5.544183e-01
5.636449e-01
0.000000e+00
1.000000e+00
5.646190e-01
5.557484e-01
5.459951e-01
5.360301e-01
5.265948e-01
5.186858e-01
5.133826e-01
5.115435e-01
5.134914e-01
5.188840e-01
5.268572e-01
5.363383e-01
5.462523e-01
5.559657e-01
5.643697e-01
0.000000e+00
1.000000e+00
5.655233e-01
5.576199e-01
5.489142e-01
5.400221e-01
5.316003e-01
5.245390e-01
5.198025e-01
5.181580e-01
5.198944e-01
5.247036e-01
5.318179e-01
5.403195e-01
5.491378e-01
5.578204e-01
5.651998e-01
0.000000e+00
1.000000e+00
5.665501e-01
5.597544e-01
5.522504e-01
5.445885e-01
5.373306e-01
5.312439e-01
5.271602e-01
5.257411e-01
5.272364e-01
5.313791e-01
5.375072e-01
5.448559e-01
5.524501e-01
5.600366e-01
5.662837e-01
0.000000e+00
1.000000e+00
5.676819e-01
5.620894e-01
5.559018e-01
5.495869e-01
5.436039e-01
5.385851e-01
5.352163e-01
5.340443e-01
5.352752e-01
5.386892e-01
5.437366e-01
5.498154e-01
5.560926e-01
5.625687e-01
5.667224e-01
0.000000e+00
1.000000e+00
5.688718e-01
5.645264e-01
5.597143e-01
5.548061e-01
5.501551e-01
5.462524e-01
5.436313e-01
5.427176e-01
5.436726e-01
5.463260e-01
5.502462e-01
5.549873e-01
5.598775e-01
5.648564e-01
5.677010e-01
0.000000e+00
1.000000e+00
5.700657e-01
5.669429e-01
5.634974e-01
5.599852e-01
5.566563e-01
5.538622e-01
5.519844e-01
5.513276e-01
5.520089e-01
5.539077e-01
5.567120e-01
5.601213e-01
5.636275e-01
5.670073e-01
5.698914e-01
0.000000e+00
1.000000e+00
5.712009e-01
5.692035e-01
5.670406e-01
5.648360e-01
5.627462e-01
5.609914e-01
5.598109e-01
5.593961e-01
5.598213e-01
5.610122e-01
5.627710e-01
5.649417e-01
5.671541e-01
5.692168e-01
5.713329e-01
0.000000e+00
1.000000e+00
5.722095e-01
5.711765e-01
5.701375e-01
5.690762e-01
5.680699e-01
5.672245e-01
5.666550e-01
5.664534e-01
5.666555e-01
5.672263e-01
5.680692e-01
5.691495e-01
5.702310e-01
5.711619e-01
5.721599e-01
0.000000e+00
1.000000e+00
5.730252e-01
5.727501e-01
5.726118e-01
5.724640e-01
5.723237e-01
5.722058e-01
5.721259e-01
5.720966e-01
5.721225e-01
5.721990e-01
5.723112e-01
5.724888e-01
5.726849e-01
5.727563e-01
5.731867e-01
0.000000e+00
1.000000e+00
5.736035e-01
5.738455e-01
5.743399e-01
5.748302e-01
5.752951e-01
5.756857e-01
5.759487e-01
5.760411e-01
5.759456e-01
5.756788e-01
5.752839e-01
5.748412e-01
5.744158e-01
5.738390e-01
5.736702e-01
0.000000e+00
1.000000e+00
5.739152e-01
5.744272e-01
5.752631e-01
5.760944e-01
5.768827e-01
5.775453e-01
5.779918e-01
5.781497e-01
5.779902e-01
5.775404e-01
5.768794e-01
5.761268e-01
5.753432e-01
5.744032e-01
5.731543e-01
0.000000e+00
1.000000e+00
5.739586e-01
5.745043e-01
5.753900e-01
5.762683e-01
5.771012e-01
5.778014e-01
5.782733e-01
5.784405e-01
5.782724e-01
5.777979e-01
5.771012e-01
5.763060e-01
5.754614e-01
5.745582e-01
5.728621e-01
0.000000e+00
1.000000e+00
5.737563e-01
5.741230e-01
5.747887e-01
5.754451e-01
5.760676e-01
5.765908e-01
5.769435e-01
5.770682e-01
5.769420e-01
5.765866e-01
5.760648e-01
5.754748e-01
5.748547e-01
5.742265e-01
5.728483e-01
0.000000e+00
1.000000e+00
5.733491e-01
5.733507e-01
5.735687e-01
5.737746e-01
5.739698e-01
5.741339e-01
5.742445e-01
5.742830e-01
5.742422e-01
5.741293e-01
5.739697e-01
5.738181e-01
5.736462e-01
5.734762e-01
5.725549e-01
0.000000e+00
1.000000e+00
5.727869e-01
5.722677e-01
5.718618e-01
5.714373e-01
5.710348e-01
5.706968e-01
5.704691e-01
5.703882e-01
5.704681e-01
5.706962e-01
5.710475e-01
5.715249e-01
5.719652e-01
5.724106e-01
5.721085e-01
0.000000e+00
1.000000e+00
5.721133e-01
5.709602e-01
5.698054e-01
5.686216e-01
5.674996e-01
5.665577e-01
5.659239e-01
5.657006e-01
5.659284e-01
5.665704e-01
5.675386e-01
5.687322e-01
5.699122e-01
5.710988e-01
5.714898e-01
0.000000e+00
1.000000e+00
5.636246e-01
5.534264e-01
5.423634e-01
5.310593e-01
5.203559e-01
5.113827e-01
5.053639e-01
5.032739e-01
5.054810e-01
5.115982e-01
5.206312e-01
5.313958e-01
5.426371e-01
5.536324e-01
5.632667e-01
0.000000e+00
1.000000e+00
5.642224e-01
5.548444e-01
5.445858e-01
5.341011e-01
5.241747e-01
5.158546e-01
5.102762e-01
5.083426e-01
5.103932e-01
5.160676e-01
5.244586e-01
5.344232e-01
5.448400e-01
5.550611e-01
5.639163e-01
0.000000e+00
1.000000e+00
5.650670e-01
5.566157e-01
5.473491e-01
5.378799e-01
5.289125e-01
5.213947e-01
5.163529e-01
5.146033e-01
5.164534e-01
5.215755e-01
5.291615e-01
5.381731e-01
5.475748e-01
5.568362e-01
5.648190e-01
0.000000e+00
1.000000e+00
5.660525e-01
5.586797e-01
5.505747e-01
5.422947e-01
5.344519e-01
5.278756e-01
5.234641e-01
5.219319e-01
5.235487e-01
5.280263e-01
5.346609e-01
5.425561e-01
5.507802e-01
5.590466e-01
5.656766e-01
0.000000e+00
1.000000e+00
5.671579e-01
5.609756e-01
5.541638e-01
5.472074e-01
5.406172e-01
5.350896e-01
5.313802e-01
5.300900e-01
5.314466e-01
5.352078e-01
5.407767e-01
5.474355e-01
5.543646e-01
5.615739e-01
5.655191e-01
0.000000e+00
1.000000e+00
5.683366e-01
5.634037e-01
5.579612e-01
5.524058e-01
5.471418e-01
5.427250e-01
5.397593e-01
5.387257e-01
5.398069e-01
5.428102e-01
5.472509e-01
5.525911e-01
5.581346e-01
5.638002e-01
5.665603e-01
0.000000e+00
1.000000e+00
5.695284e-01
5.658374e-01
5.617694e-01
5.576191e-01
5.536856e-01
5.503840e-01
5.481655e-01
5.473899e-01
5.481950e-01
5.504383e-01
5.537527e-01
5.577492e-01
5.618937e-01
5.659131e-01
5.690656e-01
0.000000e+00
1.000000e+00
5.706684e-01
5.681340e-01
5.653659e-01
5.625427e-01
5.598664e-01
5.576191e-01
5.561075e-01
5.555768e-01
5.561218e-01
5.576469e-01
5.599006e-01
5.626251e-01
5.654571e-01
5.681402e-01
5.707946e-01
0.000000e+00
1.000000e+00
5.716878e-01
5.701509e-01
5.685293e-01
5.668739e-01
5.653042e-01
5.639854e-01
5.630972e-01
5.627835e-01
5.631001e-01
5.639926e-01
5.653130e-01
5.669232e-01
5.686011e-01
5.701452e-01
5.721929e-01
0.000000e+00
1.000000e+00
5.725243e-01
5.717665e-01
5.710683e-01
5.703504e-01
5.696694e-01
5.690970e-01
5.687109e-01
5.685735e-01
5.687084e-01
5.690925e-01
5.696621e-01
5.703704e-01
5.711183e-01
5.718051e-01
5.734027e-01
0.000000e+00
1.000000e+00
5.731204e-01
5.728952e-01
5.728470e-01
5.727858e-01
5.727278e-01
5.726788e-01
5.726456e-01
5.726333e-01
5.726433e-01
5.726737e-01
5.727191e-01
5.727848e-01
5.728848e-01
5.729066e-01
5.739998e-01
0.000000e+00
1.000000e+00
5.734371e-01
5.734959e-01
5.738002e-01
5.740909e-01
5.743666e-01
5.745983e-01
5.747544e-01
5.748097e-01
5.747540e-01
5.745969e-01
5.743637e-01
5.740981e-01
5.738345e-01
5.733699e-01
5.734075e-01
0.000000e+00
1.000000e+00
5.734795e-01
5.735766e-01
5.739344e-01
5.742750e-01
5.745981e-01
5.748696e-01
5.750527e-01
5.751178e-01
5.750533e-01
5.748706e-01
5.746001e-01
5.742877e-01
5.739607e-01
5.734773e-01
5.725551e-01
0.000000e+00
1.000000e+00
5.732736e-01
5.731872e-01
5.733220e-01
5.734367e-01
5.735455e-01
5.736370e-01
5.736988e-01
5.737206e-01
5.736986e-01
5.736374e-01
5.735512e-01
5.734572e-01
5.733529e-01
5.731746e-01
5.722718e-01
0.000000e+00
1.000000e+00
5.728639e-01
5.724007e-01
5.720803e-01
5.717364e-01
5.714104e-01
5.711365e-01
5.709521e-01
5.708868e-01
5.709522e-01
5.711383e-01
5.714247e-01
5.717852e-01
5.721337e-01
5.724392e-01
5.720151e-01
0.000000e+00
1.000000e+00
5.723026e-01
5.713010e-01
5.703481e-01
5.693647e-01
5.684323e-01
5.676492e-01
5.671221e-01
5.669364e-01
5.671256e-01
5.676591e-01
5.684628e-01
5.694438e-01
5.704350e-01
5.713780e-01
5.715567e-01
0.000000e+00
1.000000e+00
5.716299e-01
5.699786e-01
5.682694e-01
5.665186e-01
5.648591e-01
5.634657e-01
5.625283e-01
5.621993e-01
5.625383e-01
5.634897e-01
5.649105e-01
5.666078e-01
5.683573e-01
5.700796e-01
5.709615e-01
0.000000e+00
1.000000e+00
5.634911e-01
5.530969e-01
5.418491e-01
5.303552e-01
5.194732e-01
5.103515e-01
5.042343e-01
5.021120e-01
5.043585e-01
5.105806e-01
5.197552e-01
5.307369e-01
5.420961e-01
5.533196e-01
5.630475e-01
0.000000e+00
1.000000e+00
5.640520e-01
5.544083e-01
5.439051e-01
5.331694e-01
5.230058e-01
5.144876e-01
5.087769e-01
5.067984e-01
5.088999e-01
5.147121e-01
5.232997e-01
5.335218e-01
5.441370e-01
5.546468e-01
5.636367e-01
0.000000e+00
1.000000e+00
5.648439e-01
5.560880e-01
5.465274e-01
5.367556e-01
5.275025e-01
5.197461e-01
5.145450e-01
5.127414e-01
5.146521e-01
5.199401e-01
5.277688e-01
5.370657e-01
5.467508e-01
5.563481e-01
5.646145e-01
0.000000e+00
1.000000e+00
5.657926e-01
5.580863e-01
5.496503e-01
5.410295e-01
5.328647e-01
5.260192e-01
5.214279e-01
5.198344e-01
5.215192e-01
5.261829e-01
5.330935e-01
5.413046e-01
5.498696e-01
5.585651e-01
5.650633e-01
0.000000e+00
1.000000e+00
5.668745e-01
5.603428e-01
5.531777e-01
5.458576e-01
5.389234e-01
5.331080e-01
5.292060e-01
5.278500e-01
5.292787e-01
5.332379e-01
5.391017e-01
5.461036e-01
5.533888e-01
5.610415e-01
5.645562e-01
0.000000e+00
1.000000e+00
5.680423e-01
5.627579e-01
5.569542e-01
5.510272e-01
5.454113e-01
5.407000e-01
5.375370e-01
5.364356e-01
5.375899e-01
5.407950e-01
5.455361e-01
5.512324e-01
5.571236e-01
5.631870e-01
5.662003e-01
0.000000e+00
1.000000e+00
5.692329e-01
5.652010e-01
5.607763e-01
5.562594e-01
5.519787e-01
5.483860e-01
5.459722e-01
5.451290e-01
5.460058e-01
5.484476e-01
5.520573e-01
5.564021e-01
5.608862e-01
5.652810e-01
5.686960e-01
0.000000e+00
1.000000e+00
5.703783e-01
5.675227e-01
5.644108e-01
5.612350e-01
5.582245e-01
5.556967e-01
5.539967e-01
5.534003e-01
5.540135e-01
5.557290e-01
5.582666e-01
5.613152e-01
5.644785e-01
5.675145e-01
5.702956e-01
0.000000e+00
1.000000e+00
5.714045e-01
5.695720e-01
5.676228e-01
5.656323e-01
5.637450e-01
5.621594e-01
5.610916e-01
5.607148e-01
5.610958e-01
5.621689e-01
5.637594e-01
5.656668e-01
5.676612e-01
5.696037e-01
5.720838e-01
0.000000e+00
1.000000e+00
5.722454e-01
5.712170e-01
5.702070e-01
5.691706e-01
5.681876e-01
5.673612e-01
5.668039e-01
5.666056e-01
5.668010e-01
5.673566e-01
5.681829e-01
5.691764e-01
5.702264e-01
5.713951e-01
5.737112e-01
0.000000e+00
1.000000e+00
5.728541e-01
5.723651e-01
5.720162e-01
5.716480e-01
5.712987e-01
5.710049e-01
5.708066e-01
5.707354e-01
5.708033e-01
5.709980e-01
5.712885e-01
5.716384e-01
5.720237e-01
5.726174e-01
5.750418e-01
0.000000e+00
1.000000e+00
5.731858e-01
5.729728e-01
5.729799e-01
5.729676e-01
5.729559e-01
5.729460e-01
5.729392e-01
5.729366e-01
5.729384e-01
5.729435e-01
5.729504e-01
5.729629e-01
5.729827e-01
5.730360e-01
5.753147e-01
0.000000e+00
1.000000e+00
5.732194e-01
5.730453e-01
5.731045e-01
5.731382e-01
5.731702e-01
5.731972e-01
5.732156e-01
5.732225e-01
5.732167e-01
5.731989e-01
5.731706e-01
5.731381e-01
5.731036e-01
5.729098e-01
5.743471e-01
0.000000e+00
1.000000e+00
5.729985e-01
5.726357e-01
5.724633e-01
5.722607e-01
5.720686e-01
5.719073e-01
5.717988e-01
5.717608e-01
5.718002e-01
5.719112e-01
5.720764e-01
5.722702e-01
5.724747e-01
5.724825e-01
5.734155e-01
0.000000e+00
1.000000e+00
5.725795e-01
5.718248e-01
5.711826e-01
5.705072e-01
5.698669e-01
5.693291e-01
5.689669e-01
5.688393e-01
5.689691e-01
5.693361e-01
5.698871e-01
5.705417e-01
5.712196e-01
5.717107e-01
5.726922e-01
0.000000e+00
1.000000e+00
5.720129e-01
5.706993e-01
5.694089e-01
5.680787e-01
5.668176e-01
5.657585e-01
5.650457e-01
5.647950e-01
5.650518e-01
5.657744e-01
5.668525e-01
5.681339e-01
5.694748e-01
5.706259e-01
5.717944e-01
0.000000e+00
1.000000e+00
5.713331e-01
5.693523e-01
5.672916e-01
5.651799e-01
5.631782e-01
5.614973e-01
5.603668e-01
5.599704e-01
5.603798e-01
5.615265e-01
5.632301e-01
5.652483e-01
5.673629e-01
5.693425e-01
5.706738e-01
0.000000e+00
1.000000e+00
5.635697e-01
5.532664e-01
5.421143e-01
5.307174e-01
5.199285e-01
5.108863e-01
5.048237e-01
5.027223e-01
5.049522e-01
5.111256e-01
5.202136e-01
5.311198e-01
5.423553e-01
5.535391e-01
5.629690e-01
0.000000e+00
1.000000e+00
5.641168e-01
5.544974e-01
5.440433e-01
5.333577e-01
5.232418e-01
5.147642e-01
5.090815e-01
5.071139e-01
5.092072e-01
5.149955e-01
5.235392e-01
5.337257e-01
5.442641e-01
5.547570e-01
5.635682e-01
0.000000e+00
1.000000e+00
5.648682e-01
5.561046e-01
5.465545e-01
5.367930e-01
5.275502e-01
5.198032e-01
5.146093e-01
5.128097e-01
5.147202e-01
5.200056e-01
5.278246e-01
5.371205e-01
5.467709e-01
5.564092e-01
5.645988e-01
0.000000e+00
1.000000e+00
5.657923e-01
5.580510e-01
5.495964e-01
5.409560e-01
5.327730e-01
5.259130e-01
5.213129e-01
5.197177e-01
5.214082e-01
5.260854e-01
5.330125e-01
5.412497e-01
5.498190e-01
5.586198e-01
5.645326e-01
0.000000e+00
1.000000e+00
5.668585e-01
5.602757e-01
5.530743e-01
5.457163e-01
5.387465e-01
5.329018e-01
5.289811e-01
5.276198e-01
5.290577e-01
5.330398e-01
5.389372e-01
5.459836e-01
5.532857e-01
5.610412e-01
5.641387e-01
0.000000e+00
1.000000e+00
5.680197e-01
5.626790e-01
5.568325e-01
5.508608e-01
5.452028e-01
5.404567e-01
5.372710e-01
5.361627e-01
5.373273e-01
5.405586e-01
5.453405e-01
5.510845e-01
5.569979e-01
5.631556e-01
5.657159e-01
0.000000e+00
1.000000e+00
5.692118e-01
5.651273e-01
5.606624e-01
5.561037e-01
5.517835e-01
5.481581e-01
5.457228e-01
5.448729e-01
5.457589e-01
5.482249e-01
5.518728e-01
5.562589e-01
5.607765e-01
5.652144e-01
5.685716e-01
0.000000e+00
1.000000e+00
5.703645e-01
5.674652e-01
5.643217e-01
5.611131e-01
5.580717e-01
5.555182e-01
5.538013e-01
5.531992e-01
5.538192e-01
5.555535e-01
5.581210e-01
5.612012e-01
5.643975e-01
5.674490e-01
5.706938e-01
0.000000e+00
1.000000e+00
5.714013e-01
5.695340e-01
5.675633e-01
5.655511e-01
5.636431e-01
5.620403e-01
5.609610e-01
5.605799e-01
5.609648e-01
5.620500e-01
5.636611e-01
5.655903e-01
5.676081e-01
5.695638e-01
5.718998e-01
0.000000e+00
1.000000e+00
5.722486e-01
5.711944e-01
5.701708e-01
5.691210e-01
5.681252e-01
5.672880e-01
5.667233e-01
5.665218e-01
5.667187e-01
5.672809e-01
5.681201e-01
5.691286e-01
5.701929e-01
5.713130e-01
5.722235e-01
0.000000e+00
1.000000e+00
5.728566e-01
5.723460e-01
5.719878e-01
5.716088e-01
5.712491e-01
5.709464e-01
5.707417e-01
5.706676e-01
5.707359e-01
5.709350e-01
5.712347e-01
5.715982e-01
5.719926e-01
5.725528e-01
5.730615e-01
0.000000e+00
1.000000e+00
5.731868e-01
5.729433e-01
5.729376e-01
5.729095e-01
5.728827e-01
5.728599e-01
5.728442e-01
5.728379e-01
5.728414e-01
5.728539e-01
5.728736e-01
5.729018e-01
5.729322e-01
5.732439e-01
5.751272e-01
0.000000e+00
1.000000e+00
5.732229e-01
5.729935e-01
5.730286e-01
5.730341e-01
5.730394e-01
5.730437e-01
5.730465e-01
5.730471e-01
5.730455e-01
5.730414e-01
5.730345e-01
5.730272e-01
5.730132e-01
5.731602e-01
5.754839e-01
0.000000e+00
1.000000e+00
5.729731e-01
5.725482e-01
5.723376e-01
5.720882e-01
5.718518e-01
5.716533e-01
5.715197e-01
5.714727e-01
5.715204e-01
5.716541e-01
5.718507e-01
5.720822e-01
5.723307e-01
5.725358e-01
5.748554e-01
0.000000e+00
1.000000e+00
5.725301e-01
5.716991e-01
5.709949e-01
5.702502e-01
5.695440e-01
5.689508e-01
5.685515e-01
5.684106e-01
5.685536e-01
5.689573e-01
5.695563e-01
5.702625e-01
5.710158e-01
5.716028e-01
5.739220e-01
0.000000e+00
1.000000e+00
5.719505e-01
5.705355e-01
5.691570e-01
5.677337e-01
5.663844e-01
5.652511e-01
5.644884e-01
5.642202e-01
5.644946e-01
5.652670e-01
5.664130e-01
5.677674e-01
5.692048e-01
5.703873e-01
5.730869e-01
0.000000e+00
1.000000e+00
5.712554e-01
5.691500e-01
5.669780e-01
5.647504e-01
5.626389e-01
5.608660e-01
5.596735e-01
5.592552e-01
5.596867e-01
5.608952e-01
5.626847e-01
5.648006e-01
5.670348e-01
5.689734e-01
5.715085e-01
0.000000e+00
1.000000e+00
5.638622e-01
5.539539e-01
5.431892e-01
5.321872e-01
5.217730e-01
5.130459e-01
5.071963e-01
5.051710e-01
5.073262e-01
5.132899e-01
5.220577e-01
5.325901e-01
5.434302e-01
5.542718e-01
5.630344e-01
0.000000e+00
1.000000e+00
5.644166e-01
5.551374e-01
5.450420e-01
5.347231e-01
5.249544e-01
5.167680e-01
5.112815e-01
5.093832e-01
5.114065e-01
5.169996e-01
5.252490e-01
5.350876e-01
5.452597e-01
5.553890e-01
5.638825e-01
0.000000e+00
1.000000e+00
5.651469e-01
5.566998e-01
5.474849e-01
5.380665e-01
5.291487e-01
5.216746e-01
5.166647e-01
5.149304e-01
5.167762e-01
5.218791e-01
5.294241e-01
5.383955e-01
5.477055e-01
5.570246e-01
5.648709e-01
0.000000e+00
1.000000e+00
5.660604e-01
5.586156e-01
5.504790e-01
5.421641e-01
5.342897e-01
5.276888e-01
5.232635e-01
5.217305e-01
5.233597e-01
5.278640e-01
5.345331e-01
5.424647e-01
5.507101e-01
5.592309e-01
5.645891e-01
0.000000e+00
1.000000e+00
5.671213e-01
5.608226e-01
5.539294e-01
5.468870e-01
5.402164e-01
5.346229e-01
5.308718e-01
5.295708e-01
5.309493e-01
5.347638e-01
5.404143e-01
5.471637e-01
5.541484e-01
5.615793e-01
5.644012e-01
0.000000e+00
1.000000e+00
5.682821e-01
5.632205e-01
5.576796e-01
5.520207e-01
5.466593e-01
5.421622e-01
5.391445e-01
5.380960e-01
5.392016e-01
5.422666e-01
5.468063e-01
5.522539e-01
5.578597e-01
5.636675e-01
5.661608e-01
0.000000e+00
1.000000e+00
5.694787e-01
5.656732e-01
5.615165e-01
5.572732e-01
5.532522e-01
5.498781e-01
5.476123e-01
5.468222e-01
5.476485e-01
5.499466e-01
5.533500e-01
5.574437e-01
5.616593e-01
5.657769e-01
5.689291e-01
0.000000e+00
1.000000e+00
5.706399e-01
5.680202e-01
5.651898e-01
5.623020e-01
5.595647e-01
5.572669e-01
5.557222e-01
5.551805e-01
5.557391e-01
5.573020e-01
5.596200e-01
5.624101e-01
5.653051e-01
5.680082e-01
5.710486e-01
0.000000e+00
1.000000e+00
5.716871e-01
5.700962e-01
5.684428e-01
5.667556e-01
5.651560e-01
5.638123e-01
5.629073e-01
5.625873e-01
5.629092e-01
5.638195e-01
5.651759e-01
5.668148e-01
5.685320e-01
5.701272e-01
5.728156e-01
0.000000e+00
1.000000e+00
5.725458e-01
5.717562e-01
5.710496e-01
5.703247e-01
5.696371e-01
5.690590e-01
5.686686e-01
5.685283e-01
5.686622e-01
5.690487e-01
5.696309e-01
5.703450e-01
5.711090e-01
5.718508e-01
5.727486e-01
0.000000e+00
1.000000e+00
5.731612e-01
5.728954e-01
5.728482e-01
5.727870e-01
5.727289e-01
5.726797e-01
5.726457e-01
5.726315e-01
5.726387e-01
5.726673e-01
5.727164e-01
5.727878e-01
5.728853e-01
5.728354e-01
5.701106e-01
0.000000e+00
1.000000e+00
5.734838e-01
5.734640e-01
5.737600e-01
5.740354e-01
5.742965e-01
5.745158e-01
5.746630e-01
5.747140e-01
5.746590e-01
5.745095e-01
5.742927e-01
5.740389e-01
5.737814e-01
5.734623e-01
5.715425e-01
0.000000e+00
1.000000e+00
5.735033e-01
5.734727e-01
5.737915e-01
5.740787e-01
5.743511e-01
5.745798e-01
5.747335e-01
5.747870e-01
5.747306e-01
5.745756e-01
5.743489e-01
5.740774e-01
5.737956e-01
5.737136e-01
5.741027e-01
0.000000e+00
1.000000e+00
5.732294e-01
5.729754e-01
5.730262e-01
5.730309e-01
5.730355e-01
5.730393e-01
5.730415e-01
5.730413e-01
5.730380e-01
5.730328e-01
5.730277e-01
5.730196e-01
5.730234e-01
5.732445e-01
5.751935e-01
0.000000e+00
1.000000e+00
5.727418e-01
5.720725e-01
5.715976e-01
5.710750e-01
5.705797e-01
5.701635e-01
5.698832e-01
5.697840e-01
5.698829e-01
5.701634e-01
5.705781e-01
5.710712e-01
5.716125e-01
5.722331e-01
5.749016e-01
0.000000e+00
1.000000e+00
5.721396e-01
5.708586e-01
5.696685e-01
5.684341e-01
5.672640e-01
5.662813e-01
5.656198e-01
5.653867e-01
5.656237e-01
5.662922e-01
5.672809e-01
5.684525e-01
5.697103e-01
5.709127e-01
5.745167e-01
0.000000e+00
1.000000e+00
5.714067e-01
5.694183e-01
5.674010e-01
5.653296e-01
5.633664e-01
5.617180e-01
5.606094e-01
5.602203e-01
5.606210e-01
5.617442e-01
5.634036e-01
5.653669e-01
5.674522e-01
5.692771e-01
5.737100e-01
0.000000e+00
1.000000e+00
5.643828e-01
5.551446e-01
5.450498e-01
5.347320e-01
5.249652e-01
5.167816e-01
5.112977e-01
5.094014e-01
5.114252e-01
5.170211e-01
5.252434e-01
5.351192e-01
5.452870e-01
5.554880e-01
5.633450e-01
0.000000e+00
1.000000e+00
5.649579e-01
5.563162e-01
5.468821e-01
5.372406e-01
5.281122e-01
5.204626e-01
5.153365e-01
5.135644e-01
5.154571e-01
5.206862e-01
5.283955e-01
5.375866e-01
5.471018e-01
5.565532e-01
5.645919e-01
0.000000e+00
1.000000e+00
5.656846e-01
5.578659e-01
5.493068e-01
5.405602e-01
5.322781e-01
5.253369e-01
5.206854e-01
5.190767e-01
5.207935e-01
5.255361e-01
5.325464e-01
5.408780e-01
5.495334e-01
5.581966e-01
5.653877e-01
0.000000e+00
1.000000e+00
5.666002e-01
5.597762e-01
5.522925e-01
5.446469e-01
5.374059e-01
5.313361e-01
5.272679e-01
5.258602e-01
5.273609e-01
5.315069e-01
5.376451e-01
5.449434e-01
5.525356e-01
5.603840e-01
5.650270e-01
0.000000e+00
1.000000e+00
5.676662e-01
5.619831e-01
5.557432e-01
5.493703e-01
5.433337e-01
5.382722e-01
5.348784e-01
5.337032e-01
5.349531e-01
5.384092e-01
5.435317e-01
5.496490e-01
5.559775e-01
5.626801e-01
5.650664e-01
0.000000e+00
1.000000e+00
5.688325e-01
5.643853e-01
5.595003e-01
5.545136e-01
5.497891e-01
5.458266e-01
5.431681e-01
5.422457e-01
5.432224e-01
5.459273e-01
5.499396e-01
5.547573e-01
5.597099e-01
5.648392e-01
5.670304e-01
0.000000e+00
1.000000e+00
5.700365e-01
5.668439e-01
5.633467e-01
5.597792e-01
5.563987e-01
5.535624e-01
5.516581e-01
5.509946e-01
5.516906e-01
5.536261e-01
5.565008e-01
5.599760e-01
5.635363e-01
5.670549e-01
5.691307e-01
0.000000e+00
1.000000e+00
5.712077e-01
5.691943e-01
5.670260e-01
5.648162e-01
5.627217e-01
5.609638e-01
5.597819e-01
5.593670e-01
5.597939e-01
5.609913e-01
5.627778e-01
5.649593e-01
5.671967e-01
5.692383e-01
5.714265e-01
0.000000e+00
1.000000e+00
5.722653e-01
5.712663e-01
5.702742e-01
5.692633e-01
5.683050e-01
5.675001e-01
5.669576e-01
5.667643e-01
5.669545e-01
5.674977e-01
5.683186e-01
5.693462e-01
5.704120e-01
5.713225e-01
5.735917e-01
0.000000e+00
1.000000e+00
5.731323e-01
5.729101e-01
5.728584e-01
5.728017e-01
5.727480e-01
5.727027e-01
5.726712e-01
5.726577e-01
5.726633e-01
5.726890e-01
5.727402e-01
5.728361e-01
5.729722e-01
5.730348e-01
5.733361e-01
0.000000e+00
1.000000e+00
5.737495e-01
5.740194e-01
5.746127e-01
5.752038e-01
5.757644e-01
5.762357e-01
5.765530e-01
5.766647e-01
5.765506e-01
5.762340e-01
5.757731e-01
5.752380e-01
5.747182e-01
5.739712e-01
5.716380e-01
0.000000e+00
1.000000e+00
5.740729e-01
5.745444e-01
5.754595e-01
5.763634e-01
5.772211e-01
5.779425e-01
5.784294e-01
5.786034e-01
5.784350e-01
5.779568e-01
5.772504e-01
5.764076e-01
5.755517e-01
5.742900e-01
5.704832e-01
0.000000e+00
1.000000e+00
5.740854e-01
5.744933e-01
5.754097e-01
5.762951e-01
5.771351e-01
5.778416e-01
5.783186e-01
5.784892e-01
5.783241e-01
5.778536e-01
5.771596e-01
5.763273e-01
5.754793e-01
5.742704e-01
5.696704e-01
0.000000e+00
1.000000e+00
5.737857e-01
5.739227e-01
5.745480e-01
5.751146e-01
5.756521e-01
5.761038e-01
5.764079e-01
5.765149e-01
5.764060e-01
5.761027e-01
5.756600e-01
5.751226e-01
5.745945e-01
5.739898e-01
5.709602e-01
0.000000e+00
1.000000e+00
5.732399e-01
5.729531e-01
5.730123e-01
5.730122e-01
5.730125e-01
5.730130e-01
5.730131e-01
5.730123e-01
5.730098e-01
5.730076e-01
5.730072e-01
5.730067e-01
5.730519e-01
5.732215e-01
5.731542e-01
0.000000e+00
1.000000e+00
5.725834e-01
5.716826e-01
5.709681e-01
5.702136e-01
5.694989e-01
5.688991e-01
5.684957e-01