<?xml version="1.0"?>
<VTKFile type="StructuredGrid" version="0.1">
  <StructuredGrid WholeExtent="0 16 0 16 0 16">
    <Piece Extent="0 16 0 16 0 16">
      <PointData Scalars="temperature" Vectors="velocity">
        <DataArray type="Float32" Name="temperature" format="ascii">
1.000000e+00
5.651835e-01
5.568687e-01
5.477449e-01
5.384233e-01
5.295903e-01
5.221762e-01
5.171920e-01
5.154440e-01
5.172399e-01
5.222649e-01
5.297041e-01
5.385708e-01
5.478557e-01
5.569709e-01
5.652096e-01
0.000000e+00
1.000000e+00
5.660366e-01
5.586689e-01
5.505525e-01
5.422652e-01
5.344115e-01
5.278192e-01
5.233876e-01
5.218339e-01
5.234317e-01
5.279006e-01
5.345173e-01
5.424059e-01
5.506413e-01
5.587386e-01
5.660631e-01
0.000000e+00
1.000000e+00
5.670342e-01
5.607207e-01
5.537608e-01
5.466566e-01
5.399233e-01
5.342702e-01
5.304693e-01
5.291360e-01
5.305054e-01
5.343370e-01
5.400128e-01
5.467837e-01
5.538439e-01
5.607863e-01
5.670306e-01
0.000000e+00
1.000000e+00
5.681269e-01
5.629741e-01
5.572876e-01
5.514854e-01
5.459856e-01
5.413677e-01
5.382622e-01
5.371724e-01
5.382905e-01
5.414202e-01
5.460598e-01
5.515994e-01
5.573672e-01
5.630388e-01
5.681093e-01
0.000000e+00
1.000000e+00
5.692830e-01
5.653593e-01
5.610219e-01
5.565983e-01
5.524049e-01
5.488836e-01
5.465148e-01
5.456826e-01
5.465345e-01
5.489206e-01
5.524622e-01
5.567004e-01
5.610977e-01
5.654167e-01
5.691894e-01
0.000000e+00
1.000000e+00
5.704674e-01
5.677818e-01
5.648155e-01
5.617923e-01
5.589263e-01
5.565194e-01
5.548999e-01
5.543296e-01
5.549101e-01
5.565402e-01
5.589643e-01
5.618845e-01
5.648874e-01
5.678164e-01
5.704504e-01
0.000000e+00
1.000000e+00
5.716296e-01
5.701298e-01
5.684952e-01
5.668303e-01
5.652521e-01
5.639267e-01
5.630345e-01
5.627191e-01
5.630368e-01
5.639322e-01
5.652672e-01
5.669119e-01
5.685631e-01
5.701578e-01
5.716934e-01
0.000000e+00
1.000000e+00
5.726930e-01
5.722872e-01
5.718781e-01
5.714624e-01
5.710684e-01
5.707376e-01
5.705148e-01
5.704355e-01
5.705133e-01
5.707341e-01
5.710649e-01
5.715164e-01
5.719379e-01
5.723215e-01
5.726840e-01
0.000000e+00
1.000000e+00
5.736066e-01
5.741442e-01
5.747913e-01
5.754515e-01
5.760777e-01
5.766041e-01
5.769587e-01
5.770839e-01
5.769572e-01
5.766008e-01
5.760707e-01
5.754743e-01
5.748535e-01
5.741925e-01
5.735637e-01
0.000000e+00
1.000000e+00
5.743371e-01
5.756084e-01
5.770907e-01
5.785999e-01
5.800312e-01
5.812344e-01
5.820454e-01
5.823326e-01
5.820450e-01
5.812334e-01
5.800334e-01
5.786398e-01
5.771625e-01
5.756530e-01
5.742466e-01
0.000000e+00
1.000000e+00
5.748475e-01
5.766164e-01
5.786768e-01
5.807716e-01
5.827583e-01
5.844281e-01
5.855539e-01
5.859531e-01
5.855550e-01
5.844330e-01
5.827816e-01
5.808326e-01
5.787473e-01
5.766449e-01
5.745895e-01
0.000000e+00
1.000000e+00
5.751145e-01
5.771413e-01
5.795050e-01
5.819057e-01
5.841824e-01
5.860961e-01
5.873865e-01
5.878445e-01
5.873892e-01
5.861070e-01
5.842212e-01
5.819690e-01
5.795718e-01
5.771861e-01
5.747465e-01
0.000000e+00
1.000000e+00
5.751462e-01
5.771915e-01
5.795861e-01
5.820169e-01
5.843221e-01
5.862597e-01
5.875662e-01
5.880300e-01
5.875690e-01
5.862701e-01
5.843636e-01
5.820803e-01
5.796528e-01
5.772461e-01
5.748178e-01
0.000000e+00
1.000000e+00
5.749544e-01
5.768059e-01
5.789796e-01
5.811863e-01
5.832791e-01
5.850381e-01
5.862240e-01
5.866447e-01
5.862255e-01
5.850425e-01
5.833102e-01
5.812471e-01
5.790470e-01
5.768634e-01
5.746381e-01
0.000000e+00
1.000000e+00
5.745761e-01
5.760442e-01
5.777805e-01
5.795444e-01
5.812172e-01
5.826233e-01
5.835712e-01
5.839073e-01
5.835715e-01
5.826223e-01
5.812278e-01
5.795938e-01
5.778514e-01
5.761066e-01
5.742826e-01
0.000000e+00
1.000000e+00
5.740425e-01
5.749791e-01
5.761054e-01
5.772507e-01
5.783371e-01
5.792503e-01
5.798657e-01
5.800834e-01
5.798646e-01
5.792472e-01
5.783345e-01
5.772809e-01
5.761770e-01
5.750460e-01
5.737772e-01
0.000000e+00
1.000000e+00
5.733902e-01
5.736883e-01
5.740774e-01
5.744738e-01
5.748499e-01
5.751661e-01
5.753792e-01
5.754539e-01
5.753768e-01
5.751615e-01
5.748463e-01
5.745086e-01
5.741424e-01
5.737509e-01
5.731610e-01
0.000000e+00
1.000000e+00
5.645693e-01
5.553950e-01
5.454483e-01
5.352789e-01
5.256424e-01
5.175533e-01
5.121144e-01
5.102056e-01
5.121636e-01
5.176448e-01
5.257566e-01
5.354338e-01
5.455679e-01
5.555096e-01
5.645224e-01
0.000000e+00
1.000000e+00
5.653193e-01
5.570668e-01
5.480623e-01
5.388572e-01
5.301349e-01
5.228143e-01
5.178935e-01
5.161684e-01
5.179426e-01
5.229046e-01
5.302468e-01
5.390143e-01
5.481726e-01
5.571706e-01
5.653167e-01
0.000000e+00
1.000000e+00
5.662591e-01
5.590309e-01
5.511296e-01
5.430547e-01
5.354021e-01
5.289785e-01
5.246601e-01
5.231458e-01
5.247022e-01
5.290549e-01
5.354977e-01
5.431982e-01
5.512288e-01
5.591237e-01
5.662279e-01
0.000000e+00
1.000000e+00
5.673111e-01
5.612297e-01
5.545677e-01
5.477617e-01
5.413109e-01
5.358954e-01
5.322543e-01
5.309772e-01
5.322892e-01
5.359580e-01
5.413916e-01
5.478893e-01
5.546583e-01
5.613261e-01
5.673266e-01
0.000000e+00
1.000000e+00
5.684485e-01
5.635953e-01
5.582678e-01
5.528274e-01
5.476705e-01
5.433405e-01
5.404286e-01
5.394067e-01
5.404551e-01
5.433879e-01
5.477341e-01
5.529406e-01
5.583519e-01
5.637180e-01
5.682854e-01
0.000000e+00
1.000000e+00
5.696260e-01
5.660304e-01
5.620778e-01
5.580438e-01
5.542197e-01
5.510082e-01
5.488478e-01
5.480884e-01
5.488649e-01
5.510398e-01
5.542659e-01
5.581421e-01
5.621521e-01
5.661206e-01
5.693990e-01
0.000000e+00
1.000000e+00
5.707901e-01
5.684179e-01
5.658154e-01
5.631612e-01
5.606449e-01
5.585314e-01
5.571089e-01
5.566076e-01
5.571167e-01
5.585468e-01
5.606725e-01
5.632445e-01
5.658820e-01
5.684540e-01
5.707487e-01
0.000000e+00
1.000000e+00
5.718762e-01
5.706317e-01
5.692837e-01
5.679101e-01
5.666077e-01
5.655137e-01
5.647769e-01
5.645163e-01
5.647779e-01
5.655159e-01
5.666154e-01
5.679748e-01
5.693421e-01
5.706615e-01
5.718414e-01
0.000000e+00
1.000000e+00
5.728215e-01
5.725510e-01
5.722930e-01
5.720305e-01
5.717817e-01
5.715727e-01
5.714317e-01
5.713814e-01
5.714302e-01
5.715694e-01
5.717773e-01
5.720639e-01
5.723423e-01
5.725771e-01
5.727138e-01
0.000000e+00
1.000000e+00
5.735809e-01
5.740741e-01
5.746833e-01
5.753035e-01
5.758917e-01
5.763861e-01
5.767193e-01
5.768370e-01
5.767181e-01
5.763834e-01
5.758865e-01
5.753203e-01
5.747346e-01
5.741127e-01
5.735510e-01
0.000000e+00
1.000000e+00
5.741141e-01
5.751306e-01
5.763438e-01
5.775772e-01
5.787468e-01
5.797299e-01
5.803925e-01
5.806272e-01
5.803918e-01
5.797281e-01
5.787493e-01
5.776088e-01
5.763997e-01
5.751610e-01
5.740117e-01
0.000000e+00
1.000000e+00
5.743974e-01
5.756883e-01
5.772228e-01
5.787808e-01
5.802583e-01
5.815001e-01
5.823373e-01
5.826342e-01
5.823376e-01
5.815009e-01
5.802724e-01
5.788229e-01
5.772802e-01
5.757147e-01
5.740975e-01
0.000000e+00
1.000000e+00
5.744371e-01
5.757549e-01
5.773303e-01
5.789280e-01
5.804432e-01
5.817167e-01
5.825753e-01
5.828798e-01
5.825759e-01
5.817179e-01
5.804605e-01
5.789721e-01
5.773875e-01
5.757975e-01
5.741275e-01
0.000000e+00
1.000000e+00
5.742473e-01
5.753725e-01
5.767296e-01
5.781055e-01
5.794103e-01
5.805070e-01
5.812463e-01
5.815084e-01
5.812464e-01
5.805062e-01
5.794188e-01
5.781435e-01
5.767819e-01
5.754233e-01
5.739690e-01
0.000000e+00
1.000000e+00
5.738612e-01
5.746054e-01
5.755229e-01
5.764530e-01
5.773352e-01
5.780767e-01
5.785766e-01
5.787536e-01
5.785761e-01
5.780748e-01
5.773343e-01
5.764780e-01
5.755748e-01
5.746625e-01
5.736019e-01
0.000000e+00
1.000000e+00
5.733219e-01
5.735309e-01
5.738342e-01
5.741408e-01
5.744316e-01
5.746761e-01
5.748408e-01
5.748988e-01
5.748393e-01
5.746731e-01
5.744301e-01
5.741685e-01
5.738883e-01
5.735934e-01
5.730917e-01
0.000000e+00
1.000000e+00
5.726721e-01
5.722311e-01
5.717941e-01
5.713473e-01
5.709238e-01
5.705681e-01
5.703286e-01
5.702432e-01
5.703268e-01
5.705653e-01
5.709282e-01
5.713963e-01
5.718471e-01
5.722890e-01
5.724588e-01
0.000000e+00
1.000000e+00
5.640303e-01
5.542326e-01
5.436289e-01
5.327880e-01
5.225155e-01
5.138928e-01
5.080952e-01
5.060609e-01
5.081486e-01
5.139918e-01
5.226408e-01
5.329483e-01
5.437562e-01
5.543298e-01
5.639498e-01
0.000000e+00
1.000000e+00
5.647179e-01
5.557767e-01
5.460457e-01
5.360966e-01
5.266700e-01
5.187585e-01
5.134405e-01
5.115763e-01
5.134940e-01
5.188562e-01
5.267923e-01
5.362593e-01
5.461646e-01
5.558737e-01
5.646918e-01
0.000000e+00
1.000000e+00
5.656075e-01
5.576412e-01
5.489582e-01
5.400817e-01
5.316703e-01
5.246101e-01
5.198641e-01
5.182000e-01
5.199108e-01
5.246942e-01
5.317746e-01
5.402358e-01
5.490634e-01
5.577351e-01
5.655661e-01
0.000000e+00
1.000000e+00
5.666204e-01
5.597725e-01
5.522907e-01
5.446440e-01
5.373971e-01
5.313137e-01
5.272239e-01
5.257895e-01
5.272634e-01
5.313842e-01
5.374854e-01
5.447815e-01
5.523845e-01
5.598930e-01
5.666100e-01
0.000000e+00
1.000000e+00
5.677371e-01
5.621049e-01
5.559379e-01
5.496372e-01
5.436652e-01
5.386514e-01
5.352798e-01
5.340968e-01
5.353109e-01
5.387065e-01
5.437353e-01
5.497578e-01
5.560252e-01
5.622862e-01
5.675153e-01
0.000000e+00
1.000000e+00
5.689098e-01
5.645392e-01
5.597455e-01
5.548502e-01
5.502098e-01
5.463131e-01
5.436919e-01
5.427712e-01
5.437136e-01
5.463522e-01
5.502612e-01
5.549518e-01
5.598196e-01
5.646683e-01
5.685951e-01
0.000000e+00
1.000000e+00
5.700743e-01
5.669529e-01
5.635228e-01
5.600220e-01
5.567030e-01
5.539154e-01
5.520394e-01
5.513789e-01
5.520514e-01
5.539384e-01
5.567372e-01
5.601029e-01
5.635806e-01
5.669795e-01
5.700477e-01
0.000000e+00
1.000000e+00
5.711753e-01
5.692120e-01
5.670600e-01
5.648651e-01
5.627840e-01
5.610356e-01
5.598582e-01
5.594424e-01
5.598619e-01
5.610436e-01
5.628002e-01
5.649266e-01
5.671059e-01
5.692197e-01
5.712479e-01
0.000000e+00
1.000000e+00
5.721514e-01
5.711845e-01
5.701515e-01
5.690981e-01
5.680992e-01
5.672599e-01
5.666942e-01
5.664936e-01
5.666932e-01
5.672581e-01
5.680996e-01
5.691373e-01
5.701881e-01
5.711835e-01
5.721568e-01
0.000000e+00
1.000000e+00
5.729314e-01
5.727592e-01
5.726213e-01
5.724800e-01
5.723460e-01
5.722333e-01
5.721573e-01
5.721299e-01
5.721555e-01
5.722298e-01
5.723408e-01
5.724944e-01
5.726517e-01
5.727731e-01
5.729977e-01
0.000000e+00
1.000000e+00
5.734723e-01
5.738580e-01
5.743460e-01
5.748415e-01
5.753114e-01
5.757063e-01
5.759724e-01
5.760665e-01
5.759715e-01
5.757039e-01
5.753080e-01
5.748511e-01
5.743779e-01
5.738796e-01
5.734830e-01
0.000000e+00
1.000000e+00
5.737655e-01
5.744434e-01
5.752675e-01
5.761033e-01
5.768959e-01
5.775620e-01
5.780110e-01
5.781699e-01
5.780104e-01
5.775602e-01
5.768969e-01
5.761215e-01
5.753015e-01
5.744404e-01
5.734918e-01
0.000000e+00
1.000000e+00
5.738135e-01
5.745220e-01
5.753944e-01
5.762772e-01
5.771143e-01
5.778179e-01
5.782921e-01
5.784602e-01
5.782918e-01
5.778166e-01
5.771169e-01
5.762980e-01
5.754271e-01
5.745425e-01
5.734341e-01
0.000000e+00
1.000000e+00
5.736285e-01
5.741392e-01
5.747944e-01
5.754556e-01
5.760826e-01
5.766096e-01
5.769648e-01
5.770906e-01
5.769644e-01
5.766080e-01
5.760826e-01
5.754719e-01
5.748244e-01
5.741793e-01
5.733171e-01
0.000000e+00
1.000000e+00
5.732436e-01
5.733640e-01
5.735762e-01
5.737875e-01
5.739879e-01
5.741564e-01
5.742699e-01
5.743099e-01
5.742691e-01
5.741546e-01
5.739880e-01
5.738062e-01
5.736106e-01
5.734136e-01
5.729732e-01
0.000000e+00
1.000000e+00
5.727058e-01
5.722784e-01
5.718715e-01
5.714533e-01
5.710567e-01
5.707236e-01
5.704991e-01
5.704193e-01
5.704981e-01
5.707221e-01
5.710616e-01
5.714911e-01
5.719171e-01
5.723365e-01
5.724809e-01
0.000000e+00
1.000000e+00
5.720580e-01
5.709695e-01
5.698179e-01
5.686415e-01
5.675261e-01
5.665891e-01
5.659580e-01
5.657345e-01
5.659583e-01
5.665911e-01
5.675415e-01
5.686936e-01
5.698675e-01
5.710235e-01
5.718546e-01
0.000000e+00
1.000000e+00
5.636743e-01
5.534514e-01
5.424089e-01
5.311185e-01
5.204206e-01
5.114412e-01
5.054043e-01
5.032868e-01
5.054620e-01
5.115477e-01
5.205584e-01
5.312792e-01
5.425463e-01
5.535373e-01
5.635785e-01
0.000000e+00
1.000000e+00
5.643119e-01
5.548737e-01
5.446361e-01
5.341673e-01
5.242488e-01
5.159246e-01
5.103293e-01
5.083683e-01
5.103869e-01
5.160293e-01
5.243851e-01
5.343282e-01
5.447611e-01
5.549682e-01
5.642504e-01
0.000000e+00
1.000000e+00
5.651473e-01
5.566386e-01
5.473934e-01
5.379397e-01
5.289820e-01
5.214639e-01
5.164102e-01
5.146385e-01
5.164610e-01
5.215555e-01
5.291007e-01
5.380976e-01
5.475022e-01
5.567381e-01
5.651076e-01
0.000000e+00
1.000000e+00
5.661214e-01
5.586985e-01
5.506149e-01
5.423498e-01
5.345175e-01
5.279433e-01
5.235237e-01
5.219740e-01
5.235674e-01
5.280212e-01
5.346191e-01
5.424924e-01
5.507111e-01
5.588574e-01
5.660566e-01
0.000000e+00
1.000000e+00
5.672069e-01
5.609906e-01
5.541990e-01
5.472567e-01
5.406771e-01
5.351533e-01
5.314394e-01
5.301365e-01
5.314745e-01
5.352158e-01
5.407589e-01
5.473820e-01
5.542898e-01
5.612299e-01
5.667281e-01
0.000000e+00
1.000000e+00
5.683691e-01
5.634160e-01
5.579911e-01
5.524482e-01
5.471941e-01
5.427824e-01
5.398153e-01
5.387734e-01
5.398408e-01
5.428282e-01
5.472543e-01
5.525535e-01
5.580696e-01
5.635687e-01
5.678228e-01
0.000000e+00
1.000000e+00
5.695442e-01
5.658466e-01
5.617931e-01
5.576535e-01
5.537290e-01
5.504330e-01
5.482152e-01
5.474350e-01
5.482308e-01
5.504621e-01
5.537686e-01
5.577352e-01
5.618547e-01
5.658738e-01
5.694141e-01
0.000000e+00
1.000000e+00
5.706575e-01
5.681400e-01
5.653827e-01
5.625684e-01
5.598999e-01
5.576581e-01
5.561488e-01
5.556162e-01
5.561552e-01
5.576714e-01
5.599209e-01
5.626277e-01
5.654279e-01
5.681416e-01
5.707247e-01
0.000000e+00
1.000000e+00
5.716457e-01
5.701553e-01
5.685396e-01
5.668908e-01
5.653273e-01
5.640134e-01
5.631281e-01
5.628146e-01
5.631282e-01
5.640146e-01
5.653319e-01
5.669265e-01
5.685688e-01
5.701462e-01
5.718325e-01
0.000000e+00
1.000000e+00
5.724388e-01
5.717710e-01
5.710730e-01
5.703598e-01
5.696835e-01
5.691149e-01
5.687316e-01
5.685952e-01
5.687296e-01
5.691113e-01
5.696792e-01
5.703743e-01
5.710899e-01
5.717847e-01
5.727578e-01
0.000000e+00
1.000000e+00
5.729979e-01
5.729017e-01
5.728474e-01
5.727895e-01
5.727347e-01
5.726885e-01
5.726572e-01
5.726458e-01
5.726561e-01
5.726860e-01
5.727307e-01
5.727912e-01
5.728616e-01
5.729309e-01
5.733097e-01
0.000000e+00
1.000000e+00
5.732975e-01
5.735053e-01
5.737979e-01
5.740910e-01
5.743689e-01
5.746024e-01
5.747598e-01
5.748155e-01
5.747596e-01
5.746016e-01
5.743675e-01
5.740957e-01
5.738129e-01
5.734724e-01
5.732766e-01
0.000000e+00
1.000000e+00
5.733470e-01
5.735878e-01
5.739320e-01
5.742746e-01
5.745996e-01
5.748727e-01
5.750568e-01
5.751220e-01
5.750569e-01
5.748727e-01
5.746001e-01
5.742815e-01
5.739440e-01
5.735585e-01
5.730296e-01
0.000000e+00
1.000000e+00
5.731624e-01
5.731982e-01
5.733213e-01
5.734386e-01
5.735498e-01
5.736432e-01
5.737062e-01
5.737284e-01
5.737059e-01
5.736429e-01
5.735513e-01
5.734470e-01
5.733344e-01
5.731983e-01
5.728168e-01
0.000000e+00
1.000000e+00
5.727754e-01
5.724099e-01
5.720818e-01
5.717412e-01
5.714182e-01
5.711469e-01
5.709640e-01
5.708992e-01
5.709636e-01
5.711465e-01
5.714233e-01
5.717606e-01
5.721058e-01
5.724287e-01
5.724829e-01
0.000000e+00
1.000000e+00
5.722345e-01
5.713082e-01
5.703520e-01
5.693727e-01
5.684441e-01
5.676638e-01
5.671382e-01
5.669522e-01
5.671385e-01
5.676654e-01
5.684560e-01
5.694080e-01
5.703907e-01
5.713419e-01
5.719853e-01
0.000000e+00
1.000000e+00
5.715789e-01
5.699848e-01
5.682763e-01
5.665306e-01
5.648754e-01
5.634850e-01
5.625485e-01
5.622176e-01
5.625510e-01
5.634920e-01
5.648987e-01
5.665759e-01
5.683174e-01
5.700248e-01
5.713669e-01
0.000000e+00
1.000000e+00
5.635383e-01
5.531221e-01
5.418945e-01
5.304147e-01
5.195381e-01
5.104093e-01
5.042723e-01
5.021205e-01
5.043335e-01
5.105231e-01
5.196807e-01
5.305905e-01
5.420309e-01
5.532138e-01
5.634045e-01
0.000000e+00
1.000000e+00
5.641314e-01
5.544380e-01
5.439549e-01
5.332349e-01
5.230788e-01
5.145555e-01
5.088265e-01
5.068191e-01
5.088868e-01
5.146662e-01
5.232250e-01
5.333951e-01
5.440773e-01
5.545342e-01
5.640239e-01
0.000000e+00
1.000000e+00
5.649221e-01
5.561127e-01
5.465721e-01
5.368157e-01
5.275717e-01
5.198137e-01
5.145991e-01
5.127715e-01
5.146529e-01
5.199116e-01
5.277052e-01
5.369683e-01
5.466823e-01
5.562235e-01
5.648768e-01
0.000000e+00
1.000000e+00
5.658637e-01
5.581059e-01
5.496907e-01
5.410848e-01
5.329300e-01
5.260854e-01
5.214846e-01
5.198718e-01
5.215313e-01
5.261695e-01
5.330470e-01
5.412247e-01
5.497890e-01
5.583012e-01
5.656618e-01
0.000000e+00
1.000000e+00
5.669174e-01
5.603569e-01
5.532126e-01
5.459066e-01
5.389826e-01
5.331702e-01
5.292625e-01
5.278921e-01
5.293006e-01
5.332384e-01
5.390791e-01
5.460291e-01
5.533052e-01
5.606240e-01
5.661960e-01
0.000000e+00
1.000000e+00
5.680600e-01
5.627694e-01
5.569833e-01
5.510687e-01
5.454625e-01
5.407555e-01
5.375900e-01
5.364790e-01
5.376184e-01
5.408065e-01
5.455354e-01
5.511702e-01
5.570615e-01
5.629265e-01
5.674929e-01
0.000000e+00
1.000000e+00
5.692433e-01
5.652102e-01
5.607989e-01
5.562923e-01
5.520201e-01
5.484323e-01
5.460185e-01
5.451698e-01
5.460365e-01
5.484659e-01
5.520689e-01
5.563706e-01
5.608576e-01
5.652411e-01
5.690965e-01
0.000000e+00
1.000000e+00
5.703699e-01
5.675279e-01
5.644261e-01
5.612584e-01
5.582549e-01
5.557320e-01
5.540335e-01
5.534346e-01
5.540416e-01
5.557487e-01
5.582820e-01
5.613136e-01
5.644664e-01
5.675268e-01
5.703684e-01
0.000000e+00
1.000000e+00
5.713657e-01
5.695742e-01
5.676304e-01
5.656458e-01
5.637639e-01
5.621825e-01
5.611171e-01
5.607400e-01
5.611178e-01
5.621853e-01
5.637722e-01
5.656754e-01
5.676545e-01
5.695762e-01
5.716086e-01
0.000000e+00
1.000000e+00
5.721723e-01
5.712186e-01
5.702080e-01
5.691752e-01
5.681957e-01
5.673724e-01
5.668173e-01
5.666200e-01
5.668150e-01
5.673685e-01
5.681924e-01
5.691837e-01
5.702206e-01
5.712704e-01
5.726791e-01
0.000000e+00
1.000000e+00
5.727438e-01
5.723678e-01
5.720123e-01
5.716459e-01
5.712984e-01
5.710062e-01
5.708091e-01
5.707388e-01
5.708074e-01
5.710027e-01
5.712934e-01
5.716436e-01
5.720171e-01
5.724703e-01
5.735062e-01
0.000000e+00
1.000000e+00
5.730556e-01
5.729777e-01
5.729725e-01
5.729607e-01
5.729496e-01
5.729401e-01
5.729337e-01
5.729313e-01
5.729332e-01
5.729388e-01
5.729470e-01
5.729601e-01
5.729749e-01
5.730156e-01
5.737710e-01
0.000000e+00
1.000000e+00
5.730986e-01
5.730522e-01
5.730957e-01
5.731294e-01
5.731614e-01
5.731883e-01
5.732065e-01
5.732130e-01
5.732067e-01
5.731886e-01
5.731610e-01
5.731298e-01
5.730952e-01
5.730111e-01
5.734647e-01
0.000000e+00
1.000000e+00
5.728989e-01
5.726446e-01
5.724565e-01
5.722543e-01
5.720626e-01
5.719015e-01
5.717930e-01
5.717545e-01
5.717930e-01
5.719021e-01
5.720649e-01
5.722580e-01
5.724616e-01
5.725982e-01
5.730346e-01
0.000000e+00
1.000000e+00
5.724938e-01
5.718329e-01
5.711786e-01
5.705044e-01
5.698652e-01
5.693280e-01
5.689661e-01
5.688379e-01
5.689661e-01
5.693289e-01
5.698725e-01
5.705186e-01
5.711956e-01
5.717997e-01
5.725374e-01
0.000000e+00
1.000000e+00
5.719400e-01
5.707046e-01
5.694072e-01
5.680790e-01
5.668196e-01
5.657615e-01
5.650488e-01
5.647968e-01
5.650501e-01
5.657656e-01
5.668350e-01
5.681054e-01
5.694374e-01
5.706855e-01
5.718794e-01
0.000000e+00
1.000000e+00
5.712777e-01
5.693562e-01
5.672929e-01
5.651840e-01
5.631846e-01
5.615049e-01
5.603738e-01
5.599745e-01
5.603779e-01
5.615155e-01
5.632112e-01
5.652216e-01
5.673278e-01
5.693599e-01
5.710780e-01
0.000000e+00
1.000000e+00
5.636158e-01
5.532908e-01
5.421591e-01
5.307770e-01
5.199939e-01
5.109441e-01
5.048609e-01
5.027289e-01
5.049243e-01
5.110642e-01
5.201349e-01
5.309723e-01
5.422821e-01
5.533980e-01
5.634303e-01
0.000000e+00
1.000000e+00
5.641862e-01
5.545263e-01
5.440919e-01
5.334219e-01
5.233135e-01
5.148305e-01
5.091290e-01
5.071319e-01
5.091907e-01
5.149453e-01
5.234622e-01
5.335887e-01
5.442054e-01
5.546268e-01
5.640293e-01
0.000000e+00
1.000000e+00
5.649415e-01
5.561299e-01
5.465995e-01
5.368533e-01
5.276193e-01
5.198700e-01
5.146617e-01
5.128370e-01
5.147173e-01
5.199721e-01
5.277608e-01
5.370025e-01
5.467114e-01
5.562561e-01
5.648815e-01
0.000000e+00
1.000000e+00
5.658552e-01
5.580710e-01
5.496372e-01
5.410117e-01
5.328385e-01
5.259788e-01
5.213682e-01
5.197527e-01
5.214169e-01
5.260669e-01
5.329658e-01
5.411450e-01
5.497420e-01
5.582937e-01
5.654760e-01
0.000000e+00
1.000000e+00
5.668957e-01
5.602907e-01
5.531097e-01
5.457658e-01
5.388060e-01
5.329638e-01
5.290365e-01
5.276598e-01
5.290764e-01
5.330358e-01
5.389124e-01
5.458851e-01
5.532101e-01
5.605688e-01
5.660360e-01
0.000000e+00
1.000000e+00
5.680335e-01
5.626912e-01
5.568620e-01
5.509027e-01
5.452542e-01
5.405119e-01
5.373231e-01
5.362043e-01
5.373530e-01
5.405662e-01
5.453354e-01
5.510054e-01
5.569478e-01
5.628570e-01
5.673108e-01
0.000000e+00
1.000000e+00
5.692158e-01
5.651366e-01
5.606852e-01
5.561367e-01
5.518249e-01
5.482039e-01
5.457680e-01
5.449119e-01
5.457873e-01
5.482401e-01
5.518802e-01
5.562181e-01
5.607496e-01
5.651683e-01
5.690365e-01
0.000000e+00
1.000000e+00
5.703464e-01
5.674700e-01
5.643366e-01
5.611360e-01
5.581014e-01
5.555523e-01
5.538364e-01
5.532315e-01
5.538451e-01
5.555707e-01
5.581335e-01
5.611927e-01
5.643786e-01
5.674650e-01
5.704844e-01
0.000000e+00
1.000000e+00
5.713498e-01
5.695356e-01
5.675700e-01
5.655632e-01
5.636603e-01
5.620612e-01
5.609839e-01
5.606025e-01
5.609845e-01
5.620643e-01
5.636719e-01
5.655932e-01
5.675945e-01
5.695433e-01
5.715409e-01
0.000000e+00
1.000000e+00
5.721733e-01
5.711947e-01
5.701699e-01
5.691229e-01
5.681301e-01
5.672955e-01
5.667327e-01
5.665324e-01
5.667298e-01
5.672906e-01
5.681277e-01
5.691314e-01
5.701813e-01
5.712314e-01
5.721612e-01
0.000000e+00
1.000000e+00
5.727475e-01
5.723474e-01
5.719808e-01
5.716025e-01
5.712437e-01
5.709420e-01
5.707383e-01
5.706653e-01
5.707355e-01
5.709368e-01
5.712377e-01
5.715993e-01
5.719821e-01
5.724173e-01
5.728081e-01
0.000000e+00
1.000000e+00
5.730448e-01
5.729478e-01
5.729269e-01
5.728981e-01
5.728707e-01
5.728476e-01
5.728318e-01
5.728258e-01
5.728304e-01
5.728449e-01
5.728671e-01
5.728958e-01
5.729244e-01
5.730527e-01
5.737042e-01
0.000000e+00
1.000000e+00
5.730817e-01
5.730002e-01
5.730155e-01
5.730196e-01
5.730234e-01
5.730266e-01
5.730286e-01
5.730292e-01
5.730282e-01
5.730254e-01
5.730214e-01
5.730169e-01
5.730087e-01
5.730566e-01
5.738367e-01
0.000000e+00
1.000000e+00
5.728560e-01
5.725589e-01
5.723253e-01
5.720746e-01
5.718368e-01
5.716370e-01
5.715024e-01
5.714547e-01
5.715023e-01
5.716368e-01
5.718361e-01
5.720725e-01
5.723230e-01
5.725501e-01
5.734832e-01
0.000000e+00
1.000000e+00
5.724338e-01
5.717091e-01
5.709860e-01
5.702406e-01
5.695338e-01
5.689399e-01
5.685398e-01
5.683981e-01
5.685398e-01
5.689409e-01
5.695386e-01
5.702467e-01
5.709964e-01
5.716734e-01
5.729077e-01
0.000000e+00
1.000000e+00
5.718677e-01
5.705397e-01
5.691499e-01
5.677268e-01
5.663775e-01
5.652438e-01
5.644802e-01
5.642103e-01
5.644816e-01
5.652486e-01
5.663916e-01
5.677446e-01
5.691736e-01
5.704910e-01
5.722624e-01
0.000000e+00
1.000000e+00
5.711864e-01
5.691526e-01
5.669740e-01
5.647475e-01
5.626364e-01
5.608628e-01
5.596687e-01
5.592472e-01
5.596732e-01
5.608746e-01
5.626622e-01
5.647766e-01
5.670036e-01
5.690967e-01
5.712946e-01
0.000000e+00
1.000000e+00
5.639100e-01
5.539764e-01
5.432328e-01
5.322462e-01
5.218384e-01
5.131043e-01
5.072343e-01
5.051784e-01
5.072989e-01
5.132280e-01
5.219784e-01
5.324487e-01
5.433495e-01
5.541007e-01
5.636699e-01
0.000000e+00
1.000000e+00
5.644762e-01
5.551641e-01
5.450887e-01
5.347854e-01
5.250244e-01
5.168333e-01
5.113286e-01
5.094013e-01
5.113904e-01
5.169493e-01
5.251709e-01
5.349561e-01
5.451956e-01
5.552664e-01
5.643361e-01
0.000000e+00
1.000000e+00
5.652089e-01
5.567245e-01
5.475297e-01
5.381265e-01
5.292175e-01
5.217413e-01
5.167170e-01
5.149578e-01
5.167731e-01
5.218448e-01
5.293600e-01
5.382770e-01
5.476405e-01
5.568595e-01
5.651595e-01
0.000000e+00
1.000000e+00
5.661094e-01
5.586362e-01
5.505202e-01
5.422203e-01
5.343556e-01
5.277551e-01
5.233192e-01
5.217657e-01
5.233683e-01
5.278446e-01
5.344854e-01
5.423545e-01
5.506341e-01
5.588683e-01
5.656723e-01
0.000000e+00
1.000000e+00
5.671534e-01
5.608396e-01
5.539659e-01
5.469375e-01
5.402769e-01
5.346859e-01
5.309280e-01
5.296114e-01
5.309683e-01
5.347591e-01
5.403866e-01
5.470604e-01
5.540762e-01
5.611059e-01
5.662990e-01
0.000000e+00
1.000000e+00
5.682990e-01
5.632346e-01
5.577105e-01
5.520640e-01
5.467121e-01
5.422190e-01
5.391979e-01
5.381386e-01
5.392279e-01
5.422739e-01
5.467971e-01
5.521730e-01
5.578021e-01
5.633898e-01
5.676384e-01
0.000000e+00
1.000000e+00
5.694814e-01
5.656833e-01
5.615405e-01
5.573077e-01
5.532951e-01
5.499256e-01
5.476590e-01
5.468625e-01
5.476776e-01
5.499617e-01
5.533545e-01
5.573967e-01
5.616108e-01
5.657253e-01
5.693343e-01
0.000000e+00
1.000000e+00
5.706125e-01
5.680254e-01
5.652058e-01
5.623262e-01
5.595960e-01
5.573026e-01
5.557589e-01
5.552145e-01
5.557663e-01
5.573195e-01
5.596312e-01
5.623898e-01
5.652598e-01
5.680270e-01
5.707799e-01
0.000000e+00
1.000000e+00
5.716218e-01
5.700985e-01
5.684506e-01
5.667690e-01
5.651745e-01
5.638346e-01
5.629317e-01
5.626117e-01
5.629311e-01
5.638355e-01
5.651870e-01
5.668052e-01
5.684911e-01
5.701115e-01
5.720270e-01
0.000000e+00
1.000000e+00
5.724509e-01
5.717571e-01
5.710495e-01
5.703276e-01
5.696429e-01
5.690674e-01
5.686790e-01
5.685404e-01
5.686755e-01
5.690614e-01
5.696406e-01
5.703407e-01
5.710754e-01
5.717961e-01
5.725222e-01
0.000000e+00
1.000000e+00
5.730274e-01
5.728973e-01
5.728407e-01
5.727803e-01
5.727229e-01
5.726745e-01
5.726416e-01
5.726291e-01
5.726391e-01
5.726702e-01
5.727193e-01
5.727829e-01
5.728562e-01
5.728947e-01
5.719890e-01
0.000000e+00
1.000000e+00
5.733168e-01
5.734709e-01
5.737471e-01
5.740212e-01
5.742811e-01
5.744995e-01
5.746466e-01
5.746983e-01
5.746455e-01
5.744984e-01
5.742818e-01
5.740245e-01
5.737559e-01
5.734755e-01
5.726471e-01
0.000000e+00
1.000000e+00
5.733254e-01
5.734838e-01
5.737765e-01
5.740612e-01
5.743312e-01
5.745580e-01
5.747107e-01
5.747643e-01
5.747096e-01
5.745569e-01
5.743313e-01
5.740609e-01
5.737778e-01
5.735682e-01
5.735218e-01
0.000000e+00
1.000000e+00
5.730663e-01
5.729916e-01
5.730106e-01
5.730126e-01
5.730145e-01
5.730160e-01
5.730168e-01
5.730166e-01
5.730152e-01
5.730134e-01
5.730118e-01
5.730081e-01
5.730096e-01
5.730808e-01
5.737353e-01
0.000000e+00
1.000000e+00
5.726289e-01
5.720889e-01
5.715833e-01
5.710586e-01
5.705613e-01
5.701434e-01
5.698619e-01
5.697622e-01
5.698616e-01
5.701436e-01
5.705623e-01
5.710593e-01
5.715920e-01
5.721318e-01
5.733496e-01
0.000000e+00
1.000000e+00
5.720304e-01
5.708631e-01
5.696569e-01
5.684210e-01
5.672492e-01
5.662648e-01
5.656018e-01
5.653675e-01
5.656030e-01
5.662692e-01
5.672599e-01
5.684328e-01
5.696797e-01
5.708731e-01
5.728391e-01
0.000000e+00
1.000000e+00
5.713094e-01
5.694200e-01
5.673929e-01
5.653209e-01
5.633564e-01
5.617060e-01
5.605948e-01
5.602025e-01
5.605987e-01
5.617168e-01
5.633791e-01
5.653429e-01
5.674217e-01
5.693672e-01
5.721168e-01
0.000000e+00
1.000000e+00
5.644377e-01
5.551652e-01
5.450918e-01
5.347895e-01
5.250299e-01
5.168406e-01
5.113378e-01
5.094119e-01
5.114018e-01
5.169634e-01
5.251678e-01
5.349863e-01
5.452038e-01
5.552982e-01
5.641502e-01
0.000000e+00
1.000000e+00
5.650113e-01
5.563406e-01
5.469267e-01
5.373005e-01
5.281803e-01
5.205273e-01
5.153847e-01
5.135851e-01
5.154449e-01
5.206404e-01
5.283216e-01
5.374657e-01
5.470313e-01
5.564394e-01
5.649417e-01
0.000000e+00
1.000000e+00
5.657451e-01
5.578905e-01
5.493511e-01
5.406196e-01
5.323465e-01
5.254041e-01
5.207392e-01
5.191067e-01
5.207939e-01
5.255055e-01
5.324855e-01
5.407682e-01
5.494629e-01
5.580276e-01
5.656962e-01
0.000000e+00
1.000000e+00
5.666525e-01
5.597975e-01
5.523342e-01
5.447034e-01
5.374724e-01
5.314036e-01
5.273257e-01
5.258984e-01
5.273732e-01
5.314909e-01
5.375996e-01
5.448388e-01
5.524518e-01
5.600220e-01
5.661800e-01
0.000000e+00
1.000000e+00
5.676995e-01
5.620009e-01
5.557806e-01
5.494220e-01
5.433957e-01
5.383372e-01
5.349374e-01
5.337471e-01
5.349759e-01
5.384079e-01
5.435045e-01
5.495489e-01
5.558955e-01
5.622453e-01
5.668888e-01
0.000000e+00
1.000000e+00
5.688479e-01
5.644002e-01
5.595325e-01
5.545586e-01
5.498441e-01
5.458860e-01
5.432248e-01
5.422920e-01
5.432526e-01
5.459381e-01
5.499302e-01
5.546741e-01
5.596331e-01
5.645608e-01
5.682990e-01
0.000000e+00
1.000000e+00
5.700355e-01
5.668550e-01
5.633723e-01
5.598158e-01
5.564443e-01
5.536131e-01
5.517086e-01
5.510392e-01
5.517241e-01
5.536449e-01
5.565057e-01
5.599147e-01
5.634601e-01
5.669380e-01
5.697740e-01
0.000000e+00
1.000000e+00
5.711746e-01
5.692010e-01
5.670438e-01
5.648427e-01
5.627559e-01
5.610029e-01
5.598228e-01
5.594061e-01
5.598269e-01
5.610137e-01
5.627903e-01
5.649174e-01
5.671193e-01
5.692260e-01
5.712787e-01
0.000000e+00
1.000000e+00
5.721906e-01
5.712703e-01
5.702841e-01
5.692795e-01
5.683268e-01
5.675262e-01
5.669865e-01
5.667942e-01
5.669832e-01
5.675216e-01
5.683348e-01
5.693221e-01
5.703428e-01
5.712938e-01
5.726550e-01
0.000000e+00
1.000000e+00
5.730131e-01
5.729140e-01
5.728613e-01
5.728085e-01
5.727583e-01
5.727158e-01
5.726866e-01
5.726748e-01
5.726820e-01
5.727079e-01
5.727546e-01
5.728253e-01
5.729080e-01
5.729611e-01
5.730856e-01
0.000000e+00
1.000000e+00
5.735790e-01
5.740261e-01
5.746094e-01
5.752022e-01
5.757642e-01
5.762365e-01
5.765545e-01
5.766666e-01
5.765531e-01
5.762358e-01
5.757696e-01
5.752176e-01
5.746510e-01
5.740254e-01
5.728635e-01
0.000000e+00
1.000000e+00
5.738618e-01
5.745575e-01
5.754499e-01
5.763533e-01
5.772100e-01
5.779303e-01
5.784162e-01
5.785892e-01
5.784196e-01
5.779386e-01
5.772254e-01
5.763729e-01
5.754861e-01
5.744873e-01
5.726378e-01
0.000000e+00
1.000000e+00
5.738620e-01
5.745145e-01
5.753946e-01
5.762776e-01
5.771152e-01
5.778196e-01
5.782949e-01
5.784645e-01
5.782986e-01
5.778270e-01
5.771283e-01
5.762925e-01
5.754223e-01
5.744538e-01
5.723421e-01
0.000000e+00
1.000000e+00
5.735799e-01
5.739509e-01
5.745311e-01
5.750942e-01
5.756284e-01
5.760776e-01
5.763804e-01
5.764877e-01
5.763805e-01
5.760790e-01
5.756345e-01
5.750993e-01
5.745499e-01
5.739957e-01
5.726065e-01
0.000000e+00
1.000000e+00
5.730844e-01
5.729859e-01
5.729939e-01
5.729901e-01
5.729866e-01
5.729839e-01
5.729822e-01
5.729817e-01
5.729826e-01
5.729858e-01
5.729904e-01
5.729927e-01
5.730139e-01
5.730797e-01
5.730363e-01
0.000000e+00
1.000000e+00
5.724405e-01
5.716906e-01
5.709541e-01
5.701972e-01
5.694796e-01
5.688768e-01
5.684707e-01