<?xml version="1.0"?>
<VTKFile type="StructuredGrid" version="0.1">
  <StructuredGrid WholeExtent="0 16 0 16 0 16">
    <Piece Extent="0 16 0 16 0 16">
      <PointData Scalars="temperature" Vectors="velocity">
        <DataArray type="Float32" Name="temperature" format="ascii">
1.000000e+00
5.730116e-01
5.730244e-01
5.730381e-01
5.730522e-01
5.730656e-01
5.730768e-01
5.730844e-01
5.730870e-01
5.730844e-01
5.730768e-01
5.730656e-01
5.730522e-01
5.730381e-01
5.730244e-01
5.730116e-01
0.000000e+00
1.000000e+00
5.729099e-01
5.728099e-01
5.727025e-01
5.725927e-01
5.724885e-01
5.724010e-01
5.723420e-01
5.723211e-01
5.723420e-01
5.724010e-01
5.724885e-01
5.725927e-01
5.727025e-01
5.728099e-01
5.729099e-01
0.000000e+00
1.000000e+00
5.726928e-01
5.723520e-01
5.719858e-01
5.716114e-01
5.712563e-01
5.709579e-01
5.707568e-01
5.706856e-01
5.707568e-01
5.709579e-01
5.712563e-01
5.716114e-01
5.719858e-01
5.723520e-01
5.726928e-01
0.000000e+00
1.000000e+00
5.723519e-01
5.716329e-01
5.708604e-01
5.700704e-01
5.693212e-01
5.686917e-01
5.682675e-01
5.681173e-01
5.682675e-01
5.686917e-01
5.693212e-01
5.700704e-01
5.708604e-01
5.716329e-01
5.723519e-01
0.000000e+00
1.000000e+00
5.718857e-01
5.706496e-01
5.693217e-01
5.679635e-01
5.666756e-01
5.655934e-01
5.648641e-01
5.646058e-01
5.648641e-01
5.655934e-01
5.666756e-01
5.679635e-01
5.693217e-01
5.706496e-01
5.718857e-01
0.000000e+00
1.000000e+00
5.713020e-01
5.694183e-01
5.673946e-01
5.653249e-01
5.633623e-01
5.617131e-01
5.606017e-01
5.602081e-01
5.606017e-01
5.617131e-01
5.633623e-01
5.653249e-01
5.673946e-01
5.694183e-01
5.713020e-01
0.000000e+00
1.000000e+00
5.706181e-01
5.679758e-01
5.651371e-01
5.622339e-01
5.594809e-01
5.571675e-01
5.556086e-01
5.550565e-01
5.556086e-01
5.571675e-01
5.594809e-01
5.622339e-01
5.651371e-01
5.679758e-01
5.706181e-01
0.000000e+00
1.000000e+00
5.698615e-01
5.663798e-01
5.626394e-01
5.588139e-01
5.551864e-01
5.521381e-01
5.500840e-01
5.493565e-01
5.500840e-01
5.521381e-01
5.551864e-01
5.588139e-01
5.626394e-01
5.663798e-01
5.698615e-01
0.000000e+00
1.000000e+00
5.690673e-01
5.647045e-01
5.600175e-01
5.552240e-01
5.506785e-01
5.468588e-01
5.442849e-01
5.433733e-01
5.442849e-01
5.468588e-01
5.506785e-01
5.552240e-01
5.600175e-01
5.647045e-01
5.690673e-01
0.000000e+00
1.000000e+00
5.682753e-01
5.630340e-01
5.574031e-01
5.516442e-01
5.461833e-01
5.415944e-01
5.385021e-01
5.374070e-01
5.385021e-01
5.415944e-01
5.461833e-01
5.516442e-01
5.574031e-01
5.630340e-01
5.682753e-01
0.000000e+00
1.000000e+00
5.675258e-01
5.614530e-01
5.549289e-01
5.482565e-01
5.419293e-01
5.366124e-01
5.330297e-01
5.317608e-01
5.330297e-01
5.366124e-01
5.419293e-01
5.482565e-01
5.549289e-01
5.614530e-01
5.675258e-01
0.000000e+00
1.000000e+00
5.668552e-01
5.600385e-01
5.527152e-01
5.452254e-01
5.381233e-01
5.321551e-01
5.281334e-01
5.267091e-01
5.281334e-01
5.321551e-01
5.381233e-01
5.452254e-01
5.527152e-01
5.600385e-01
5.668552e-01
0.000000e+00
1.000000e+00
5.662926e-01
5.588518e-01
5.508579e-01
5.426824e-01
5.349299e-01
5.284152e-01
5.240253e-01
5.224706e-01
5.240253e-01
5.284152e-01
5.349299e-01
5.426824e-01
5.508579e-01
5.588518e-01
5.662926e-01
0.000000e+00
1.000000e+00
5.658573e-01
5.579337e-01
5.494212e-01
5.407152e-01
5.324597e-01
5.255223e-01
5.208476e-01
5.191919e-01
5.208476e-01
5.255223e-01
5.324597e-01
5.407152e-01
5.494212e-01
5.579337e-01
5.658573e-01
0.000000e+00
1.000000e+00
5.655588e-01
5.573040e-01
5.484357e-01
5.393658e-01
5.307653e-01
5.235379e-01
5.186678e-01
5.169430e-01
5.186678e-01
5.235379e-01
5.307653e-01
5.393658e-01
5.484357e-01
5.573040e-01
5.655588e-01
0.000000e+00
1.000000e+00
5.653969e-01
5.569624e-01
5.479011e-01
5.386338e-01
5.298461e-01
5.224614e-01
5.174853e-01
5.157230e-01
5.174853e-01
5.224614e-01
5.298461e-01
5.386338e-01
5.479011e-01
5.569624e-01
5.653969e-01
0.000000e+00
1.000000e+00
5.653638e-01
5.568926e-01
5.477918e-01
5.384841e-01
5.296582e-01
5.222414e-01
5.172436e-01
5.154736e-01
5.172436e-01
5.222414e-01
5.296582e-01
5.384841e-01
5.477918e-01
5.568926e-01
5.653638e-01
0.000000e+00
1.000000e+00
5.731129e-01
5.732382e-01
5.733728e-01
5.735105e-01
5.736410e-01
5.737507e-01
5.738246e-01
5.738508e-01
5.738246e-01
5.737507e-01
5.736410e-01
5.735105e-01
5.733728e-01
5.732382e-01
5.731129e-01
0.000000e+00
1.000000e+00
5.729029e-01
5.727951e-01
5.726794e-01
5.725610e-01
5.724487e-01
5.723544e-01
5.722908e-01
5.722683e-01
5.722908e-01
5.723544e-01
5.724487e-01
5.725610e-01
5.726794e-01
5.727951e-01
5.729029e-01
0.000000e+00
1.000000e+00
5.725642e-01
5.720808e-01
5.715614e-01
5.710303e-01
5.705266e-01
5.701033e-01
5.698181e-01
5.697171e-01
5.698181e-01
5.701033e-01
5.705266e-01
5.710303e-01
5.715614e-01
5.720808e-01
5.725642e-01
0.000000e+00
1.000000e+00
5.720904e-01
5.710812e-01
5.699971e-01
5.688883e-01
5.678369e-01
5.669534e-01
5.663581e-01
5.661472e-01
5.663581e-01
5.669534e-01
5.678369e-01
5.688883e-01
5.699971e-01
5.710812e-01
5.720904e-01
0.000000e+00
1.000000e+00
5.714832e-01
5.698005e-01
5.679928e-01
5.661440e-01
5.643909e-01
5.629176e-01
5.619249e-01
5.615733e-01
5.619249e-01
5.629176e-01
5.643909e-01
5.661440e-01
5.679928e-01
5.698005e-01
5.714832e-01
0.000000e+00
1.000000e+00
5.707554e-01
5.682654e-01
5.655903e-01
5.628544e-01
5.602601e-01
5.580800e-01
5.566109e-01
5.560906e-01
5.566109e-01
5.580800e-01
5.602601e-01
5.628544e-01
5.655903e-01
5.682654e-01
5.707554e-01
0.000000e+00
1.000000e+00
5.699313e-01
5.665270e-01
5.628697e-01
5.591293e-01
5.555824e-01
5.526019e-01
5.505934e-01
5.498821e-01
5.505934e-01
5.526019e-01
5.555824e-01
5.591293e-01
5.628697e-01
5.665270e-01
5.699313e-01
0.000000e+00
1.000000e+00
5.690460e-01
5.646596e-01
5.599473e-01
5.551278e-01
5.505577e-01
5.467173e-01
5.441295e-01
5.432129e-01
5.441295e-01
5.467173e-01
5.505577e-01
5.551278e-01
5.599473e-01
5.646596e-01
5.690460e-01
0.000000e+00
1.000000e+00
5.681429e-01
5.627548e-01
5.569662e-01
5.510460e-01
5.454322e-01
5.407147e-01
5.375358e-01
5.364100e-01
5.375358e-01
5.407147e-01
5.454322e-01
5.510460e-01
5.569662e-01
5.627548e-01
5.681429e-01
0.000000e+00
1.000000e+00
5.672693e-01
5.609121e-01
5.540823e-01
5.470973e-01
5.404738e-01
5.349079e-01
5.311572e-01
5.298289e-01
5.311572e-01
5.349079e-01
5.404738e-01
5.470973e-01
5.540823e-01
5.609121e-01
5.672693e-01
0.000000e+00
1.000000e+00
5.664709e-01
5.592280e-01
5.514467e-01
5.434886e-01
5.359423e-01
5.296009e-01
5.253277e-01
5.238143e-01
5.253277e-01
5.296009e-01
5.359423e-01
5.434886e-01
5.514467e-01
5.592280e-01
5.664709e-01
0.000000e+00
1.000000e+00
5.657869e-01
5.577852e-01
5.491887e-01
5.403968e-01
5.320599e-01
5.250541e-01
5.203332e-01
5.186613e-01
5.203332e-01
5.250541e-01
5.320599e-01
5.403968e-01
5.491887e-01
5.577852e-01
5.657869e-01
0.000000e+00
1.000000e+00
5.652460e-01
5.566442e-01
5.474030e-01
5.379518e-01
5.289898e-01
5.214586e-01
5.163837e-01
5.145864e-01
5.163837e-01
5.214586e-01
5.289898e-01
5.379518e-01
5.474030e-01
5.566442e-01
5.652460e-01
0.000000e+00
1.000000e+00
5.648646e-01
5.558396e-01
5.461439e-01
5.362278e-01
5.268248e-01
5.189232e-01
5.135987e-01
5.117129e-01
5.135987e-01
5.189232e-01
5.268248e-01
5.362278e-01
5.461439e-01
5.558396e-01
5.648646e-01
0.000000e+00
1.000000e+00
5.646466e-01
5.553800e-01
5.454245e-01
5.352428e-01
5.255879e-01
5.174746e-01
5.120075e-01
5.100713e-01
5.120075e-01
5.174746e-01
5.255879e-01
5.352428e-01
5.454245e-01
5.553800e-01
5.646466e-01
0.000000e+00
1.000000e+00
5.645856e-01
5.552513e-01
5.452231e-01
5.349670e-01
5.252417e-01
5.170692e-01
5.115621e-01
5.096117e-01
5.115621e-01
5.170692e-01
5.252417e-01
5.349670e-01
5.452231e-01
5.552513e-01
5.645856e-01
0.000000e+00
1.000000e+00
5.646670e-01
5.554229e-01
5.454917e-01
5.353347e-01
5.257034e-01
5.176099e-01
5.121561e-01
5.102245e-01
5.121561e-01
5.176099e-01
5.257034e-01
5.353347e-01
5.454917e-01
5.554229e-01
5.646670e-01
0.000000e+00
1.000000e+00
5.733289e-01
5.736938e-01
5.740857e-01
5.744866e-01
5.748668e-01
5.751862e-01
5.754014e-01
5.754777e-01
5.754014e-01
5.751862e-01
5.748668e-01
5.744866e-01
5.740857e-01
5.736938e-01
5.733289e-01
0.000000e+00
1.000000e+00
5.730083e-01
5.730176e-01
5.730275e-01
5.730377e-01
5.730473e-01
5.730554e-01
5.730609e-01
5.730628e-01
5.730609e-01
5.730554e-01
5.730473e-01
5.730377e-01
5.730275e-01
5.730176e-01
5.730083e-01
0.000000e+00
1.000000e+00
5.725446e-01
5.720395e-01
5.714968e-01
5.709417e-01
5.704154e-01
5.699731e-01
5.696751e-01
5.695695e-01
5.696751e-01
5.699731e-01
5.704154e-01
5.709417e-01
5.714968e-01
5.720395e-01
5.725446e-01
0.000000e+00
1.000000e+00
5.719331e-01
5.707494e-01
5.694778e-01
5.681774e-01
5.669442e-01
5.659079e-01
5.652096e-01
5.649623e-01
5.652096e-01
5.659079e-01
5.669442e-01
5.681774e-01
5.694778e-01
5.707494e-01
5.719331e-01
0.000000e+00
1.000000e+00
5.711793e-01
5.691595e-01
5.669895e-01
5.647703e-01
5.626659e-01
5.608975e-01
5.597058e-01
5.592838e-01
5.597058e-01
5.608975e-01
5.626659e-01
5.647703e-01
5.669895e-01
5.691595e-01
5.711793e-01
0.000000e+00
1.000000e+00
5.703017e-01
5.673084e-01
5.640926e-01
5.608036e-01
5.576849e-01
5.550642e-01
5.532982e-01
5.526727e-01
5.532982e-01
5.550642e-01
5.576849e-01
5.608036e-01
5.640926e-01
5.673084e-01
5.703017e-01
0.000000e+00
1.000000e+00
5.693322e-01
5.652634e-01
5.608922e-01
5.564216e-01
5.521824e-01
5.486201e-01
5.462196e-01
5.453694e-01
5.462196e-01
5.486201e-01
5.521824e-01
5.564216e-01
5.608922e-01
5.652634e-01
5.693322e-01
0.000000e+00
1.000000e+00
5.683149e-01
5.631176e-01
5.575339e-01
5.518234e-01
5.464084e-01
5.418579e-01
5.387916e-01
5.377056e-01
5.387916e-01
5.418579e-01
5.464084e-01
5.518234e-01
5.575339e-01
5.631176e-01
5.683149e-01
0.000000e+00
1.000000e+00
5.673022e-01
5.609815e-01
5.541909e-01
5.472460e-01
5.406604e-01
5.351264e-01
5.313973e-01
5.300766e-01
5.313973e-01
5.351264e-01
5.406604e-01
5.472460e-01
5.541909e-01
5.609815e-01
5.673022e-01
0.000000e+00
1.000000e+00
5.663493e-01
5.589714e-01
5.510451e-01
5.429386e-01
5.352517e-01
5.287921e-01
5.244393e-01
5.228977e-01
5.244393e-01
5.287921e-01
5.352517e-01
5.429386e-01
5.510451e-01
5.589714e-01
5.663493e-01
0.000000e+00
1.000000e+00
5.655074e-01
5.571956e-01
5.482659e-01
5.391333e-01
5.304733e-01
5.231960e-01
5.182923e-01
5.165555e-01
5.182923e-01
5.231960e-01
5.304733e-01
5.391333e-01
5.482659e-01
5.571956e-01
5.655074e-01
0.000000e+00
1.000000e+00
5.648180e-01
5.557415e-01
5.459903e-01
5.360175e-01
5.265608e-01
5.186139e-01
5.132590e-01
5.113625e-01
5.132590e-01
5.186139e-01
5.265608e-01
5.360175e-01
5.459903e-01
5.557415e-01
5.648180e-01
0.000000e+00
1.000000e+00
5.643088e-01
5.546674e-01
5.443093e-01
5.337158e-01
5.236705e-01
5.152291e-01
5.095409e-01
5.075264e-01
5.095409e-01
5.152291e-01
5.236705e-01
5.337158e-01
5.443093e-01
5.546674e-01
5.643088e-01
0.000000e+00
1.000000e+00
5.639919e-01
5.539988e-01
5.432630e-01
5.322831e-01
5.218715e-01
5.131222e-01
5.072266e-01
5.051385e-01
5.072266e-01
5.131222e-01
5.218715e-01
5.322831e-01
5.432630e-01
5.539988e-01
5.639919e-01
0.000000e+00
1.000000e+00
5.638648e-01
5.537307e-01
5.428434e-01
5.317087e-01
5.211502e-01
5.122775e-01
5.062986e-01
5.041811e-01
5.062986e-01
5.122775e-01
5.211502e-01
5.317087e-01
5.428434e-01
5.537307e-01
5.638648e-01
0.000000e+00
1.000000e+00
5.639135e-01
5.538335e-01
5.430042e-01
5.319289e-01
5.214267e-01
5.126013e-01
5.066543e-01
5.045481e-01
5.066543e-01
5.126013e-01
5.214267e-01
5.319289e-01
5.430042e-01
5.538335e-01
5.639135e-01
0.000000e+00
1.000000e+00
5.641159e-01
5.542605e-01
5.436725e-01
5.328438e-01
5.225756e-01
5.139468e-01
5.081323e-01
5.060730e-01
5.081323e-01
5.139468e-01
5.225756e-01
5.328438e-01
5.436725e-01
5.542605e-01
5.641159e-01
0.000000e+00
1.000000e+00
5.736673e-01
5.744074e-01
5.752027e-01
5.760159e-01
5.767871e-01
5.774352e-01
5.778719e-01
5.780266e-01
5.778719e-01
5.774352e-01
5.767871e-01
5.760159e-01
5.752027e-01
5.744074e-01
5.736673e-01
0.000000e+00
1.000000e+00
5.732380e-01
5.735020e-01
5.737856e-01
5.740757e-01
5.743507e-01
5.745819e-01
5.747376e-01
5.747928e-01
5.747376e-01
5.745819e-01
5.743507e-01
5.740757e-01
5.737856e-01
5.735020e-01
5.732380e-01
0.000000e+00
1.000000e+00
5.726502e-01
5.722621e-01
5.718452e-01
5.714188e-01
5.710145e-01
5.706747e-01
5.704458e-01
5.703647e-01
5.704458e-01
5.706747e-01
5.710145e-01
5.714188e-01
5.718452e-01
5.722621e-01
5.726502e-01
0.000000e+00
1.000000e+00
5.719011e-01
5.706821e-01
5.693725e-01
5.680331e-01
5.667631e-01
5.656958e-01
5.649766e-01
5.647219e-01
5.649766e-01
5.656958e-01
5.667631e-01
5.680331e-01
5.693725e-01
5.706821e-01
5.719011e-01
0.000000e+00
1.000000e+00
5.710006e-01
5.687825e-01
5.663996e-01
5.639625e-01
5.616515e-01
5.597096e-01
5.584010e-01
5.579375e-01
5.584010e-01
5.597096e-01
5.616515e-01
5.639625e-01
5.663996e-01
5.687825e-01
5.710006e-01
0.000000e+00
1.000000e+00
5.699731e-01
5.666152e-01
5.630077e-01
5.593182e-01
5.558197e-01
5.528797e-01
5.508986e-01
5.501970e-01
5.508986e-01
5.528797e-01
5.558197e-01
5.593182e-01
5.630077e-01
5.666152e-01
5.699731e-01
0.000000e+00
1.000000e+00
5.688588e-01
5.642648e-01
5.593293e-01
5.542816e-01
5.494952e-01
5.454730e-01
5.427626e-01
5.418027e-01
5.427626e-01
5.454730e-01
5.494952e-01
5.542816e-01
5.593293e-01
5.642648e-01
5.688588e-01
0.000000e+00
1.000000e+00
5.677113e-01
5.618443e-01
5.555412e-01
5.490948e-01
5.429821e-01
5.378453e-01
5.343839e-01
5.331580e-01
5.343839e-01
5.378453e-01
5.429821e-01
5.490948e-01
5.555412e-01
5.618443e-01
5.677113e-01
0.000000e+00
1.000000e+00
5.665925e-01
5.594845e-01
5.518481e-01
5.440382e-01
5.366324e-01
5.304091e-01
5.262155e-01
5.247303e-01
5.262155e-01
5.304091e-01
5.366324e-01
5.440382e-01
5.518481e-01
5.594845e-01
5.665925e-01
0.000000e+00
1.000000e+00
5.655659e-01
5.573190e-01
5.484591e-01
5.393978e-01
5.308054e-01
5.235850e-01
5.187195e-01
5.169963e-01
5.187195e-01
5.235850e-01
5.308054e-01
5.393978e-01
5.484591e-01
5.573190e-01
5.655659e-01
0.000000e+00
1.000000e+00
5.646880e-01
5.554672e-01
5.455610e-01
5.354297e-01
5.258227e-01
5.177496e-01
5.123096e-01
5.103829e-01
5.123096e-01
5.177496e-01
5.258227e-01
5.354297e-01
5.455610e-01
5.554672e-01
5.646880e-01
0.000000e+00
1.000000e+00
5.640020e-01
5.540203e-01
5.432966e-01
5.323291e-01
5.219293e-01
5.131899e-01
5.073009e-01
5.052152e-01
5.073009e-01
5.131899e-01
5.219293e-01
5.323291e-01
5.432966e-01
5.540203e-01
5.640020e-01
0.000000e+00
1.000000e+00
5.635335e-01
5.530319e-01
5.417498e-01
5.302112e-01
5.192698e-01
5.100753e-01
5.038796e-01
5.016853e-01
5.038796e-01
5.100753e-01
5.192698e-01
5.302112e-01
5.417498e-01
5.530319e-01
5.635335e-01
0.000000e+00
1.000000e+00
5.632892e-01
5.525166e-01
5.409433e-01
5.291070e-01
5.178832e-01
5.084514e-01
5.020959e-01
4.998449e-01
5.020959e-01
5.084514e-01
5.178832e-01
5.291070e-01
5.409433e-01
5.525166e-01
5.632892e-01
0.000000e+00
1.000000e+00
5.632594e-01
5.524539e-01
5.408451e-01
5.289725e-01
5.177143e-01
5.082537e-01
5.018787e-01
4.996209e-01
5.018787e-01
5.082537e-01
5.177143e-01
5.289725e-01
5.408451e-01
5.524539e-01
5.632594e-01
0.000000e+00
1.000000e+00
5.634220e-01
5.527968e-01
5.413818e-01
5.297074e-01
5.186371e-01
5.093344e-01
5.030658e-01
5.008457e-01
5.030658e-01
5.093344e-01
5.186371e-01
5.297074e-01
5.413818e-01
5.527968e-01
5.634220e-01
0.000000e+00
1.000000e+00
5.637469e-01
5.534822e-01
5.424545e-01
5.311762e-01
5.204815e-01
5.114943e-01
5.054384e-01
5.032936e-01
5.054384e-01
5.114943e-01
5.204815e-01
5.311762e-01
5.424545e-01
5.534822e-01
5.637469e-01
0.000000e+00
1.000000e+00
5.741287e-01
5.753808e-01
5.767260e-01
5.781018e-01
5.794063e-01
5.805026e-01
5.812413e-01
5.815029e-01
5.812413e-01
5.805026e-01
5.794063e-01
5.781018e-01
5.767260e-01
5.753808e-01
5.741287e-01
0.000000e+00
1.000000e+00
5.735967e-01
5.742586e-01
5.749698e-01
5.756971e-01
5.763867e-01
5.769663e-01
5.773568e-01
5.774951e-01
5.773568e-01
5.769663e-01
5.763867e-01
5.756971e-01
5.749698e-01
5.742586e-01
5.735967e-01
0.000000e+00
1.000000e+00
5.728908e-01
5.727697e-01
5.726395e-01
5.725064e-01
5.723802e-01
5.722742e-01
5.722027e-01
5.721774e-01
5.722027e-01
5.722742e-01
5.723802e-01
5.725064e-01
5.726395e-01
5.727697e-01
5.728908e-01
0.000000e+00
1.000000e+00
5.720104e-01
5.709126e-01
5.697332e-01
5.685270e-01
5.673833e-01
5.664221e-01
5.657745e-01
5.655451e-01
5.657745e-01
5.664221e-01
5.673833e-01
5.685270e-01
5.697332e-01
5.709126e-01
5.720104e-01
0.000000e+00
1.000000e+00
5.709694e-01
5.687167e-01
5.662967e-01
5.638216e-01
5.614746e-01
5.595023e-01
5.581733e-01
5.577026e-01
5.581733e-01
5.595023e-01
5.614746e-01
5.638216e-01
5.662967e-01
5.687167e-01
5.709694e-01
0.000000e+00
1.000000e+00
5.697988e-01
5.662475e-01
5.624323e-01
5.585303e-01
5.548303e-01
5.517211e-01
5.496259e-01
5.488839e-01
5.496259e-01
5.517211e-01
5.548303e-01
5.585303e-01
5.624323e-01
5.662475e-01
5.697988e-01
0.000000e+00
1.000000e+00
5.685471e-01
5.636073e-01
5.583004e-01
5.528728e-01
5.477261e-01
5.434011e-01
5.404868e-01
5.394546e-01
5.404868e-01
5.434011e-01
5.477261e-01
5.528728e-01
5.583004e-01
5.636073e-01
5.685471e-01
0.000000e+00
1.000000e+00
5.672776e-01
5.609295e-01
5.541096e-01
5.471347e-01
5.405208e-01
5.349628e-01
5.312176e-01
5.298912e-01
5.312176e-01
5.349628e-01
5.405208e-01
5.471347e-01
5.541096e-01
5.609295e-01
5.672776e-01
0.000000e+00
1.000000e+00
5.660619e-01
5.583652e-01
5.500964e-01
5.416397e-01
5.336206e-01
5.268819e-01
5.223410e-01
5.207328e-01
5.223410e-01
5.268819e-01
5.336206e-01
5.416397e-01
5.500964e-01
5.583652e-01
5.660619e-01
0.000000e+00
1.000000e+00
5.649711e-01
5.560644e-01
5.464956e-01
5.367093e-01
5.274295e-01
5.196314e-01
5.143766e-01
5.125156e-01
5.143766e-01
5.196314e-01
5.274295e-01
5.367093e-01
5.464956e-01
5.560644e-01
5.649711e-01
0.000000e+00
1.000000e+00
5.640667e-01
5.541567e-01
5.435101e-01
5.326215e-01
5.222964e-01
5.136199e-01
5.077732e-01
5.057025e-01
5.077732e-01
5.136199e-01
5.222964e-01
5.326215e-01
5.435101e-01
5.541567e-01
5.640667e-01
0.000000e+00
1.000000e+00
5.633928e-01
5.527352e-01
5.412854e-01
5.295754e-01
5.184714e-01
5.091403e-01
5.028526e-01
5.006257e-01
5.028526e-01
5.091403e-01
5.184714e-01
5.295754e-01
5.412854e-01
5.527352e-01
5.633928e-01
0.000000e+00
1.000000e+00
5.629719e-01
5.518473e-01
5.398959e-01
5.276729e-01
5.160823e-01
5.063424e-01
4.997792e-01
4.974547e-01
4.997792e-01
5.063424e-01
5.160823e-01
5.276729e-01
5.398959e-01
5.518473e-01
5.629719e-01
0.000000e+00
1.000000e+00
5.628048e-01
5.514949e-01
5.393443e-01
5.269176e-01
5.151340e-01
5.052318e-01
4.985592e-01
4.961960e-01
4.985592e-01
5.052318e-01
5.151340e-01
5.269176e-01
5.393443e-01
5.514949e-01
5.628048e-01
0.000000e+00
1.000000e+00
5.628740e-01
5.516408e-01
5.395727e-01
5.272303e-01
5.155266e-01
5.056916e-01
4.990643e-01
4.967172e-01
4.990643e-01
5.056916e-01
5.155266e-01
5.272303e-01
5.395727e-01
5.516408e-01
5.628740e-01
0.000000e+00
1.000000e+00
5.631488e-01
5.522206e-01
5.404801e-01
5.284727e-01
5.170867e-01
5.075187e-01
5.010713e-01
4.987878e-01
5.010713e-01
5.075187e-01
5.170867e-01
5.284727e-01
5.404801e-01
5.522206e-01
5.631488e-01
0.000000e+00
1.000000e+00
5.635917e-01
5.531547e-01
5.419419e-01
5.304743e-01
5.196002e-01
5.104623e-01
5.043047e-01
5.021239e-01
5.043047e-01
5.104623e-01
5.196002e-01
5.304743e-01
5.419419e-01
5.531547e-01
5.635917e-01
0.000000e+00
1.000000e+00
5.747051e-01
5.765966e-01
5.786287e-01
5.807070e-01
5.826777e-01
5.843338e-01
5.854498e-01
5.858450e-01
5.854498e-01
5.843338e-01
5.826777e-01
5.807070e-01
5.786287e-01
5.765966e-01
5.747051e-01
0.000000e+00
1.000000e+00
5.740802e-01
5.752785e-01
5.765659e-01
5.778826e-01
5.791311e-01
5.801802e-01
5.808872e-01
5.811376e-01
5.808872e-01
5.801802e-01
5.791311e-01
5.778826e-01
5.765659e-01
5.752785e-01
5.740802e-01
0.000000e+00
1.000000e+00
5.732673e-01
5.735638e-01
5.738823e-01
5.742080e-01
5.745169e-01
5.747765e-01
5.749514e-01
5.750134e-01
5.749514e-01
5.747765e-01
5.745169e-01
5.742080e-01
5.738823e-01
5.735638e-01
5.732673e-01
0.000000e+00
1.000000e+00
5.722678e-01
5.714555e-01
5.705828e-01
5.696903e-01
5.688439e-01
5.681327e-01
5.676535e-01
5.674838e-01
5.676535e-01
5.681327e-01
5.688439e-01
5.696903e-01
5.705828e-01
5.714555e-01
5.722678e-01
0.000000e+00
1.000000e+00
5.710997e-01
5.689916e-01
5.667268e-01
5.644105e-01
5.622141e-01
5.603684e-01
5.591247e-01
5.586842e-01
5.591247e-01
5.603684e-01
5.622141e-01
5.644105e-01
5.667268e-01
5.689916e-01
5.710997e-01
0.000000e+00
1.000000e+00
5.698003e-01
5.662508e-01
5.624375e-01
5.585375e-01
5.548393e-01
5.517315e-01
5.496374e-01
5.488957e-01
5.496374e-01
5.517315e-01
5.548393e-01
5.585375e-01
5.624375e-01
5.662508e-01
5.698003e-01
0.000000e+00
1.000000e+00
5.684264e-01
5.633528e-01
5.579020e-01
5.523274e-01
5.470412e-01
5.425991e-01
5.396058e-01
5.385456e-01
5.396058e-01
5.425991e-01
5.470412e-01
5.523274e-01
5.579020e-01
5.633528e-01
5.684264e-01
0.000000e+00
1.000000e+00
5.670503e-01
5.604502e-01
5.533594e-01
5.461075e-01
5.392309e-01
5.334522e-01
5.295583e-01
5.281792e-01
5.295583e-01
5.334522e-01
5.392309e-01
5.461075e-01
5.533594e-01
5.604502e-01
5.670503e-01
0.000000e+00
1.000000e+00
5.657525e-01
5.577127e-01
5.490752e-01
5.402414e-01
5.318648e-01
5.248256e-01
5.200823e-01
5.184024e-01
5.200823e-01
5.248256e-01
5.318648e-01
5.402414e-01
5.490752e-01
5.577127e-01
5.657525e-01
0.000000e+00
1.000000e+00
5.646112e-01
5.553052e-01
5.453075e-01
5.350826e-01
5.253868e-01
5.172391e-01
5.117488e-01
5.098043e-01
5.117488e-01
5.172391e-01
5.253868e-01
5.350826e-01
5.453075e-01
5.553052e-01
5.646112e-01
0.000000e+00
1.000000e+00
5.636916e-01
5.533655e-01
5.422718e-01
5.309261e-01
5.201674e-01
5.111266e-01
5.050344e-01
5.028768e-01
5.050344e-01
5.111266e-01
5.201674e-01
5.309261e-01
5.422718e-01
5.533655e-01
5.636916e-01
0.000000e+00
1.000000e+00
5.630379e-01
5.519866e-01
5.401138e-01
5.279712e-01
5.164570e-01
5.067812e-01
5.002612e-01
4.979521e-01
5.002612e-01
5.067812e-01
5.164570e-01
5.279712e-01
5.401138e-01
5.519866e-01
5.630379e-01
0.000000e+00
1.000000e+00
5.626689e-01
5.512083e-01
5.388958e-01
5.263035e-01
5.143628e-01
5.043287e-01
4.975672e-01
4.951725e-01
4.975672e-01
5.043287e-01
5.143628e-01
5.263035e-01
5.388958e-01
5.512083e-01
5.626689e-01
0.000000e+00
1.000000e+00
5.625792e-01
5.510190e-01
5.385995e-01
5.258978e-01
5.138534e-01
5.037320e-01
4.969118e-01
4.944963e-01
4.969118e-01
5.037320e-01
5.138534e-01
5.258978e-01
5.385995e-01
5.510190e-01
5.625792e-01
0.000000e+00
1.000000e+00
5.627432e-01
5.513650e-01
5.391411e-01
5.266394e-01
5.147846e-01
5.048226e-01
4.981097e-01
4.957322e-01
4.981097e-01
5.048226e-01
5.147846e-01
5.266394e-01
5.391411e-01
5.513650e-01
5.627432e-01
0.000000e+00
1.000000e+00
5.631226e-01
5.521652e-01
5.403933e-01
5.283540e-01
5.169376e-01
5.073441e-01
5.008795e-01
4.985899e-01
5.008795e-01
5.073441e-01
5.169376e-01
5.283540e-01
5.403933e-01
5.521652e-01
5.631226e-01
0.000000e+00
1.000000e+00
5.636723e-01
5.533248e-01
5.422082e-01
5.308389e-01
5.200580e-01
5.109984e-01
5.048937e-01
5.027316e-01
5.048937e-01
5.109984e-01
5.200580e-01
5.308389e-01
5.422082e-01
5.533248e-01
5.636723e-01
0.000000e+00
1.000000e+00
5.753783e-01
5.780166e-01
5.808510e-01
5.837498e-01
5.864986e-01
5.888085e-01
5.903650e-01
5.909163e-01
5.903650e-01
5.888085e-01
5.864986e-01
5.837498e-01
5.808510e-01
5.780166e-01
5.753783e-01
0.000000e+00
1.000000e+00
5.746736e-01
5.765301e-01
5.785247e-01
5.805645e-01
5.824989e-01
5.841243e-01
5.852196e-01
5.856076e-01
5.852196e-01
5.841243e-01
5.824989e-01
5.805645e-01
5.785247e-01
5.765301e-01
5.746736e-01
0.000000e+00
1.000000e+00
5.737690e-01
5.746220e-01
5.755385e-01
5.764757e-01
5.773645e-01
5.781114e-01
5.786146e-01
5.787929e-01
5.786146e-01
5.781114e-01
5.773645e-01
5.764757e-01
5.755385e-01
5.746220e-01
5.737690e-01
0.000000e+00
1.000000e+00
5.726682e-01
5.723000e-01
5.719045e-01
5.715000e-01
5.711165e-01
5.707942e-01
5.705770e-01
5.705001e-01
5.705770e-01
5.707942e-01
5.711165e-01
5.715000e-01
5.719045e-01
5.723000e-01
5.726682e-01
0.000000e+00
1.000000e+00
5.713931e-01
5.696104e-01
5.676953e-01
5.657366e-01
5.638793e-01
5.623186e-01
5.612669e-01
5.608944e-01
5.612669e-01
5.623186e-01
5.638793e-01
5.657366e-01
5.676953e-01
5.696104e-01
5.713931e-01
0.000000e+00
1.000000e+00
5.699868e-01
5.666441e-01
5.630530e-01
5.593803e-01
5.558976e-01
5.529710e-01
5.509989e-01
5.503004e-01
5.509989e-01
5.529710e-01
5.558976e-01
5.593803e-01
5.630530e-01
5.666441e-01
5.699868e-01
0.000000e+00
1.000000e+00
5.685133e-01
5.635361e-01
5.581888e-01
5.527201e-01
5.475344e-01
5.431766e-01
5.402402e-01
5.392002e-01
5.402402e-01
5.431766e-01
5.475344e-01
5.527201e-01
5.581888e-01
5.635361e-01
5.685133e-01
0.000000e+00
1.000000e+00
5.670530e-01
5.604557e-01
5.533681e-01
5.461194e-01
5.392458e-01
5.334697e-01
5.295775e-01
5.281990e-01
5.295775e-01
5.334697e-01
5.392458e-01
5.461194e-01
5.533681e-01
5.604557e-01
5.670530e-01
0.000000e+00
1.000000e+00
5.656937e-01
5.575885e-01
5.488808e-01
5.399753e-01
5.315306e-01
5.244342e-01
5.196524e-01
5.179588e-01
5.196524e-01
5.244342e-01
5.315306e-01
5.399753e-01
5.488808e-01
5.575885e-01
5.656937e-01
0.000000e+00
1.000000e+00
5.645191e-01
5.551109e-01
5.450033e-01
5.346661e-01
5.248638e-01
5.166266e-01
5.110760e-01
5.091102e-01
5.110760e-01
5.166266e-01
5.248638e-01
5.346661e-01
5.450033e-01
5.551109e-01
5.645191e-01
0.000000e+00
1.000000e+00
5.635970e-01
5.531659e-01
5.419595e-01
5.304984e-01
5.196304e-01
5.104977e-01
5.043436e-01
5.021640e-01
5.043436e-01
5.104977e-01
5.196304e-01
5.304984e-01
5.419595e-01
5.531659e-01
5.635970e-01
0.000000e+00
1.000000e+00
5.629707e-01
5.518448e-01
5.398920e-01
5.276675e-01
5.160756e-01
5.063345e-01
4.997705e-01
4.974457e-01
4.997705e-01
5.063345e-01
5.160756e-01
5.276675e-01
5.398920e-01
5.518448e-01
5.629707e-01
0.000000e+00
1.000000e+00
5.626550e-01
5.511789e-01
5.388497e-01
5.262404e-01
5.142836e-01
5.042359e-01
4.974653e-01
4.950673e-01
4.974653e-01
5.042359e-01
5.142836e-01
5.262404e-01
5.388497e-01
5.511789e-01
5.626550e-01
0.000000e+00
1.000000e+00
5.626381e-01
5.511433e-01
5.387940e-01
5.261641e-01
5.141878e-01
5.041237e-01
4.973420e-01
4.949402e-01
4.973420e-01
5.041237e-01
5.141878e-01
5.261641e-01
5.387940e-01
5.511433e-01
5.626381e-01
0.000000e+00
1.000000e+00
5.628875e-01
5.516694e-01
5.396174e-01
5.272915e-01
5.156034e-01
5.057816e-01
4.991631e-01
4.968191e-01
4.991631e-01
5.057816e-01
5.156034e-01
5.272915e-01
5.396174e-01
5.516694e-01
5.628875e-01
0.000000e+00
1.000000e+00
5.633577e-01
5.526611e-01
5.411694e-01
5.294166e-01
5.182720e-01
5.089068e-01
5.025960e-01
5.003610e-01
5.025960e-01
5.089068e-01
5.182720e-01
5.294166e-01
5.411694e-01
5.526611e-01
5.633577e-01
0.000000e+00
1.000000e+00
5.639978e-01
5.540112e-01
5.432824e-01
5.323098e-01
5.219050e-01
5.131614e-01
5.072696e-01
5.051830e-01
5.072696e-01
5.131614e-01
5.219050e-01
5.323098e-01
5.432824e-01
5.540112e-01
5.639978e-01
0.000000e+00
1.000000e+00
5.761205e-01
5.795823e-01
5.833013e-01
5.871048e-01
5.907115e-01
5.937424e-01
5.957847e-01
5.965080e-01
5.957847e-01
5.937424e-01
5.907115e-01
5.871048e-01
5.833013e-01
5.795823e-01
5.761205e-01
0.000000e+00
1.000000e+00
5.753510e-01
5.779590e-01
5.807609e-01
5.836264e-01
5.863437e-01
5.886271e-01
5.901658e-01
5.907107e-01
5.901658e-01
5.886271e-01
5.863437e-01
5.836264e-01
5.807609e-01
5.779590e-01
5.753510e-01
0.000000e+00
1.000000e+00
5.743732e-01
5.758965e-01
5.775330e-01
5.792067e-01
5.807938e-01
5.821275e-01
5.830262e-01
5.833445e-01
5.830262e-01
5.821275e-01
5.807938e-01
5.792067e-01
5.775330e-01
5.758965e-01
5.743732e-01
0.000000e+00
1.000000e+00
5.731931e-01
5.734073e-01
5.736374e-01
5.738728e-01
5.740959e-01
5.742834e-01
5.744098e-01
5.744546e-01
5.744098e-01
5.742834e-01
5.740959e-01
5.738728e-01
5.736374e-01
5.734073e-01
5.731931e-01
0.000000e+00
1.000000e+00
5.718363e-01
5.705454e-01
5.691585e-01
5.677401e-01
5.663951e-01
5.652649e-01
5.645032e-01
5.642335e-01
5.645032e-01
5.652649e-01
5.663951e-01
5.677401e-01
5.691585e-01
5.705454e-01
5.718363e-01
0.000000e+00
1.000000e+00
5.703509e-01
5.674121e-01
5.642549e-01
5.610260e-01
5.579641e-01
5.553911e-01
5.536573e-01
5.530433e-01
5.536573e-01
5.553911e-01
5.579641e-01
5.610260e-01
5.642549e-01
5.674121e-01
5.703509e-01
0.000000e+00
1.000000e+00
5.688067e-01
5.641549e-01
5.591574e-01
5.540462e-01
5.491996e-01
5.451268e-01
5.423823e-01
5.414104e-01
5.423823e-01
5.451268e-01
5.491996e-01
5.540462e-01
5.591574e-01
5.641549e-01
5.688067e-01
0.000000e+00
1.000000e+00
5.672902e-01
5.609561e-01
5.541512e-01
5.471916e-01
5.405922e-01
5.350465e-01
5.313095e-01
5.299860e-01
5.313095e-01
5.350465e-01
5.405922e-01
5.471916e-01
5.541512e-01
5.609561e-01
5.672902e-01
0.000000e+00
1.000000e+00
5.658945e-01
5.580122e-01
5.495439e-01
5.408832e-01
5.326707e-01
5.257695e-01
5.211191e-01
5.194721e-01
5.211191e-01
5.257695e-01
5.326707e-01
5.408832e-01
5.495439e-01
5.580122e-01
5.658945e-01
0.000000e+00
1.000000e+00
5.647069e-01
5.555070e-01
5.456234e-01
5.355150e-01
5.259299e-01
5.178751e-01
5.124474e-01
5.105251e-01
5.124474e-01
5.178751e-01
5.259299e-01
5.355150e-01
5.456234e-01
5.555070e-01
5.647069e-01
0.000000e+00
1.000000e+00
5.637960e-01
5.535856e-01
5.426163e-01
5.313977e-01
5.207597e-01
5.118202e-01
5.057963e-01
5.036628e-01
5.057963e-01
5.118202e-01
5.207597e-01
5.313977e-01
5.426163e-01
5.535856e-01
5.637960e-01
0.000000e+00
1.000000e+00
5.632032e-01
5.523352e-01
5.406594e-01
5.287183e-01
5.173951e-01
5.078798e-01
5.014680e-01
4.991971e-01
5.014680e-01
5.078798e-01
5.173951e-01
5.287183e-01
5.406594e-01
5.523352e-01
5.632032e-01
0.000000e+00
1.000000e+00
5.629393e-01
5.517785e-01
5.397882e-01
5.275254e-01
5.158972e-01
5.061256e-01
4.995410e-01
4.972090e-01
4.995410e-01
5.061256e-01
5.158972e-01
5.275254e-01
5.397882e-01
5.517785e-01
5.629393e-01
0.000000e+00
1.000000e+00
5.629870e-01
5.518791e-01
5.399457e-01
5.277410e-01
5.161679e-01
5.064426e-01
4.998893e-01
4.975683e-01
4.998893e-01
5.064426e-01
5.161679e-01
5.277410e-01
5.399457e-01
5.518791e-01
5.629870e-01
0.000000e+00
1.000000e+00
5.633078e-01
5.525558e-01
5.410047e-01
5.291910e-01
5.179887e-01
5.085750e-01
5.022317e-01
4.999851e-01
5.022317e-01
5.085750e-01
5.179887e-01
5.291910e-01
5.410047e-01
5.525558e-01
5.633078e-01
0.000000e+00
1.000000e+00
5.638507e-01
5.537010e-01
5.427969e-01
5.316449e-01
5.210701e-01
5.121837e-01
5.061956e-01