<?xml version="1.0"?>
<VTKFile type="StructuredGrid" version="0.1">
  <StructuredGrid WholeExtent="0 16 0 16 0 16">
    <Piece Extent="0 16 0 16 0 16">
      <PointData Scalars="temperature" Vectors="velocity">
        <DataArray type="Float32" Name="temperature" format="ascii">
1.000000e+00
5.730813e-01
5.730230e-01
5.730418e-01
5.730559e-01
5.730694e-01
5.730806e-01
5.730882e-01
5.730908e-01
5.730881e-01
5.730805e-01
5.730694e-01
5.730559e-01
5.730417e-01
5.730379e-01
5.728207e-01
0.000000e+00
1.000000e+00
5.729559e-01
5.728100e-01
5.727076e-01
5.725979e-01
5.724939e-01
5.724064e-01
5.723475e-01
5.723265e-01
5.723472e-01
5.724058e-01
5.724934e-01
5.725979e-01
5.727058e-01
5.729038e-01
5.723494e-01
0.000000e+00
1.000000e+00
5.727378e-01
5.723539e-01
5.719895e-01
5.716147e-01
5.712593e-01
5.709607e-01
5.707595e-01
5.706881e-01
5.707590e-01
5.709599e-01
5.712604e-01
5.716188e-01
5.719896e-01
5.724568e-01
5.724375e-01
0.000000e+00
1.000000e+00
5.723806e-01
5.716347e-01
5.708612e-01
5.700698e-01
5.693195e-01
5.686889e-01
5.682641e-01
5.681135e-01
5.682638e-01
5.686896e-01
5.693262e-01
5.700832e-01
5.708706e-01
5.716873e-01
5.722338e-01
0.000000e+00
1.000000e+00
5.718980e-01
5.706509e-01
5.693190e-01
5.679582e-01
5.666680e-01
5.655840e-01
5.648538e-01
5.645955e-01
5.648551e-01
5.655890e-01
5.666840e-01
5.679841e-01
5.693408e-01
5.706948e-01
5.717595e-01
0.000000e+00
1.000000e+00
5.712877e-01
5.694187e-01
5.673876e-01
5.653137e-01
5.633474e-01
5.616955e-01
5.605834e-01
5.601911e-01
5.605889e-01
5.617093e-01
5.633753e-01
5.653555e-01
5.674218e-01
5.694645e-01
5.711779e-01
0.000000e+00
1.000000e+00
5.705789e-01
5.679742e-01
5.651251e-01
5.622157e-01
5.594574e-01
5.571408e-01
5.555819e-01
5.550336e-01
5.555939e-01
5.571670e-01
5.594991e-01
5.622750e-01
5.651728e-01
5.680258e-01
5.704884e-01
0.000000e+00
1.000000e+00
5.697983e-01
5.663752e-01
5.626219e-01
5.587882e-01
5.551538e-01
5.521019e-01
5.500493e-01
5.493288e-01
5.500690e-01
5.521423e-01
5.552089e-01
5.588644e-01
5.626824e-01
5.664329e-01
5.697279e-01
0.000000e+00
1.000000e+00
5.689887e-01
5.646969e-01
5.599945e-01
5.551906e-01
5.506368e-01
5.468135e-01
5.442430e-01
5.433422e-01
5.442706e-01
5.468686e-01
5.507051e-01
5.552828e-01
5.600660e-01
5.647608e-01
5.689286e-01
0.000000e+00
1.000000e+00
5.681822e-01
5.630238e-01
5.573747e-01
5.516035e-01
5.461333e-01
5.415412e-01
5.384546e-01
5.373738e-01
5.384892e-01
5.416100e-01
5.462132e-01
5.517115e-01
5.574552e-01
5.630915e-01
5.681339e-01
0.000000e+00
1.000000e+00
5.674156e-01
5.614403e-01
5.548957e-01
5.482095e-01
5.418724e-01
5.365531e-01
5.329783e-01
5.317267e-01
5.330187e-01
5.366332e-01
5.419630e-01
5.483315e-01
5.549830e-01
5.615115e-01
5.673804e-01
0.000000e+00
1.000000e+00
5.667317e-01
5.600233e-01
5.526780e-01
5.451735e-01
5.380614e-01
5.320918e-01
5.280799e-01
5.266752e-01
5.281248e-01
5.321792e-01
5.381620e-01
5.453073e-01
5.527700e-01
5.600963e-01
5.667080e-01
0.000000e+00
1.000000e+00
5.661587e-01
5.588347e-01
5.508177e-01
5.426272e-01
5.348651e-01
5.283501e-01
5.239714e-01
5.224378e-01
5.240192e-01
5.284413e-01
5.349738e-01
5.427696e-01
5.509132e-01
5.589102e-01
5.661431e-01
0.000000e+00
1.000000e+00
5.657170e-01
5.579157e-01
5.493793e-01
5.406584e-01
5.323939e-01
5.254570e-01
5.207943e-01
5.191605e-01
5.208432e-01
5.255490e-01
5.325074e-01
5.408047e-01
5.494775e-01
5.579923e-01
5.657055e-01
0.000000e+00
1.000000e+00
5.654164e-01
5.572864e-01
5.483932e-01
5.393089e-01
5.307000e-01
5.234739e-01
5.186161e-01
5.169130e-01
5.186645e-01
5.235642e-01
5.308155e-01
5.394534e-01
5.484946e-01
5.573649e-01
5.654057e-01
0.000000e+00
1.000000e+00
5.652471e-01
5.569454e-01
5.478585e-01
5.385773e-01
5.297819e-01
5.223988e-01
5.174349e-01
5.156936e-01
5.174817e-01
5.224853e-01
5.298946e-01
5.387166e-01
5.479608e-01
5.570265e-01
5.652491e-01
0.000000e+00
1.000000e+00
5.651835e-01
5.568687e-01
5.477449e-01
5.384233e-01
5.295903e-01
5.221762e-01
5.171920e-01
5.154440e-01
5.172399e-01
5.222649e-01
5.297041e-01
5.385708e-01
5.478557e-01
5.569709e-01
5.652096e-01
0.000000e+00
1.000000e+00
5.731761e-01
5.732338e-01
5.733756e-01
5.735125e-01
5.736423e-01
5.737514e-01
5.738248e-01
5.738505e-01
5.738241e-01
5.737502e-01
5.736413e-01
5.735131e-01
5.733779e-01
5.732359e-01
5.729066e-01
0.000000e+00
1.000000e+00
5.729509e-01
5.727949e-01
5.726828e-01
5.725639e-01
5.724512e-01
5.723564e-01
5.722924e-01
5.722694e-01
5.722915e-01
5.723550e-01
5.724506e-01
5.725673e-01
5.726839e-01
5.728623e-01
5.723229e-01
0.000000e+00
1.000000e+00
5.725861e-01
5.720832e-01
5.715645e-01
5.710324e-01
5.705278e-01
5.701038e-01
5.698179e-01
5.697164e-01
5.698171e-01
5.701030e-01
5.705306e-01
5.710441e-01
5.715729e-01
5.721673e-01
5.722155e-01
0.000000e+00
1.000000e+00
5.721061e-01
5.710831e-01
5.699968e-01
5.688862e-01
5.678331e-01
5.669481e-01
5.663520e-01
5.661410e-01
5.663528e-01
5.669517e-01
5.678451e-01
5.689071e-01
5.700178e-01
5.711406e-01
5.719375e-01
0.000000e+00
1.000000e+00
5.714867e-01
5.698011e-01
5.679887e-01
5.661368e-01
5.643809e-01
5.629058e-01
5.619125e-01
5.615620e-01
5.619171e-01
5.629173e-01
5.644049e-01
5.661693e-01
5.680207e-01
5.698499e-01
5.713156e-01
0.000000e+00
1.000000e+00
5.707363e-01
5.682646e-01
5.655820e-01
5.628414e-01
5.602430e-01
5.580605e-01
5.565917e-01
5.560747e-01
5.566024e-01
5.580830e-01
5.602794e-01
5.628904e-01
5.656258e-01
5.683194e-01
5.706007e-01
0.000000e+00
1.000000e+00
5.698829e-01
5.665234e-01
5.628561e-01
5.591090e-01
5.555568e-01
5.525738e-01
5.505674e-01
5.498629e-01
5.505860e-01
5.526091e-01
5.556057e-01
5.591757e-01
5.629142e-01
5.665860e-01
5.697765e-01
0.000000e+00
1.000000e+00
5.689758e-01
5.646517e-01
5.599277e-01
5.550993e-01
5.505226e-01
5.466802e-01
5.440968e-01
5.431913e-01
5.441240e-01
5.467302e-01
5.505842e-01
5.551841e-01
5.599983e-01
5.647223e-01
5.688922e-01
0.000000e+00
1.000000e+00
5.680602e-01
5.627431e-01
5.569408e-01
5.510094e-01
5.453878e-01
5.406691e-01
5.374977e-01
5.363870e-01
5.375330e-01
5.407355e-01
5.454610e-01
5.511129e-01
5.570225e-01
5.628200e-01
5.679873e-01
0.000000e+00
1.000000e+00
5.671669e-01
5.608966e-01
5.540512e-01
5.470528e-01
5.404208e-01
5.348548e-01
5.311147e-01
5.298052e-01
5.311571e-01
5.349370e-01
5.405045e-01
5.471751e-01
5.541427e-01
5.609797e-01
5.671143e-01
0.000000e+00
1.000000e+00
5.663501e-01
5.592087e-01
5.514103e-01
5.434373e-01
5.358823e-01
5.295423e-01
5.252821e-01
5.237906e-01
5.253302e-01
5.296364e-01
5.359762e-01
5.435767e-01
5.515094e-01
5.592978e-01
5.663147e-01
0.000000e+00
1.000000e+00
5.656548e-01
5.577633e-01
5.491482e-01
5.403406e-01
5.319952e-01
5.249919e-01
5.202859e-01
5.186380e-01
5.203381e-01
5.250932e-01
5.320992e-01
5.404938e-01
5.492527e-01
5.578565e-01
5.656299e-01
0.000000e+00
1.000000e+00
5.651072e-01
5.566214e-01
5.473601e-01
5.378929e-01
5.289226e-01
5.213948e-01
5.163358e-01
5.145638e-01
5.163902e-01
5.214989e-01
5.290347e-01
5.380548e-01
5.474670e-01
5.567157e-01
5.650897e-01
0.000000e+00
1.000000e+00
5.647218e-01
5.558173e-01
5.460999e-01
5.361679e-01
5.267572e-01
5.188593e-01
5.135510e-01
5.116908e-01
5.136058e-01
5.189630e-01
5.268750e-01
5.363321e-01
5.462076e-01
5.559119e-01
5.647102e-01
0.000000e+00
1.000000e+00
5.644982e-01
5.553589e-01
5.453804e-01
5.351835e-01
5.255213e-01
5.174117e-01
5.119604e-01
5.100493e-01
5.120144e-01
5.175125e-01
5.256430e-01
5.353410e-01
5.454867e-01
5.554459e-01
5.644946e-01
0.000000e+00
1.000000e+00
5.644234e-01
5.552314e-01
5.451788e-01
5.349084e-01
5.251762e-01
5.170073e-01
5.115154e-01
5.095893e-01
5.115681e-01
5.171044e-01
5.252973e-01
5.350581e-01
5.452834e-01
5.553257e-01
5.644413e-01
0.000000e+00
1.000000e+00
5.645693e-01
5.553950e-01
5.454483e-01
5.352789e-01
5.256424e-01
5.175533e-01
5.121144e-01
5.102056e-01
5.121636e-01
5.176448e-01
5.257566e-01
5.354338e-01
5.455679e-01
5.555096e-01
5.645224e-01
0.000000e+00
1.000000e+00
5.734085e-01
5.736863e-01
5.740852e-01
5.744845e-01
5.748631e-01
5.751812e-01
5.753955e-01
5.754711e-01
5.753945e-01
5.751795e-01
5.748615e-01
5.744864e-01
5.740968e-01
5.736997e-01
5.732961e-01
0.000000e+00
1.000000e+00
5.730676e-01
5.730160e-01
5.730281e-01
5.730370e-01
5.730454e-01
5.730523e-01
5.730567e-01
5.730578e-01
5.730551e-01
5.730495e-01
5.730437e-01
5.730431e-01
5.730342e-01
5.730433e-01
5.727582e-01
0.000000e+00
1.000000e+00
5.725647e-01
5.720419e-01
5.714975e-01
5.709410e-01
5.704132e-01
5.699695e-01
5.696703e-01
5.695640e-01
5.696692e-01
5.699683e-01
5.704175e-01
5.709604e-01
5.715132e-01
5.720820e-01
5.722867e-01
0.000000e+00
1.000000e+00
5.719290e-01
5.707521e-01
5.694764e-01
5.681732e-01
5.669375e-01
5.658989e-01
5.651992e-01
5.649515e-01
5.652003e-01
5.659035e-01
5.669545e-01
5.682012e-01
5.695038e-01
5.707956e-01
5.717736e-01
0.000000e+00
1.000000e+00
5.711672e-01
5.691593e-01
5.669836e-01
5.647602e-01
5.626521e-01
5.608812e-01
5.596892e-01
5.592694e-01
5.596972e-01
5.608981e-01
5.626856e-01
5.648002e-01
5.670203e-01
5.692079e-01
5.710018e-01
0.000000e+00
1.000000e+00
5.702751e-01
5.673053e-01
5.640820e-01
5.607875e-01
5.576642e-01
5.550413e-01
5.532769e-01
5.526571e-01
5.532932e-01
5.550712e-01
5.577118e-01
5.608433e-01
5.641314e-01
5.673627e-01
5.701371e-01
0.000000e+00
1.000000e+00
5.692809e-01
5.652567e-01
5.608761e-01
5.563981e-01
5.521534e-01
5.485897e-01
5.461936e-01
5.453533e-01
5.462185e-01
5.486321e-01
5.522136e-01
5.564703e-01
5.609405e-01
5.653221e-01
5.691735e-01
0.000000e+00
1.000000e+00
5.682534e-01
5.631066e-01
5.575121e-01
5.517920e-01
5.463709e-01
5.418203e-01
5.387614e-01
5.376894e-01
5.387942e-01
5.418758e-01
5.464428e-01
5.518828e-01
5.575870e-01
5.631783e-01
5.681617e-01
0.000000e+00
1.000000e+00
5.672212e-01
5.609656e-01
5.541625e-01
5.472059e-01
5.406139e-01
5.350816e-01
5.313636e-01
5.300611e-01
5.314042e-01
5.351535e-01
5.406967e-01
5.473186e-01
5.542471e-01
5.610420e-01
5.671490e-01
0.000000e+00
1.000000e+00
5.662564e-01
5.589493e-01
5.510102e-01
5.428904e-01
5.351973e-01
5.287417e-01
5.244034e-01
5.228837e-01
5.244508e-01
5.288298e-01
5.352894e-01
5.430250e-01
5.511061e-01
5.590343e-01
5.661960e-01
0.000000e+00
1.000000e+00
5.654028e-01
5.571680e-01
5.482250e-01
5.390779e-01
5.304125e-01
5.231412e-01
5.182547e-01
5.165429e-01
5.183073e-01
5.232421e-01
5.305132e-01
5.392325e-01
5.483324e-01
5.572606e-01
5.653531e-01
0.000000e+00
1.000000e+00
5.647015e-01
5.557105e-01
5.459451e-01
5.359573e-01
5.264958e-01
5.185563e-01
5.132204e-01
5.113507e-01
5.132764e-01
5.186653e-01
5.266037e-01
5.361269e-01
5.460635e-01
5.558103e-01
5.646626e-01
0.000000e+00
1.000000e+00
5.641804e-01
5.546357e-01
5.442621e-01
5.336534e-01
5.236036e-01
5.151700e-01
5.095015e-01
5.075147e-01
5.095595e-01
5.152822e-01
5.237185e-01
5.338299e-01
5.443886e-01
5.547439e-01
5.641527e-01
0.000000e+00
1.000000e+00
5.638552e-01
5.539691e-01
5.432157e-01
5.322208e-01
5.218044e-01
5.130627e-01
5.071866e-01
5.051264e-01
5.072449e-01
5.131742e-01
5.219266e-01
5.323954e-01
5.433437e-01
5.540983e-01
5.638476e-01
0.000000e+00
1.000000e+00
5.637195e-01
5.537044e-01
5.427973e-01
5.316479e-01
5.210842e-01
5.122182e-01
5.062581e-01
5.041679e-01
5.063158e-01
5.123266e-01
5.212131e-01
5.318096e-01
5.429177e-01
5.538294e-01
5.637416e-01
0.000000e+00
1.000000e+00
5.637520e-01
5.538107e-01
5.429589e-01
5.318694e-01
5.213616e-01
5.125420e-01
5.066128e-01
5.045333e-01
5.066697e-01
5.126470e-01
5.214917e-01
5.320225e-01
5.430852e-01
5.539247e-01
5.637818e-01
0.000000e+00
1.000000e+00
5.640303e-01
5.542326e-01
5.436289e-01
5.327880e-01
5.225155e-01
5.138928e-01
5.080952e-01
5.060609e-01
5.081486e-01
5.139918e-01
5.226408e-01
5.329483e-01
5.437562e-01
5.543298e-01
5.639498e-01
0.000000e+00
1.000000e+00
5.737550e-01
5.743967e-01
5.751988e-01
5.760094e-01
5.767780e-01
5.774239e-01
5.778590e-01
5.780128e-01
5.778579e-01
5.774216e-01
5.767762e-01
5.760175e-01
5.752252e-01
5.744260e-01
5.735923e-01
0.000000e+00
1.000000e+00
5.732992e-01
5.734972e-01
5.737827e-01
5.740701e-01
5.743427e-01
5.745716e-01
5.747255e-01
5.747793e-01
5.747232e-01
5.745675e-01
5.743399e-01
5.740788e-01
5.737997e-01
5.735270e-01
5.730899e-01
0.000000e+00
1.000000e+00
5.726863e-01
5.722627e-01
5.718431e-01
5.714143e-01
5.710077e-01
5.706657e-01
5.704349e-01
5.703526e-01
5.704332e-01
5.706626e-01
5.710110e-01
5.714407e-01
5.718635e-01
5.722920e-01
5.724970e-01
0.000000e+00
1.000000e+00
5.718993e-01
5.706851e-01
5.693688e-01
5.680260e-01
5.667524e-01
5.656821e-01
5.649610e-01
5.647059e-01
5.649630e-01
5.656874e-01
5.667726e-01
5.680667e-01
5.694055e-01
5.707157e-01
5.717980e-01
0.000000e+00
1.000000e+00
5.709691e-01
5.687832e-01
5.663919e-01
5.639495e-01
5.616337e-01
5.596884e-01
5.583791e-01
5.579184e-01
5.583896e-01
5.597086e-01
5.616723e-01
5.640030e-01
5.664413e-01
5.688224e-01
5.708640e-01
0.000000e+00
1.000000e+00
5.699243e-01
5.666098e-01
5.629944e-01
5.592979e-01
5.557937e-01
5.528514e-01
5.508730e-01
5.501794e-01
5.508953e-01
5.528882e-01
5.558485e-01
5.593659e-01
5.630550e-01
5.666633e-01
5.698190e-01
0.000000e+00
1.000000e+00
5.688106e-01
5.642542e-01
5.593103e-01
5.542540e-01
5.494618e-01
5.454393e-01
5.427357e-01
5.417889e-01
5.427671e-01
5.454880e-01
5.495301e-01
5.543369e-01
5.593794e-01
5.643199e-01
5.686948e-01
0.000000e+00
1.000000e+00
5.676555e-01
5.618294e-01
5.555160e-01
5.490594e-01
5.429413e-01
5.378067e-01
5.343560e-01
5.331472e-01
5.343941e-01
5.378661e-01
5.430228e-01
5.491614e-01
5.555915e-01
5.619034e-01
5.675530e-01
0.000000e+00
1.000000e+00
5.665271e-01
5.594646e-01
5.518166e-01
5.439952e-01
5.365847e-01
5.303658e-01
5.261861e-01
5.247214e-01
5.262305e-01
5.304386e-01
5.366779e-01
5.441198e-01
5.519013e-01
5.595466e-01
5.664361e-01
0.000000e+00
1.000000e+00
5.654896e-01
5.572921e-01
5.484202e-01
5.393467e-01
5.307512e-01
5.235379e-01
5.186896e-01
5.169904e-01
5.187399e-01
5.236259e-01
5.308539e-01
5.394940e-01
5.485199e-01
5.573849e-01
5.654115e-01
0.000000e+00
1.000000e+00
5.646208e-01
5.554336e-01
5.455154e-01
5.353723e-01
5.257640e-01
5.177004e-01
5.122801e-01
5.103797e-01
5.123346e-01
5.178007e-01
5.258731e-01
5.355375e-01
5.456320e-01
5.555356e-01
5.645332e-01
0.000000e+00
1.000000e+00
5.639274e-01
5.539815e-01
5.432461e-01
5.322675e-01
5.218674e-01
5.131390e-01
5.072711e-01
5.052133e-01
5.073286e-01
5.132479e-01
5.219816e-01
5.324422e-01
5.433810e-01
5.540916e-01
5.638468e-01
0.000000e+00
1.000000e+00
5.634385e-01
5.529910e-01
5.416978e-01
5.301479e-01
5.192062e-01
5.100228e-01
5.038488e-01
5.016832e-01
5.039081e-01
5.101362e-01
5.193268e-01
5.303197e-01
5.418471e-01
5.531216e-01
5.633750e-01
0.000000e+00
1.000000e+00
5.631707e-01
5.524787e-01
5.408928e-01
5.290442e-01
5.178190e-01
5.083975e-01
5.020633e-01
4.998413e-01
5.021233e-01
5.085116e-01
5.179487e-01
5.292042e-01
5.410372e-01
5.526476e-01
5.631220e-01
0.000000e+00
1.000000e+00
5.631181e-01
5.524213e-01
5.407965e-01
5.289107e-01
5.176496e-01
5.081981e-01
5.018438e-01
4.996149e-01
5.019040e-01
5.083110e-01
5.177884e-01
5.290573e-01
5.409280e-01
5.525943e-01
5.630794e-01
0.000000e+00
1.000000e+00
5.632803e-01
5.527693e-01
5.413351e-01
5.296469e-01
5.185726e-01
5.092778e-01
5.030290e-01
5.008373e-01
5.030889e-01
5.093884e-01
5.187117e-01
5.297955e-01
5.414762e-01
5.528982e-01
5.632513e-01
0.000000e+00
1.000000e+00
5.636743e-01
5.534514e-01
5.424089e-01
5.311185e-01
5.204206e-01
5.114412e-01
5.054043e-01
5.032868e-01
5.054620e-01
5.115477e-01
5.205584e-01
5.312792e-01
5.425463e-01
5.535373e-01
5.635785e-01
0.000000e+00
1.000000e+00
5.742235e-01
5.753668e-01
5.767182e-01
5.780898e-01
5.793905e-01
5.804836e-01
5.812202e-01
5.814809e-01
5.812195e-01
5.804819e-01
5.793928e-01
5.781138e-01
5.767660e-01
5.754084e-01
5.740832e-01
0.000000e+00
1.000000e+00
5.736605e-01
5.742503e-01
5.749624e-01
5.756856e-01
5.763714e-01
5.769477e-01
5.773358e-01
5.774727e-01
5.773337e-01
5.769435e-01
5.763686e-01
5.757003e-01
5.750015e-01
5.742911e-01
5.735082e-01
0.000000e+00
1.000000e+00
5.729336e-01
5.727673e-01
5.726335e-01
5.724967e-01
5.723668e-01
5.722573e-01
5.721830e-01
5.721557e-01
5.721799e-01
5.722518e-01
5.723686e-01
5.725259e-01
5.726651e-01
5.728043e-01
5.728156e-01
0.000000e+00
1.000000e+00
5.720140e-01
5.709144e-01
5.697267e-01
5.685162e-01
5.673683e-01
5.664036e-01
5.657537e-01
5.655236e-01
5.657550e-01
5.664071e-01
5.673908e-01
5.685674e-01
5.697720e-01
5.709460e-01
5.719730e-01
0.000000e+00
1.000000e+00
5.709255e-01
5.687187e-01
5.662869e-01
5.638056e-01
5.614527e-01
5.594761e-01
5.581458e-01
5.576778e-01
5.581575e-01
5.594983e-01
5.614970e-01
5.638701e-01
5.663474e-01
5.687548e-01
5.709194e-01
0.000000e+00
1.000000e+00
5.697289e-01
5.662418e-01
5.624169e-01
5.585065e-01
5.547994e-01
5.516870e-01
5.495949e-01
5.488626e-01
5.496212e-01
5.517287e-01
5.548610e-01
5.585858e-01
5.624864e-01
5.662888e-01
5.697184e-01
0.000000e+00
1.000000e+00
5.684831e-01
5.635941e-01
5.582784e-01
5.528404e-01
5.476869e-01
5.433622e-01
5.404567e-01
5.394409e-01
5.404942e-01
5.434163e-01
5.477645e-01
5.529376e-01
5.583556e-01
5.636543e-01
5.684292e-01
0.000000e+00
1.000000e+00
5.672241e-01
5.609103e-01
5.540806e-01
5.470943e-01
5.404756e-01
5.349220e-01
5.311908e-01
5.298845e-01
5.312338e-01
5.349834e-01
5.405672e-01
5.472136e-01
5.541646e-01
5.609817e-01
5.671360e-01
0.000000e+00
1.000000e+00
5.660202e-01
5.583409e-01
5.500606e-01
5.415930e-01
5.335717e-01
5.268405e-01
5.223163e-01
5.207303e-01
5.223623e-01
5.269109e-01
5.336738e-01
5.417361e-01
5.501538e-01
5.584244e-01
5.659013e-01
0.000000e+00
1.000000e+00
5.649362e-01
5.560356e-01
5.464534e-01
5.366572e-01
5.273769e-01
5.195880e-01
5.143518e-01
5.125157e-01
5.144028e-01
5.196721e-01
5.274868e-01
5.368219e-01
5.465586e-01
5.561283e-01
5.648061e-01
0.000000e+00
1.000000e+00
5.640357e-01
5.541225e-01
5.434615e-01
5.325652e-01
5.222415e-01
5.135758e-01
5.077496e-01
5.057057e-01
5.078046e-01
5.136715e-01
5.223559e-01
5.327446e-01
5.435836e-01
5.542216e-01
5.639001e-01
0.000000e+00
1.000000e+00
5.634009e-01
5.527001e-01
5.412333e-01
5.295172e-01
5.184154e-01
5.090959e-01
5.028295e-01
5.006306e-01
5.028870e-01
5.091997e-01
5.185336e-01
5.296974e-01
5.413774e-01
5.528036e-01
5.632186e-01
0.000000e+00
1.000000e+00
5.629532e-01
5.518075e-01
5.398431e-01
5.276133e-01
5.160245e-01
5.062962e-01
4.997548e-01
4.974591e-01
4.998140e-01
5.064055e-01
5.161509e-01
5.277783e-01
5.400054e-01
5.519317e-01
5.627772e-01
0.000000e+00
1.000000e+00
5.627125e-01
5.514523e-01
5.392924e-01
5.268565e-01
5.150733e-01
5.051823e-01
4.985318e-01
4.961980e-01
4.985923e-01
5.052959e-01
5.152117e-01
5.270016e-01
5.394420e-01
5.516010e-01
5.625959e-01
0.000000e+00
1.000000e+00
5.627665e-01
5.516019e-01
5.395221e-01
5.271683e-01
5.154636e-01
5.056391e-01
4.990337e-01
4.967162e-01
4.990951e-01
5.057550e-01
5.156082e-01
5.273089e-01
5.396643e-01
5.517472e-01
5.626816e-01
0.000000e+00
1.000000e+00
5.630285e-01
5.521866e-01
5.404306e-01
5.284105e-01
5.170223e-01
5.074640e-01
5.010381e-01
4.987845e-01
5.011003e-01
5.075801e-01
5.171631e-01
5.285717e-01
5.405840e-01
5.523053e-01
5.629799e-01
0.000000e+00
1.000000e+00
5.635383e-01
5.531221e-01
5.418945e-01
5.304147e-01
5.195381e-01
5.104093e-01
5.042723e-01
5.021205e-01
5.043335e-01
5.105231e-01
5.196807e-01
5.305905e-01
5.420309e-01
5.532138e-01
5.634045e-01
0.000000e+00
1.000000e+00
5.748232e-01
5.765775e-01
5.786163e-01
5.806887e-01
5.826542e-01
5.843061e-01
5.854196e-01
5.858143e-01
5.854206e-01
5.843091e-01
5.826709e-01
5.807378e-01
5.786825e-01
5.766326e-01
5.746551e-01
0.000000e+00
1.000000e+00
5.741637e-01
5.752659e-01
5.765539e-01
5.778648e-01
5.791081e-01
5.801532e-01
5.808575e-01
5.811066e-01
5.808562e-01
5.801504e-01
5.791103e-01
5.778970e-01
5.766199e-01
5.753225e-01
5.739829e-01
0.000000e+00
1.000000e+00
5.733181e-01
5.735576e-01
5.738711e-01
5.741912e-01
5.744949e-01
5.747498e-01
5.749213e-01
5.749812e-01
5.749186e-01
5.747443e-01
5.744959e-01
5.742239e-01
5.739251e-01
5.736108e-01
5.731967e-01
0.000000e+00
1.000000e+00
5.722819e-01
5.714549e-01
5.705726e-01
5.696746e-01
5.688231e-01
5.681076e-01
5.676257e-01
5.674548e-01
5.676252e-01
5.681079e-01
5.688472e-01
5.697346e-01
5.706266e-01
5.714970e-01
5.722202e-01
0.000000e+00
1.000000e+00
5.710545e-01
5.689936e-01
5.667143e-01
5.643911e-01
5.621880e-01
5.603375e-01
5.590925e-01
5.586551e-01
5.591036e-01
5.603587e-01
5.622400e-01
5.644645e-01
5.667875e-01
5.690376e-01
5.710598e-01
0.000000e+00
1.000000e+00
5.697188e-01
5.662471e-01
5.624204e-01
5.585109e-01
5.548045e-01
5.516926e-01
5.496011e-01
5.488697e-01
5.496282e-01
5.517353e-01
5.548760e-01
5.585974e-01
5.625002e-01
5.662968e-01
5.697518e-01
0.000000e+00
1.000000e+00
5.683416e-01
5.633400e-01
5.578785e-01
5.522917e-01
5.469973e-01
5.425548e-01
5.395713e-01
5.385297e-01
5.396121e-01
5.426119e-01
5.470866e-01
5.523971e-01
5.579631e-01
5.633996e-01
5.683499e-01
0.000000e+00
1.000000e+00
5.669748e-01
5.604285e-01
5.533277e-01
5.460626e-01
5.391807e-01
5.334078e-01
5.295303e-01
5.281741e-01
5.295765e-01
5.334710e-01
5.392843e-01
5.461941e-01
5.534164e-01
5.604976e-01
5.669426e-01
0.000000e+00
1.000000e+00
5.657117e-01
5.576838e-01
5.490349e-01
5.401903e-01
5.318135e-01
5.247847e-01
5.200607e-01
5.184046e-01
5.201068e-01
5.248525e-01
5.319253e-01
5.403501e-01
5.491330e-01
5.577666e-01
5.656030e-01
0.000000e+00
1.000000e+00
5.646156e-01
5.552751e-01
5.452620e-01
5.350305e-01
5.253371e-01
5.172003e-01
5.117293e-01
5.098089e-01
5.117776e-01
5.172776e-01
5.254523e-01
5.352110e-01
5.453719e-01
5.553643e-01
5.644437e-01
0.000000e+00
1.000000e+00
5.637593e-01
5.533462e-01
5.422246e-01
5.308735e-01
5.201164e-01
5.110862e-01
5.050145e-01
5.028830e-01
5.050680e-01
5.111766e-01
5.202357e-01
5.310657e-01
5.423514e-01
5.534230e-01
5.635259e-01
0.000000e+00
1.000000e+00
5.632549e-01
5.519899e-01
5.400673e-01
5.279189e-01
5.164054e-01
5.067403e-01
5.002413e-01
4.979598e-01
5.002976e-01
5.068405e-01
5.165283e-01
5.281076e-01
5.402170e-01
5.520422e-01
5.628667e-01
0.000000e+00
1.000000e+00
5.628311e-01
5.511997e-01
5.388482e-01
5.262490e-01
5.143088e-01
5.042854e-01
4.975454e-01
4.951794e-01
4.976043e-01
5.043937e-01
5.144407e-01
5.264188e-01
5.390139e-01
5.512768e-01
5.625014e-01
0.000000e+00
1.000000e+00
5.625653e-01
5.509832e-01
5.385488e-01
5.258391e-01
5.137953e-01
5.036851e-01
4.968870e-01
4.945012e-01
4.969482e-01
5.037999e-01
5.139374e-01
5.259918e-01
5.387077e-01
5.511066e-01
5.624018e-01
0.000000e+00
1.000000e+00
5.626706e-01
5.513217e-01
5.390880e-01
5.265772e-01
5.147231e-01
5.047727e-01
4.980824e-01
4.957350e-01
4.981444e-01
5.048909e-01
5.148652e-01
5.267377e-01
5.392493e-01
5.514516e-01
5.625711e-01
0.000000e+00
1.000000e+00
5.630469e-01
5.521263e-01
5.403415e-01
5.282905e-01
5.168734e-01
5.072908e-01
5.008487e-01
4.985898e-01
5.009120e-01
5.074110e-01
5.170094e-01
5.284754e-01
5.404953e-01
5.522416e-01
5.629746e-01
0.000000e+00
1.000000e+00
5.636158e-01
5.532908e-01
5.421591e-01
5.307770e-01
5.199939e-01
5.109441e-01
5.048609e-01
5.027289e-01
5.049243e-01
5.110642e-01
5.201349e-01
5.309723e-01
5.422821e-01
5.533980e-01
5.634303e-01
0.000000e+00
1.000000e+00
5.755323e-01
5.779892e-01
5.808333e-01
5.837245e-01
5.864665e-01
5.887713e-01
5.903253e-01
5.908771e-01
5.903299e-01
5.887844e-01
5.865074e-01
5.837973e-01
5.809150e-01
5.780573e-01
5.753394e-01
0.000000e+00
1.000000e+00
5.747948e-01
5.765103e-01
5.785076e-01
5.805401e-01
5.824678e-01
5.840884e-01
5.851808e-01
5.855682e-01
5.851817e-01
5.840897e-01
5.824870e-01
5.806029e-01
5.785985e-01
5.765832e-01
5.745805e-01
0.000000e+00
1.000000e+00
5.738481e-01
5.746104e-01
5.755221e-01
5.764521e-01
5.773343e-01
5.780758e-01
5.785754e-01
5.787519e-01
5.785736e-01
5.780708e-01
5.773369e-01
5.764950e-01
5.756083e-01
5.746819e-01
5.737193e-01
0.000000e+00
1.000000e+00
5.726996e-01
5.722956e-01
5.718897e-01
5.714781e-01
5.710878e-01
5.707600e-01
5.705391e-01
5.704605e-01
5.705381e-01
5.707579e-01
5.711104e-01
5.715400e-01
5.719581e-01
5.723522e-01
5.726218e-01
0.000000e+00
1.000000e+00
5.713637e-01
5.696104e-01
5.676799e-01
5.657136e-01
5.638494e-01
5.622835e-01
5.612298e-01
5.608597e-01
5.612384e-01
5.623002e-01
5.639075e-01
5.657939e-01
5.677650e-01
5.696656e-01
5.713284e-01
0.000000e+00
1.000000e+00
5.699068e-01
5.666425e-01
5.630341e-01
5.593515e-01
5.558599e-01
5.529282e-01
5.509582e-01
5.502701e-01
5.509841e-01
5.529698e-01
5.559414e-01
5.594431e-01
5.631271e-01
5.666994e-01
5.699183e-01
0.000000e+00
1.000000e+00
5.684149e-01
5.635260e-01
5.581646e-01
5.526830e-01
5.474878e-01
5.431285e-01
5.402014e-01
5.391804e-01
5.402417e-01
5.431862e-01
5.475872e-01
5.527910e-01
5.582579e-01
5.635884e-01
5.684354e-01
0.000000e+00
1.000000e+00
5.669549e-01
5.604353e-01
5.533360e-01
5.460726e-01
5.391925e-01
5.334217e-01
5.295468e-01
5.281925e-01
5.295931e-01
5.334866e-01
5.393069e-01
5.462065e-01
5.534289e-01
5.605033e-01
5.669543e-01
0.000000e+00
1.000000e+00
5.656188e-01
5.575569e-01
5.488387e-01
5.399213e-01
5.314767e-01
5.243920e-01
5.196310e-01
5.179621e-01
5.196756e-01
5.244600e-01
5.315999e-01
5.400854e-01
5.489385e-01
5.576393e-01
5.655437e-01
0.000000e+00
1.000000e+00
5.645075e-01
5.550767e-01
5.449551e-01
5.346132e-01
5.248150e-01
5.165902e-01
5.110596e-01
5.091166e-01
5.111035e-01
5.166646e-01
5.249396e-01
5.347978e-01
5.450645e-01
5.551672e-01
5.643357e-01
0.000000e+00
1.000000e+00
5.638153e-01
5.531700e-01
5.419158e-01
5.304502e-01
5.195834e-01
5.104609e-01
5.043255e-01
5.021703e-01
5.043758e-01
5.105480e-01
5.197100e-01
5.306422e-01
5.420319e-01
5.532196e-01
5.634212e-01
0.000000e+00
1.000000e+00
5.635537e-01
5.518880e-01
5.398491e-01
5.276164e-01
5.160243e-01
5.062938e-01
4.997501e-01
4.974529e-01
4.998068e-01
5.063951e-01
5.161584e-01
5.278092e-01
5.399811e-01
5.518951e-01
5.627971e-01
0.000000e+00
1.000000e+00
5.631155e-01
5.512043e-01
5.388049e-01
5.261870e-01
5.142300e-01
5.041930e-01
4.974441e-01
4.950750e-01
4.975035e-01
5.043034e-01
5.143708e-01
5.263624e-01
5.389535e-01
5.512390e-01
5.624882e-01
0.000000e+00
1.000000e+00
5.627487e-01
5.511278e-01
5.387449e-01
5.261081e-01
5.141325e-01
5.040795e-01
4.973197e-01
4.949472e-01
4.973803e-01
5.041945e-01
5.142745e-01
5.262734e-01
5.389040e-01
5.512176e-01
5.624432e-01
0.000000e+00
1.000000e+00
5.628904e-01
5.516294e-01
5.395633e-01
5.272299e-01
5.155434e-01
5.057335e-01
4.991379e-01
4.968238e-01
4.991994e-01
5.058524e-01
5.156811e-01
5.274134e-01
5.397287e-01
5.517374e-01
5.627017e-01
0.000000e+00
1.000000e+00
5.632919e-01
5.526199e-01
5.411163e-01
5.293521e-01
5.182071e-01
5.088533e-01
5.025655e-01
5.003613e-01
5.026290e-01
5.089755e-01
5.183405e-01
5.295503e-01
5.412637e-01
5.527432e-01
5.631963e-01
0.000000e+00
1.000000e+00
5.639100e-01
5.539764e-01
5.432328e-01
5.322462e-01
5.218384e-01
5.131043e-01
5.072343e-01
5.051784e-01
5.072989e-01
5.132280e-01
5.219784e-01
5.324487e-01
5.433495e-01
5.541007e-01
5.636699e-01
0.000000e+00
1.000000e+00
5.763064e-01
5.795457e-01
5.832783e-01
5.870724e-01
5.906708e-01
5.936958e-01
5.957359e-01
5.964614e-01
5.957460e-01
5.937248e-01
5.907388e-01
5.871621e-01
5.833728e-01
5.796292e-01
5.760781e-01
0.000000e+00
1.000000e+00
5.754999e-01
5.779312e-01
5.807387e-01
5.835951e-01
5.863043e-01
5.885819e-01
5.901178e-01
5.906633e-01
5.901222e-01
5.885941e-01
5.863537e-01
5.836884e-01
5.808477e-01
5.780193e-01
5.752578e-01
0.000000e+00
1.000000e+00
5.744742e-01
5.758789e-01
5.775120e-01
5.791771e-01
5.807566e-01
5.820843e-01
5.829794e-01
5.832965e-01
5.829793e-01
5.820820e-01
5.807734e-01
5.792480e-01
5.776314e-01
5.759699e-01
5.743184e-01
0.000000e+00
1.000000e+00
5.732380e-01
5.733977e-01
5.736171e-01
5.738437e-01
5.740588e-01
5.742401e-01
5.743628e-01
5.744060e-01
5.743618e-01
5.742372e-01
5.740787e-01
5.739049e-01
5.737115e-01
5.734734e-01
5.731606e-01
0.000000e+00
1.000000e+00
5.718292e-01
5.705413e-01
5.691393e-01
5.677123e-01
5.663597e-01
5.652239e-01
5.644596e-01
5.641903e-01
5.644650e-01
5.652351e-01
5.664203e-01
5.677987e-01
5.692358e-01
5.706101e-01
5.717798e-01
0.000000e+00
1.000000e+00
5.702844e-01
5.674099e-01
5.642340e-01
5.609953e-01
5.579251e-01
5.553472e-01
5.536142e-01
5.530085e-01
5.536362e-01
5.553845e-01
5.580133e-01
5.610904e-01
5.643427e-01
5.674770e-01
5.702855e-01
0.000000e+00
1.000000e+00
5.687064e-01
5.641479e-01
5.591326e-01
5.540090e-01
5.491526e-01
5.450770e-01
5.423406e-01
5.413862e-01
5.423790e-01
5.451339e-01
5.492584e-01
5.541156e-01
5.592374e-01
5.642131e-01
5.687544e-01
0.000000e+00
1.000000e+00
5.671828e-01
5.609398e-01
5.541203e-01
5.471460e-01
5.405388e-01
5.349967e-01
5.312759e-01
5.299751e-01
5.313208e-01
5.350617e-01
5.406601e-01
5.472727e-01
5.542190e-01
5.610048e-01
5.672325e-01
0.000000e+00
1.000000e+00
5.657937e-01
5.579836e-01
5.495040e-01
5.408303e-01
5.326162e-01
5.257256e-01
5.210958e-01
5.194722e-01
5.211390e-01
5.257943e-01
5.327488e-01
5.409838e-01
5.496033e-01
5.580573e-01
5.657832e-01
0.000000e+00
1.000000e+00
5.646339e-01
5.554689e-01
5.455765e-01
5.354621e-01
5.258804e-01
5.178379e-01
5.124297e-01
5.105299e-01
5.124724e-01
5.179130e-01
5.260161e-01
5.356358e-01
5.456811e-01
5.555551e-01
5.645383e-01
0.000000e+00
1.000000e+00
5.638888e-01
5.535766e-01
5.425725e-01
5.313493e-01
5.207132e-01
5.117841e-01
5.057780e-01
5.036681e-01
5.058267e-01
5.118709e-01
5.208510e-01
5.315306e-01
5.426787e-01
5.536338e-01
5.636251e-01
0.000000e+00
1.000000e+00
5.637515e-01
5.523750e-01
5.406174e-01
5.286686e-01
5.173451e-01
5.078401e-01
5.014480e-01
4.992036e-01
5.015037e-01
5.079410e-01
5.174890e-01
5.288498e-01
5.407306e-01
5.523828e-01
5.630301e-01
0.000000e+00
1.000000e+00
5.634510e-01
5.518130e-01
5.397453e-01
5.274749e-01
5.158462e-01
5.060847e-01
4.995212e-01
4.972173e-01
4.995793e-01
5.061937e-01
5.159913e-01
5.276467e-01
5.398707e-01
5.518288e-01
5.627743e-01
0.000000e+00
1.000000e+00
5.631204e-01
5.518672e-01
5.398967e-01
5.276861e-01
5.161143e-01
5.064002e-01
4.998683e-01
4.975758e-01
4.999272e-01
5.065135e-01
5.162543e-01
5.278640e-01
5.400428e-01
5.519430e-01
5.627785e-01
0.000000e+00
1.000000e+00
5.632828e-01
5.525159e-01
5.409510e-01
5.291292e-01
5.179285e-01
5.085269e-01
5.022061e-01
4.999890e-01
5.022665e-01
5.086449e-01
5.180636e-01
5.293245e-01
5.410961e-01
5.526214e-01
5.631014e-01
0.000000e+00
1.000000e+00
5.637600e-01
5.536602e-01
5.427450e-01
5.315803e-01
5.210042e-01
5.121286e-01
5.061631e-01