<?xml version="1.0"?>
<VTKFile type="StructuredGrid" version="0.1">
  <StructuredGrid WholeExtent="0 16 0 16 0 16">
    <Piece Extent="0 16 0 16 0 16">
      <PointData Scalars="temperature" Vectors="velocity">
        <DataArray type="Float32" Name="temperature" format="ascii">
1.000000e+00
5.733737e-01
5.736922e-01
5.740808e-01
5.744788e-01
5.748564e-01
5.751739e-01
5.753879e-01
5.754631e-01
5.753859e-01
5.751702e-01
5.748581e-01
5.745197e-01
5.741514e-01
5.737615e-01
5.731793e-01
0.000000e+00
1.000000e+00
5.741706e-01
5.753086e-01
5.766150e-01
5.779489e-01
5.792140e-01
5.802775e-01
5.809941e-01
5.812476e-01
5.809935e-01
5.802763e-01
5.792170e-01
5.779896e-01
5.767097e-01
5.753891e-01
5.739675e-01
0.000000e+00
1.000000e+00
5.751009e-01
5.771800e-01
5.795505e-01
5.819684e-01
5.842617e-01
5.861895e-01
5.874889e-01
5.879498e-01
5.874913e-01
5.861949e-01
5.842840e-01
5.820364e-01
5.796599e-01
5.772685e-01
5.748595e-01
0.000000e+00
1.000000e+00
5.761397e-01
5.792644e-01
5.828230e-01
5.864491e-01
5.898883e-01
5.927795e-01
5.947291e-01
5.954219e-01
5.947365e-01
5.927968e-01
5.899407e-01
5.865460e-01
5.829361e-01
5.793609e-01
5.758495e-01
0.000000e+00
1.000000e+00
5.772443e-01
5.814969e-01
5.863289e-01
5.912493e-01
5.959158e-01
5.998389e-01
6.024848e-01
6.034263e-01
6.024997e-01
5.998749e-01
5.960017e-01
5.913674e-01
5.864432e-01
5.816026e-01
5.769104e-01
0.000000e+00
1.000000e+00
5.783912e-01
5.837861e-01
5.899271e-01
5.961758e-01
6.021021e-01
6.070847e-01
6.104461e-01
6.116442e-01
6.104711e-01
6.071447e-01
6.022196e-01
5.963113e-01
5.900434e-01
5.839033e-01
5.779977e-01
0.000000e+00
1.000000e+00
5.795236e-01
5.860209e-01
5.934465e-01
6.009946e-01
6.081533e-01
6.141727e-01
6.182352e-01
6.196858e-01
6.182742e-01
6.142625e-01
6.082983e-01
6.011461e-01
5.935601e-01
5.861662e-01
5.790325e-01
0.000000e+00
1.000000e+00
5.805735e-01
5.880830e-01
5.967011e-01
6.054501e-01
6.137485e-01
6.207274e-01
6.254399e-01
6.271266e-01
6.254981e-01
6.208499e-01
6.139160e-01
6.056179e-01
5.968053e-01
5.883265e-01
5.795829e-01
0.000000e+00
1.000000e+00
5.814924e-01
5.898538e-01
5.995062e-01
6.092903e-01
6.185715e-01
6.263791e-01
6.316543e-01
6.335480e-01
6.317348e-01
6.265320e-01
6.187573e-01
6.094750e-01
5.995960e-01
5.902951e-01
5.797004e-01
0.000000e+00
1.000000e+00
5.822373e-01
5.912257e-01
6.016998e-01
6.122945e-01
6.223465e-01
6.308050e-01
6.365231e-01
6.385812e-01
6.366227e-01
6.309807e-01
6.225481e-01
6.124952e-01
6.017807e-01
5.917896e-01
5.800303e-01
0.000000e+00
1.000000e+00
5.827539e-01
5.921207e-01
6.031627e-01
6.143003e-01
6.248692e-01
6.337641e-01
6.397792e-01
6.419470e-01
6.398898e-01
6.339539e-01
6.250844e-01
6.145121e-01
6.032455e-01
5.926259e-01
5.806455e-01
0.000000e+00
1.000000e+00
5.830291e-01
5.924875e-01
6.038294e-01
6.152184e-01
6.260255e-01
6.351203e-01
6.412706e-01
6.434877e-01
6.413840e-01
6.353143e-01
6.262482e-01
6.154284e-01
6.039254e-01
5.929026e-01
5.812172e-01
0.000000e+00
1.000000e+00
5.830770e-01
5.922980e-01
6.036928e-01
6.150348e-01
6.257952e-01
6.348499e-01
6.409720e-01
6.431775e-01
6.410818e-01
6.350401e-01
6.260229e-01
6.152434e-01
6.038064e-01
5.927082e-01
5.817271e-01
0.000000e+00
1.000000e+00
5.827964e-01
5.916449e-01
6.027967e-01
6.138046e-01
6.242479e-01
6.330366e-01
6.389796e-01
6.411167e-01
6.390787e-01
6.332203e-01
6.244769e-01
6.140091e-01
6.029212e-01
5.921099e-01
5.818513e-01
0.000000e+00
1.000000e+00
5.823513e-01
5.906263e-01
6.012167e-01
6.116391e-01
6.215281e-01
6.298511e-01
6.354806e-01
6.375000e-01
6.355651e-01
6.300299e-01
6.217523e-01
6.118431e-01
6.013489e-01
5.910931e-01
5.812780e-01
0.000000e+00
1.000000e+00
5.816837e-01
5.893117e-01
5.990644e-01
6.086943e-01
6.178310e-01
6.255200e-01
6.307210e-01
6.325872e-01
6.307994e-01
6.256946e-01
6.180474e-01
6.089003e-01
5.992096e-01
5.896994e-01
5.807308e-01
0.000000e+00
1.000000e+00
5.807338e-01
5.878114e-01
5.964758e-01
6.051472e-01
6.133745e-01
6.202976e-01
6.249808e-01
6.266647e-01
6.250599e-01
6.204692e-01
6.135877e-01
6.053623e-01
5.966474e-01
5.880825e-01
5.803779e-01
0.000000e+00
1.000000e+00
5.740460e-01
5.750372e-01
5.761934e-01
5.773716e-01
5.784889e-01
5.794280e-01
5.800609e-01
5.802847e-01
5.800598e-01
5.794256e-01
5.784897e-01
5.774034e-01
5.762690e-01
5.751066e-01
5.738332e-01
0.000000e+00
1.000000e+00
5.748624e-01
5.767090e-01
5.788142e-01
5.809600e-01
5.829951e-01
5.847057e-01
5.858587e-01
5.862675e-01
5.858600e-01
5.847081e-01
5.830111e-01
5.810188e-01
5.789157e-01
5.767932e-01
5.746293e-01
0.000000e+00
1.000000e+00
5.758239e-01
5.786396e-01
5.818429e-01
5.851069e-01
5.882024e-01
5.908046e-01
5.925591e-01
5.931823e-01
5.925646e-01
5.908178e-01
5.882471e-01
5.851942e-01
5.819478e-01
5.787290e-01
5.755482e-01
0.000000e+00
1.000000e+00
5.768998e-01
5.807824e-01
5.852095e-01
5.897166e-01
5.939910e-01
5.975843e-01
6.000076e-01
6.008696e-01
6.000198e-01
5.976147e-01
5.940678e-01
5.898276e-01
5.853193e-01
5.808828e-01
5.765650e-01
0.000000e+00
1.000000e+00
5.780362e-01
5.830671e-01
5.888008e-01
5.946338e-01
6.001656e-01
6.048164e-01
6.079537e-01
6.090713e-01
6.079753e-01
6.048696e-01
6.002741e-01
5.947681e-01
5.889161e-01
5.831790e-01
5.776556e-01
0.000000e+00
1.000000e+00
5.792033e-01
5.853948e-01
5.924624e-01
5.996469e-01
6.064608e-01
6.121900e-01
6.160562e-01
6.174359e-01
6.160910e-01
6.122723e-01
6.065992e-01
5.998066e-01
5.925830e-01
5.855177e-01
5.787581e-01
0.000000e+00
1.000000e+00
5.803519e-01
5.876427e-01
5.960072e-01
6.045003e-01
6.125554e-01
6.193294e-01
6.239028e-01
6.255387e-01
6.239569e-01
6.194464e-01
6.127196e-01
6.046893e-01
5.961309e-01
5.877810e-01
5.798852e-01
0.000000e+00
1.000000e+00
5.814059e-01
5.896805e-01
5.992323e-01
6.089158e-01
6.181007e-01
6.258266e-01
6.310458e-01
6.329187e-01
6.311246e-01
6.259790e-01
6.182850e-01
6.091345e-01
5.993545e-01
5.898610e-01
5.808581e-01
0.000000e+00
1.000000e+00
5.822966e-01
5.913830e-01
6.019400e-01
6.126227e-01
6.227571e-01
6.312846e-01
6.370493e-01
6.391245e-01
6.371523e-01
6.314674e-01
6.229577e-01
6.128678e-01
6.020549e-01
5.917125e-01
5.811149e-01
0.000000e+00
1.000000e+00
5.829883e-01
5.926365e-01
6.039597e-01
6.153897e-01
6.262355e-01
6.353642e-01
6.415386e-01
6.437659e-01
6.416582e-01
6.355688e-01
6.264534e-01
6.156487e-01
6.040771e-01
5.932070e-01
5.809303e-01
0.000000e+00
1.000000e+00
5.834303e-01
5.933615e-01
6.051725e-01
6.170546e-01
6.283310e-01
6.378226e-01
6.442435e-01
6.465611e-01
6.443701e-01
6.380400e-01
6.285684e-01
6.173070e-01
6.052970e-01
5.940148e-01
5.812298e-01
0.000000e+00
1.000000e+00
5.835870e-01
5.935198e-01
6.055224e-01
6.175389e-01
6.289411e-01
6.385374e-01
6.450284e-01
6.473709e-01
6.451554e-01
6.387593e-01
6.291915e-01
6.177712e-01
6.056394e-01
5.941219e-01
5.814211e-01
0.000000e+00
1.000000e+00
5.834630e-01
5.931131e-01
6.050167e-01
6.168472e-01
6.280710e-01
6.375164e-01
6.439042e-01
6.462079e-01
6.440264e-01
6.377336e-01
6.283220e-01
6.170628e-01
6.051304e-01
5.936335e-01
5.817046e-01
0.000000e+00
1.000000e+00
5.830962e-01
5.922187e-01
6.037151e-01
6.150612e-01
6.258257e-01
6.348852e-01
6.410120e-01
6.432182e-01
6.411236e-01
6.350923e-01
6.260722e-01
6.152739e-01
6.038430e-01
5.927092e-01
5.819714e-01
0.000000e+00
1.000000e+00
5.825088e-01
5.909524e-01
6.017144e-01
6.123223e-01
6.223868e-01
6.308575e-01
6.365868e-01
6.386471e-01
6.366888e-01
6.310584e-01
6.226274e-01
6.125410e-01
6.018650e-01
5.914154e-01
5.814650e-01
0.000000e+00
1.000000e+00
5.816185e-01
5.894399e-01
5.991563e-01
6.088197e-01
6.179881e-01
6.257039e-01
6.309227e-01
6.327999e-01
6.310189e-01
6.258957e-01
6.182164e-01
6.090398e-01
5.993294e-01
5.897816e-01
5.808654e-01
0.000000e+00
1.000000e+00
5.805746e-01
5.876640e-01
5.961855e-01
6.047493e-01
6.128748e-01
6.197122e-01
6.243367e-01
6.260023e-01
6.244241e-01
6.198847e-01
6.130805e-01
6.049594e-01
5.963641e-01
5.879283e-01
5.803965e-01
0.000000e+00
1.000000e+00
5.746069e-01
5.761592e-01
5.779562e-01
5.797851e-01
5.815196e-01
5.829775e-01
5.839601e-01
5.843083e-01
5.839604e-01
5.829774e-01
5.815284e-01
5.798298e-01
5.780317e-01
5.762279e-01
5.743694e-01
0.000000e+00
1.000000e+00
5.754483e-01
5.778697e-01
5.806388e-01
5.834581e-01
5.861318e-01
5.883792e-01
5.898943e-01
5.904320e-01
5.898977e-01
5.883867e-01
5.861633e-01
5.835300e-01
5.807250e-01
5.779463e-01
5.751796e-01
0.000000e+00
1.000000e+00
5.764313e-01
5.798416e-01
5.837342e-01
5.876965e-01
5.914542e-01
5.946129e-01
5.967429e-01
5.975004e-01
5.967523e-01
5.946353e-01
5.915159e-01
5.877955e-01
5.838282e-01
5.799283e-01
5.761180e-01
0.000000e+00
1.000000e+00
5.775261e-01
5.820259e-01
5.871676e-01
5.923976e-01
5.973576e-01
6.015274e-01
6.043402e-01
6.053418e-01
6.043577e-01
6.015701e-01
5.974505e-01
5.925217e-01
5.872701e-01
5.821263e-01
5.771587e-01
0.000000e+00
1.000000e+00
5.786869e-01
5.843455e-01
5.908168e-01
5.973940e-01
6.036317e-01
6.088763e-01
6.124152e-01
6.136774e-01
6.124442e-01
6.089463e-01
6.037554e-01
5.975455e-01
5.909278e-01
5.844607e-01
5.782623e-01
0.000000e+00
1.000000e+00
5.798656e-01
5.866946e-01
5.945152e-01
6.024574e-01
6.099899e-01
6.163240e-01
6.205997e-01
6.221279e-01
6.206462e-01
6.164292e-01
6.101420e-01
6.026401e-01
5.946362e-01
5.868247e-01
5.793882e-01
0.000000e+00
1.000000e+00
5.810179e-01
5.889402e-01
5.980604e-01
6.073111e-01
6.160852e-01
6.234648e-01
6.284489e-01
6.302357e-01
6.285205e-01
6.236102e-01
6.162616e-01
6.075284e-01
5.981947e-01
5.890919e-01
5.804630e-01
0.000000e+00
1.000000e+00
5.820682e-01
5.909398e-01
6.012336e-01
6.116561e-01
6.215425e-01
6.298601e-01
6.354819e-01
6.375046e-01
6.355817e-01
6.300434e-01
6.217395e-01
6.119044e-01
6.013847e-01
5.911284e-01
5.814198e-01
0.000000e+00
1.000000e+00
5.829294e-01
5.925618e-01
6.038253e-01
6.152049e-01
6.260016e-01
6.350883e-01
6.412343e-01
6.434520e-01
6.413565e-01
6.352995e-01
6.262191e-01
6.154694e-01
6.039915e-01
5.928480e-01
5.818942e-01
0.000000e+00
1.000000e+00
5.835628e-01
5.936911e-01
6.056585e-01
6.177178e-01
6.291619e-01
6.387958e-01
6.453143e-01
6.476691e-01
6.454470e-01
6.390218e-01
6.294051e-01
6.179728e-01
6.058449e-01
5.942068e-01
5.818505e-01
0.000000e+00
1.000000e+00
5.839118e-01
5.942548e-01
6.066159e-01
6.190341e-01
6.308193e-01
6.407400e-01
6.474523e-01
6.498764e-01
6.475856e-01
6.409709e-01
6.310866e-01
6.192910e-01
6.067959e-01
5.949852e-01
5.817328e-01
0.000000e+00
1.000000e+00
5.839497e-01
5.942265e-01
6.066524e-01
6.190876e-01
6.308867e-01
6.408174e-01
6.475354e-01
6.499594e-01
6.476637e-01
6.410486e-01
6.311707e-01
6.193454e-01
6.067889e-01
5.949504e-01
5.817328e-01
0.000000e+00
1.000000e+00
5.837299e-01
5.935897e-01
6.057857e-01
6.179017e-01
6.293958e-01
6.390689e-01
6.456109e-01
6.479699e-01
6.457348e-01
6.392961e-01
6.296767e-01
6.181397e-01
6.059082e-01
5.942075e-01
5.818771e-01
0.000000e+00
1.000000e+00
5.832297e-01
5.924745e-01
6.040971e-01
6.155865e-01
6.264870e-01
6.356611e-01
6.418657e-01
6.441006e-01
6.419823e-01
6.358813e-01
6.267525e-01
6.158155e-01
6.042358e-01
5.929790e-01
5.819211e-01
0.000000e+00
1.000000e+00
5.824413e-01
5.910388e-01
6.017124e-01
6.123198e-01
6.223841e-01
6.308549e-01
6.365846e-01
6.386467e-01
6.366931e-01
6.310653e-01
6.226323e-01
6.125469e-01
6.018732e-01
5.914169e-01
5.813731e-01
0.000000e+00
1.000000e+00
5.814312e-01
5.892900e-01
5.987897e-01
6.083156e-01
6.173539e-01
6.249599e-01
6.301045e-01
6.319571e-01
6.302037e-01
6.251532e-01
6.175800e-01
6.085341e-01
5.989663e-01
5.895696e-01
5.808831e-01
0.000000e+00
1.000000e+00
5.803053e-01
5.872521e-01
5.954847e-01
6.037876e-01
6.116655e-01
6.182939e-01
6.227764e-01
6.243924e-01
6.228632e-01
6.184617e-01
6.118625e-01
6.039914e-01
5.956614e-01
5.874768e-01
5.801764e-01
0.000000e+00
1.000000e+00
5.750151e-01
5.769792e-01
5.792444e-01
5.815489e-01
5.837343e-01
5.855711e-01
5.868093e-01
5.872484e-01
5.868110e-01
5.855748e-01
5.837547e-01
5.816057e-01
5.793151e-01
5.770441e-01
5.747579e-01
0.000000e+00
1.000000e+00
5.758760e-01
5.787042e-01
5.819517e-01
5.852558e-01
5.883892e-01
5.910230e-01
5.927988e-01
5.934297e-01
5.928047e-01
5.910367e-01
5.884311e-01
5.853336e-01
5.820308e-01
5.787779e-01
5.755770e-01
0.000000e+00
1.000000e+00
5.768714e-01
5.806918e-01
5.850744e-01
5.895317e-01
5.937588e-01
5.973122e-01
5.997089e-01
6.005618e-01
5.997217e-01
5.973424e-01
5.938279e-01
5.896368e-01
5.851642e-01
5.807792e-01
5.765252e-01
0.000000e+00
1.000000e+00
5.779719e-01
5.828924e-01
5.885346e-01
5.942695e-01
5.997083e-01
6.042809e-01
6.073659e-01
6.084654e-01
6.073878e-01
6.043336e-01
5.998075e-01
5.944016e-01
5.886375e-01
5.829962e-01
5.775748e-01
0.000000e+00
1.000000e+00
5.791425e-01
5.852228e-01
5.922026e-01
5.992918e-01
6.060150e-01
6.116681e-01
6.154834e-01
6.168453e-01
6.155189e-01
6.117523e-01
6.061453e-01
5.994513e-01
5.923189e-01
5.853426e-01
5.786862e-01
0.000000e+00
1.000000e+00
5.803200e-01
5.875711e-01
5.959020e-01
6.043562e-01
6.123744e-01
6.191175e-01
6.236704e-01
6.252995e-01
6.237271e-01
6.192421e-01
6.125349e-01
6.045449e-01
5.960359e-01
5.877067e-01
5.798109e-01
0.000000e+00
1.000000e+00
5.814574e-01
5.897974e-01
5.994170e-01
6.091684e-01
6.184176e-01
6.261977e-01
6.314541e-01
6.333415e-01
6.315396e-01
6.263670e-01
6.186057e-01
6.093862e-01
5.995793e-01
5.899517e-01
5.808663e-01
0.000000e+00
1.000000e+00
5.824860e-01
5.917489e-01
6.025154e-01
6.134112e-01
6.237472e-01
6.324442e-01
6.383246e-01
6.404441e-01
6.384393e-01
6.326539e-01
6.239674e-01
6.136333e-01
6.027214e-01
5.919333e-01
5.818459e-01
0.000000e+00
1.000000e+00
5.833108e-01
5.932877e-01
6.049775e-01
6.167833e-01
6.279851e-01
6.374140e-01
6.437934e-01
6.460983e-01
6.439272e-01
6.376496e-01
6.282402e-01
6.169945e-01
6.052111e-01
5.935444e-01
5.824449e-01
0.000000e+00
1.000000e+00
5.838671e-01
5.943044e-01
6.066223e-01
6.190387e-01
6.308221e-01
6.407423e-01
6.474559e-01
6.498824e-01
6.475946e-01
6.409835e-01
6.310965e-01
6.192692e-01
6.068403e-01
5.947643e-01
5.824460e-01
0.000000e+00
1.000000e+00
5.841208e-01
5.947279e-01
6.073361e-01
6.200198e-01
6.320573e-01
6.421909e-01
6.490486e-01
6.515252e-01
6.491815e-01
6.424252e-01
6.323409e-01
6.202892e-01
6.075252e-01
5.955223e-01
5.820716e-01
0.000000e+00
1.000000e+00
5.841092e-01
5.944980e-01
6.070749e-01
6.196677e-01
6.316173e-01
6.416751e-01
6.484802e-01
6.509363e-01
6.486081e-01
6.419036e-01
6.319175e-01
6.199620e-01
6.072438e-01
5.953980e-01
5.817918e-01
0.000000e+00
1.000000e+00
5.838023e-01
5.936648e-01
6.058809e-01
6.180347e-01
6.295656e-01
6.392700e-01
6.458343e-01
6.482035e-01
6.459621e-01
6.394972e-01
6.298631e-01
6.182997e-01
6.060179e-01
5.943703e-01
5.817215e-01
0.000000e+00
1.000000e+00
5.831273e-01
5.924072e-01
6.038595e-01
6.152616e-01
6.260797e-01
6.351848e-01
6.413432e-01
6.435634e-01
6.414651e-01
6.354109e-01
6.263519e-01
6.155003e-01
6.040019e-01
5.928559e-01
5.817013e-01
0.000000e+00
1.000000e+00
5.821673e-01
5.907852e-01
6.011508e-01
6.115486e-01
6.214144e-01
6.297182e-01
6.353349e-01
6.373574e-01
6.354450e-01
6.299292e-01
6.216600e-01
6.117742e-01
6.013095e-01
5.910699e-01
5.811571e-01
0.000000e+00
1.000000e+00
5.810945e-01
5.887948e-01
5.979268e-01
6.071315e-01
6.158649e-01
6.232137e-01
6.281835e-01
6.299734e-01
6.282798e-01
6.234010e-01
6.160832e-01
6.073409e-01
5.981004e-01
5.890243e-01
5.806379e-01
0.000000e+00
1.000000e+00
5.799151e-01
5.865544e-01
5.943554e-01
6.022400e-01
6.097204e-01
6.160134e-01
6.202673e-01
6.218002e-01
6.203479e-01
6.161705e-01
6.099042e-01
6.024304e-01
5.945279e-01
5.867358e-01
5.798830e-01
0.000000e+00
1.000000e+00
5.752354e-01
5.774219e-01
5.799398e-01
5.825011e-01
5.849299e-01
5.869714e-01
5.883476e-01
5.888361e-01
5.883507e-01
5.869784e-01
5.849553e-01
5.825619e-01
5.800099e-01
5.774828e-01
5.749666e-01
0.000000e+00
1.000000e+00
5.760913e-01
5.791311e-01
5.826225e-01
5.861743e-01
5.895425e-01
5.923738e-01
5.942829e-01
5.949615e-01
5.942904e-01
5.923913e-01
5.895863e-01
5.862527e-01
5.827015e-01
5.792021e-01
5.757801e-01
0.000000e+00
1.000000e+00
5.770799e-01
5.811030e-01
5.857207e-01
5.904166e-01
5.948700e-01
5.986138e-01
6.011390e-01
6.020381e-01
6.011536e-01
5.986479e-01
5.949395e-01
5.905215e-01
5.858135e-01
5.811889e-01
5.767219e-01
0.000000e+00
1.000000e+00
5.781729e-01
5.832874e-01
5.891553e-01
5.951194e-01
6.007756e-01
6.055312e-01
6.087398e-01
6.098838e-01
6.087639e-01
6.055890e-01
6.008767e-01
5.952477e-01
5.892633e-01
5.833888e-01
5.777613e-01
0.000000e+00
1.000000e+00
5.793358e-01
5.855977e-01
5.927922e-01
6.000991e-01
6.070289e-01
6.128559e-01
6.167888e-01
6.181933e-01
6.168273e-01
6.129474e-01
6.071644e-01
6.002519e-01
5.929169e-01
5.857160e-01
5.788640e-01
0.000000e+00
1.000000e+00
5.805002e-01
5.879182e-01
5.964476e-01
6.051036e-01
6.133131e-01
6.202173e-01
6.248793e-01
6.265483e-01
6.249401e-01
6.203514e-01
6.134812e-01
6.052848e-01
5.965944e-01
5.880525e-01
5.799741e-01
0.000000e+00
1.000000e+00
5.816065e-01
5.901052e-01
5.998973e-01
6.098261e-01
6.192436e-01
6.271655e-01
6.325181e-01
6.344413e-01
6.326084e-01
6.273457e-01
6.194443e-01
6.100281e-01
6.000788e-01
5.902575e-01
5.810187e-01
0.000000e+00
1.000000e+00
5.825951e-01
5.919995e-01
6.028987e-01
6.139361e-01
6.244065e-01
6.332167e-01
6.391741e-01
6.413221e-01
6.392922e-01
6.334371e-01
6.246488e-01
6.141367e-01
6.031233e-01
5.921766e-01
5.819485e-01
0.000000e+00
1.000000e+00
5.833716e-01
5.934580e-01
6.052243e-01
6.171220e-01
6.284106e-01
6.379123e-01
6.443412e-01
6.466639e-01
6.444752e-01
6.381547e-01
6.286889e-01
6.173223e-01
6.054805e-01
5.936739e-01
5.826539e-01
0.000000e+00
1.000000e+00
5.838660e-01
5.943714e-01
6.066927e-01
6.191344e-01
6.309412e-01
6.408809e-01
6.476084e-01
6.500404e-01
6.477435e-01
6.411200e-01
6.312203e-01
6.193782e-01
6.069185e-01
5.947342e-01
5.829244e-01
0.000000e+00
1.000000e+00
5.840630e-01
5.946524e-01
6.071869e-01
6.198135e-01
6.317980e-01
6.418883e-01
6.487184e-01
6.511873e-01
6.488498e-01
6.421135e-01
6.320812e-01
6.201115e-01
6.073851e-01
5.952794e-01
5.824019e-01
0.000000e+00
1.000000e+00
5.839839e-01
5.942707e-01
6.066775e-01
6.191210e-01
6.309312e-01
6.408734e-01
6.476020e-01
6.500347e-01
6.477350e-01
6.410914e-01
6.312366e-01
6.194404e-01
6.068664e-01
5.950318e-01
5.817713e-01
0.000000e+00
1.000000e+00
5.835665e-01
5.933117e-01
6.052227e-01
6.171306e-01
6.284306e-01
6.379415e-01
6.443758e-01
6.467013e-01
6.445070e-01
6.381631e-01
6.287307e-01
6.174126e-01
6.053696e-01
5.938940e-01
5.816976e-01
0.000000e+00
1.000000e+00
5.827557e-01
5.919173e-01
6.029439e-01
6.140051e-01
6.245002e-01
6.333335e-01
6.393080e-01
6.414629e-01
6.394298e-01
6.335565e-01
6.247658e-01
6.142451e-01
6.030866e-01
5.922938e-01
5.814842e-01
0.000000e+00
1.000000e+00
5.817194e-01
5.901113e-01
5.999946e-01
6.099623e-01
6.194194e-01
6.273785e-01
6.327610e-01
6.346989e-01
6.328667e-01
6.275801e-01
6.196513e-01
6.101782e-01
6.001462e-01
5.903608e-01
5.808618e-01
0.000000e+00
1.000000e+00
5.805944e-01
5.879567e-01
5.965569e-01
6.052535e-01
6.135041e-01
6.204455e-01
6.251378e-01
6.268264e-01
6.252246e-01
6.206181e-01
6.137061e-01
6.054471e-01
5.967199e-01
5.881412e-01
5.802399e-01
0.000000e+00
1.000000e+00
5.793910e-01
5.855849e-01
5.928074e-01
6.001199e-01
6.070569e-01
6.128917e-01
6.168337e-01
6.182514e-01
6.169022e-01
6.130309e-01
6.072225e-01
6.002924e-01
5.929686e-01
5.857367e-01
5.791608e-01
0.000000e+00
1.000000e+00
5.752417e-01
5.774251e-01
5.799449e-01
5.825081e-01
5.849388e-01
5.869817e-01
5.883589e-01
5.888477e-01
5.883619e-01
5.869888e-01
5.849616e-01
5.825658e-01
5.800185e-01
5.774806e-01
5.749624e-01
0.000000e+00
1.000000e+00
5.760587e-01
5.790819e-01
5.825440e-01
5.860667e-01
5.894075e-01
5.922155e-01
5.941089e-01
5.947817e-01
5.941160e-01
5.922323e-01
5.894486e-01
5.861405e-01
5.826276e-01
5.791479e-01
5.757520e-01
0.000000e+00
1.000000e+00
5.770139e-01
5.810006e-01
5.855560e-01
5.901908e-01
5.945863e-01
5.982814e-01
6.007737e-01
6.016610e-01
6.007878e-01
5.983146e-01
5.946553e-01
5.902880e-01
5.856542e-01
5.810792e-01
5.766674e-01
0.000000e+00
1.000000e+00
5.780840e-01
5.831303e-01
5.889031e-01
5.947739e-01
6.003415e-01
6.050226e-01
6.081809e-01
6.093068e-01
6.082040e-01
6.050789e-01
6.004457e-01
5.948909e-01
5.890170e-01
5.832238e-01
5.776813e-01
0.000000e+00
1.000000e+00
5.792179e-01
5.853850e-01
5.924502e-01
5.996308e-01
6.064408e-01
6.121669e-01
6.160316e-01
6.174114e-01
6.160680e-01
6.122557e-01
6.065816e-01
5.997744e-01
5.925796e-01
5.854941e-01
5.787565e-01
0.000000e+00
1.000000e+00
5.803475e-01
5.876475e-01
5.960113e-01
6.045063e-01
6.125630e-01
6.193384e-01
6.239132e-01
6.255503e-01
6.239698e-01
6.194680e-01
6.127382e-01
6.046804e-01
5.961591e-01
5.877707e-01
5.798370e-01
0.000000e+00
1.000000e+00
5.814124e-01
5.897718e-01
5.993580e-01
6.090878e-01
6.183163e-01
6.260789e-01
6.313231e-01
6.332057e-01
6.314060e-01
6.262512e-01
6.185254e-01
6.092931e-01
5.995273e-01
5.899075e-01
5.808523e-01
0.000000e+00
1.000000e+00
5.823536e-01
5.915970e-01
6.022426e-01
6.130380e-01
6.232784e-01
6.318943e-01
6.377189e-01
6.398165e-01
6.378266e-01
6.321009e-01
6.235157e-01
6.132760e-01
6.024432e-01
5.917472e-01
5.817283e-01
0.000000e+00
1.000000e+00
5.830901e-01
5.929759e-01
6.044342e-01
6.160401e-01
6.270508e-01
6.363174e-01
6.425860e-01
6.448493e-01
6.427084e-01
6.365419e-01
6.273127e-01
6.162902e-01
6.046745e-01
5.931431e-01
5.823999e-01
0.000000e+00
1.000000e+00
5.835369e-01
5.937943e-01
6.057501e-01
6.178410e-01
6.293140e-01
6.389727e-01
6.455107e-01
6.478761e-01
6.456406e-01
6.391956e-01
6.295894e-01
6.181118e-01
6.059906e-01
5.939863e-01
5.825962e-01
0.000000e+00
1.000000e+00
5.836924e-01
5.939702e-01
6.060765e-01
6.182884e-01
6.298789e-01
6.396383e-01
6.462458e-01
6.486391e-01
6.463825e-01
6.398485e-01
6.301658e-01
6.186125e-01
6.062898e-01
5.942978e-01
5.820930e-01
0.000000e+00
1.000000e+00
5.835337e-01
5.935003e-01
6.053930e-01
6.173559e-01
6.287106e-01
6.382704e-01
6.447412e-01
6.470844e-01
6.448781e-01
6.384768e-01
6.290099e-01
6.176799e-01
6.055649e-01
5.939809e-01
5.818213e-01
0.000000e+00
1.000000e+00
5.830244e-01
5.924600e-01
6.037671e-01
6.151310e-01
6.259155e-01
6.349931e-01
6.411343e-01
6.433550e-01
6.412633e-01
6.352059e-01
6.262004e-01
6.154068e-01
6.039120e-01
5.928502e-01
5.817115e-01
0.000000e+00
1.000000e+00
5.821713e-01
5.909495e-01
6.013291e-01
6.117907e-01
6.217166e-01
6.300694e-01
6.357173e-01
6.377537e-01
6.358319e-01
6.302780e-01
6.219616e-01
6.120188e-01
6.014677e-01
5.912422e-01
5.811003e-01
0.000000e+00
1.000000e+00
5.811071e-01
5.890314e-01
5.982448e-01
6.075650e-01
6.164067e-01
6.238460e-01
6.288745e-01
6.306828e-01
6.289681e-01
6.240276e-01
6.166161e-01
6.077620e-01
5.983879e-01
5.892467e-01
5.803340e-01
0.000000e+00
1.000000e+00
5.799538e-01
5.867966e-01
5.947025e-01
6.027136e-01
6.103130e-01
6.167052e-01
6.210239e-01
6.225750e-01
6.210953e-01
6.168547e-01
6.104925e-01
6.028850e-01
5.948535e-01
5.869565e-01
5.796145e-01
0.000000e+00
1.000000e+00
5.787493e-01
5.843705e-01
5.908817e-01
5.974830e-01
6.037449e-01
6.090111e-01
6.125672e-01
6.138425e-01
6.126200e-01
6.091261e-01
6.038888e-01
5.976337e-01
5.910279e-01
5.845047e-01
5.783504e-01
0.000000e+00
1.000000e+00
5.750079e-01
5.769506e-01
5.791984e-01
5.814860e-01
5.836553e-01
5.854786e-01
5.867075e-01
5.871433e-01
5.867090e-01
5.854819e-01
5.836680e-01
5.815364e-01
5.792784e-01
5.770051e-01
5.747582e-01
0.000000e+00
1.000000e+00
5.757792e-01
5.785131e-01
5.816496e-01
5.848422e-01
5.878698e-01
5.904146e-01
5.921303e-01
5.927395e-01
5.921351e-01
5.904262e-01
5.879035e-01
5.849143e-01
5.817386e-01
5.785765e-01
5.754831e-01
0.000000e+00
1.000000e+00
5.766797e-01
5.803352e-01
5.845084e-01
5.887566e-01
5.927853e-01
5.961719e-01
5.984558e-01
5.992683e-01
5.984671e-01
5.961988e-01
5.928527e-01
5.888511e-01
5.846133e-01
5.804106e-01
5.763509e-01
0.000000e+00
1.000000e+00
5.776931e-01
5.823692e-01
5.877019e-01
5.931291e-01
5.982761e-01
6.026033e-01
6.055224e-01
6.065625e-01
6.055417e-01
6.026505e-01
5.983807e-01
5.932431e-01
5.878215e-01
5.824583e-01
5.773170e-01
0.000000e+00
1.000000e+00
5.787692e-01
5.845305e-01
5.910980e-01
5.977791e-01
6.041154e-01
6.094430e-01
6.130382e-01
6.143210e-01
6.130682e-01
6.095177e-01
6.042562e-01
5.979229e-01
5.912292e-01
5.846326e-01
5.783453e-01
0.000000e+00
1.000000e+00
5.798506e-01
5.867017e-01
5.945128e-01
6.024546e-01
6.099867e-01
6.163206e-01
6.205963e-01
6.221248e-01
6.206421e-01
6.164299e-01
6.101624e-01
6.026325e-01
5.946539e-01
5.868167e-01
5.793812e-01
0.000000e+00
1.000000e+00
5.808727e-01
5.887388e-01
5.977201e-01
6.068458e-01
6.155013e-01
6.227811e-01
6.276978e-01
6.294596e-01
6.277640e-01
6.229263e-01
6.157062e-01
6.070646e-01
5.978712e-01
5.888651e-01
5.803524e-01
0.000000e+00
1.000000e+00
5.817689e-01
5.904841e-01
6.004738e-01
6.106167e-01
6.202377e-01
6.283312e-01
6.338007e-01
6.357668e-01
6.338886e-01
6.285055e-01
6.204615e-01
6.108811e-01
6.006440e-01
5.906210e-01
5.811893e-01
0.000000e+00
1.000000e+00
5.824542e-01
5.917933e-01
6.025458e-01
6.134526e-01
6.237987e-01
6.325042e-01
6.383913e-01
6.405155e-01
6.384991e-01
6.326965e-01
6.240418e-01
6.137364e-01
6.027468e-01
5.919418e-01
5.818224e-01
0.000000e+00
1.000000e+00
5.828784e-01
5.925409e-01
6.037488e-01
6.150985e-01
6.258659e-01
6.349284e-01
6.410609e-01
6.432804e-01
6.411874e-01
6.351270e-01
6.261341e-01
6.153877e-01
6.039577e-01
5.927020e-01
5.822150e-01
0.000000e+00
1.000000e+00
5.829988e-01
5.926628e-01
6.039764e-01
6.154102e-01
6.262591e-01
6.353919e-01
6.415735e-01
6.438136e-01
6.417090e-01
6.355866e-01
6.265387e-01
6.157208e-01
6.041546e-01
5.928682e-01
5.821672e-01
0.000000e+00
1.000000e+00
5.827822e-01
5.921593e-01
6.032118e-01
6.143648e-01
6.249483e-01
6.338572e-01
6.398857e-01
6.420686e-01
6.400161e-01
6.340519e-01
6.252241e-01
6.146598e-01
6.033599e-01
5.924114e-01
5.817723e-01
0.000000e+00
1.000000e+00
5.822309e-01
5.910871e-01
6.015241e-01
6.120553e-01
6.220478e-01
6.304573e-01
6.361445e-01
6.381988e-01
6.362621e-01
6.306535e-01
6.223003e-01
6.123041e-01
6.016612e-01
5.913348e-01
5.813227e-01
0.000000e+00
1.000000e+00
5.813920e-01
5.895327e-01
5.990464e-01
6.086629e-01
6.177863e-01
6.254621e-01
6.306495e-01
6.325165e-01
6.307483e-01
6.256459e-01
6.180015e-01
6.088686e-01
5.991775e-01
5.897508e-01
5.805543e-01
0.000000e+00
1.000000e+00
5.803525e-01
5.875889e-01
5.959512e-01
6.044239e-01
6.124613e-01
6.192224e-01
6.237897e-01
6.254285e-01
6.238648e-01
6.193765e-01
6.126445e-01
6.045977e-01
5.960844e-01
5.877695e-01
5.796796e-01
0.000000e+00
1.000000e+00
5.792147e-01
5.853578e-01
5.924267e-01
5.995981e-01
6.064003e-01
6.121207e-01
6.159836e-01
6.173676e-01
6.160375e-01
6.122421e-01
6.065538e-01
5.997459e-01
5.925629e-01
5.855033e-01
5.788058e-01
0.000000e+00
1.000000e+00
5.780263e-01
5.829578e-01
5.886515e-01
5.944295e-01
5.999100e-01
6.045186e-01
6.076294e-01
6.087420e-01
6.076672e-01
6.046069e-01
6.000309e-01
5.945586e-01
5.887799e-01
5.830801e-01
5.776121e-01
0.000000e+00
1.000000e+00
5.745269e-01
5.759898e-01
5.776876e-01
5.794174e-01
5.810579e-01
5.824367e-01
5.833660e-01
5.836950e-01
5.833657e-01
5.824357e-01
5.810568e-01
5.794498e-01
5.777695e-01
5.760495e-01
5.743364e-01
0.000000e+00
1.000000e+00
5.752393e-01
5.774185e-01
5.799289e-01
5.824863e-01
5.849117e-01
5.869504e-01
5.883247e-01
5.888122e-01
5.883268e-01
5.869542e-01
5.849268e-01
5.825545e-01
5.800274e-01
5.774891e-01
5.749457e-01
0.000000e+00
1.000000e+00
5.760669e-01
5.791025e-01
5.825705e-01
5.861032e-01
5.894535e-01
5.922699e-01
5.941690e-01
5.948439e-01
5.941760e-01
5.922858e-01
5.895049e-01
5.862046e-01
5.826850e-01
5.791841e-01
5.757468e-01
0.000000e+00
1.000000e+00
5.769997e-01
5.810000e-01
5.855473e-01
5.901791e-01
5.945718e-01
5.982647e-01
6.007555e-01
6.016422e-01
6.007693e-01
5.982964e-01
5.946618e-01
5.903008e-01
5.856752e-01
5.810943e-01
5.766521e-01
0.000000e+00
1.000000e+00
5.780069e-01
5.830299e-01
5.887348e-01
5.945435e-01
6.000525e-01
6.046842e-01
6.078093e-01
6.089232e-01
6.078315e-01
6.047363e-01
6.001797e-01
5.946944e-01
5.888707e-01
5.831356e-01
5.776215e-01
0.000000e+00
1.000000e+00
5.790379e-01
5.850787e-01
5.919569e-01
5.989556e-01
6.055934e-01
6.111748e-01
6.149419e-01
6.162867e-01
6.149751e-01
6.112528e-01
6.057563e-01
5.991405e-01
5.920983e-01
5.851962e-01
5.786012e-01
0.000000e+00
1.000000e+00
5.800077e-01
5.870095e-01
5.949961e-01
6.031171e-01
6.108197e-01
6.172975e-01
6.216711e-01
6.232358e-01
6.217190e-01
6.174042e-01
6.110129e-01
6.033368e-01
5.951423e-01
5.871369e-01
5.795237e-01
0.000000e+00
1.000000e+00
5.808452e-01
5.886758e-01
5.976169e-01
6.067046e-01
6.153241e-01
6.225735e-01
6.274699e-01
6.292262e-01
6.275359e-01
6.227052e-01
6.155358e-01
6.069570e-01
5.977679e-01
5.888062e-01
5.803175e-01
0.000000e+00
1.000000e+00
5.814943e-01
5.899245e-01
5.995892e-01
6.094038e-01
6.187125e-01
6.265425e-01
6.318336e-01
6.337379e-01
6.319234e-01
6.266969e-01
6.189412e-01
6.096766e-01
5.997535e-01
5.900627e-01
5.809130e-01
0.000000e+00
1.000000e+00
5.818922e-01
5.906416e-01
6.007339e-01
6.109699e-01
6.206787e-01
6.288465e-01
6.343686e-01
6.363616e-01
6.344778e-01
6.290161e-01
6.209276e-01
6.112359e-01
6.009044e-01
5.907844e-01
5.812720e-01
0.000000e+00
1.000000e+00
5.819881e-01
5.907628e-01
6.009445e-01
6.112580e-01
6.210410e-01
6.292726e-01
6.348392e-01
6.368509e-01
6.349549e-01
6.294477e-01
6.212916e-01
6.115191e-01
6.010965e-01
5.909203e-01
5.813381e-01
0.000000e+00
1.000000e+00
5.817561e-01
5.902826e-01
6.002032e-01
6.102434e-01
6.197681e-01
6.277824e-01
6.332013e-01
6.351578e-01
6.333112e-01
6.279570e-01
6.200040e-01
6.104929e-01
6.003378e-01
5.904570e-01
5.810551e-01
0.000000e+00
1.000000e+00
5.812249e-01
5.892453e-01
5.985744e-01
6.080145e-01
6.169699e-01
6.245042e-01
6.295961e-01
6.314297e-01
6.296924e-01
6.246739e-01
6.171805e-01
6.082275e-01
5.986998e-01
5.894207e-01
5.805355e-01
0.000000e+00
1.000000e+00
5.804474e-01
5.877348e-01
5.961877e-01
6.047480e-01
6.128683e-01
6.196986e-01
6.243123e-01
6.259678e-01
6.243886e-01
6.198497e-01
6.130488e-01
6.049254e-01
5.963085e-01
5.879024e-01
5.797929e-01
0.000000e+00
1.000000e+00
5.794739e-01
5.858563e-01
5.932134e-01
6.006756e-01
6.077538e-01
6.137067e-01
6.177261e-01
6.191648e-01
6.177807e-01
6.138289e-01
6.079093e-01
6.008232e-01
5.933351e-01
5.860048e-01
5.789212e-01
0.000000e+00
1.000000e+00
5.783878e-01
5.837129e-01
5.898331e-01
5.960474e-01
6.019414e-01
6.068974e-01
6.102425e-01