<?xml version="1.0"?>
<VTKFile type="StructuredGrid" version="0.1">
  <StructuredGrid WholeExtent="0 16 0 16 0 16">
    <Piece Extent="0 16 0 16 0 16">
      <PointData Scalars="temperature" Vectors="velocity">
        <DataArray type="Float32" Name="temperature" format="ascii">
1.000000e+00
5.726599e-01
5.722940e-01
5.718838e-01
5.714704e-01
5.710785e-01
5.707495e-01
5.705277e-01
5.704485e-01
5.705254e-01
5.707464e-01
5.710832e-01
5.715427e-01
5.719522e-01
5.726513e-01
5.711991e-01
0.000000e+00
1.000000e+00
5.734425e-01
5.738703e-01
5.743551e-01
5.748542e-01
5.753275e-01
5.757253e-01
5.759930e-01
5.760862e-01
5.759881e-01
5.757162e-01
5.753183e-01
5.749022e-01
5.744254e-01
5.741539e-01
5.722685e-01
0.000000e+00
1.000000e+00
5.743535e-01
5.757276e-01
5.772673e-01
5.788418e-01
5.803347e-01
5.815890e-01
5.824336e-01
5.827308e-01
5.824283e-01
5.815806e-01
5.803283e-01
5.788714e-01
5.773504e-01
5.760285e-01
5.727562e-01
0.000000e+00
1.000000e+00
5.753883e-01
5.778303e-01
5.805643e-01
5.833564e-01
5.860041e-01
5.882289e-01
5.897274e-01
5.902567e-01
5.897249e-01
5.882290e-01
5.860143e-01
5.834003e-01
5.806532e-01
5.781531e-01
5.736695e-01
0.000000e+00
1.000000e+00
5.765237e-01
5.801151e-01
5.841492e-01
5.882647e-01
5.921678e-01
5.954484e-01
5.976592e-01
5.984426e-01
5.976627e-01
5.954616e-01
5.921990e-01
5.883299e-01
5.842361e-01
5.803849e-01
5.749727e-01
0.000000e+00
1.000000e+00
5.777125e-01
5.824949e-01
5.878868e-01
5.933820e-01
5.985933e-01
6.029737e-01
6.059271e-01
6.069761e-01
6.059383e-01
6.030014e-01
5.986457e-01
5.934666e-01
5.879757e-01
5.827113e-01
5.762185e-01
0.000000e+00
1.000000e+00
5.789086e-01
5.848612e-01
5.916083e-01
5.984776e-01
6.049920e-01
6.104683e-01
6.141615e-01
6.154757e-01
6.141817e-01
6.105119e-01
6.050705e-01
5.985844e-01
5.917003e-01
5.850098e-01
5.778572e-01
0.000000e+00
1.000000e+00
5.800463e-01
5.870930e-01
5.951251e-01
6.032928e-01
6.110388e-01
6.175514e-01
6.219455e-01
6.235124e-01
6.219782e-01
6.176191e-01
6.111549e-01
6.034300e-01
5.952271e-01
5.872268e-01
5.792089e-01
0.000000e+00
1.000000e+00
5.810561e-01
5.890705e-01
5.982473e-01
6.075672e-01
6.164064e-01
6.238396e-01
6.288578e-01
6.306523e-01
6.289089e-01
6.239430e-01
6.165675e-01
6.077377e-01
5.983641e-01
5.892037e-01
5.803741e-01
0.000000e+00
1.000000e+00
5.818793e-01
5.906873e-01
6.008036e-01
6.110661e-01
6.208005e-01
6.289888e-01
6.345202e-01
6.365041e-01
6.345929e-01
6.291320e-01
6.210023e-01
6.112686e-01
6.009432e-01
5.908353e-01
5.813028e-01
0.000000e+00
1.000000e+00
5.825015e-01
5.918535e-01
6.026587e-01
6.136063e-01
6.239923e-01
6.327307e-01
6.386367e-01
6.407600e-01
6.387285e-01
6.329073e-01
6.242262e-01
6.138355e-01
6.028274e-01
5.920217e-01
5.818571e-01
0.000000e+00
1.000000e+00
5.828934e-01
5.925151e-01
6.037309e-01
6.150766e-01
6.258413e-01
6.348996e-01
6.410236e-01
6.432278e-01
6.411265e-01
6.350961e-01
6.260974e-01
6.153224e-01
6.039134e-01
5.927058e-01
5.821415e-01
0.000000e+00
1.000000e+00
5.829889e-01
5.926751e-01
6.039999e-01
6.154450e-01
6.263038e-01
6.354415e-01
6.416212e-01
6.438476e-01
6.417270e-01
6.356456e-01
6.265748e-01
6.156994e-01
6.041720e-01
5.928789e-01
5.822161e-01
0.000000e+00
1.000000e+00
5.828276e-01
5.923515e-01
6.034889e-01
6.147438e-01
6.254240e-01
6.344129e-01
6.404940e-01
6.426871e-01
6.405973e-01
6.346169e-01
6.257029e-01
6.149961e-01
6.036382e-01
5.925560e-01
5.820984e-01
0.000000e+00
1.000000e+00
5.825039e-01
5.915460e-01
6.022694e-01
6.130783e-01
6.233350e-01
6.319669e-01
6.378052e-01
6.399110e-01
6.379041e-01
6.321599e-01
6.236073e-01
6.133192e-01
6.024133e-01
5.917758e-01
5.817330e-01
0.000000e+00
1.000000e+00
5.819051e-01
5.903870e-01
6.004540e-01
6.105931e-01
6.202141e-01
6.283101e-01
6.337846e-01
6.357576e-01
6.338784e-01
6.284891e-01
6.204722e-01
6.108190e-01
6.005975e-01
5.906077e-01
5.812396e-01
0.000000e+00
1.000000e+00
5.811085e-01
5.889484e-01
5.981603e-01
6.074511e-01
6.162668e-01
6.236843e-01
6.286986e-01
6.305040e-01
6.287839e-01
6.238515e-01
6.165070e-01
6.076626e-01
5.983116e-01
5.891346e-01
5.805429e-01
0.000000e+00
1.000000e+00
5.733569e-01
5.737046e-01
5.740960e-01
5.744994e-01
5.748818e-01
5.752032e-01
5.754193e-01
5.754945e-01
5.754150e-01
5.751952e-01
5.748746e-01
5.745410e-01
5.741525e-01
5.739962e-01
5.716090e-01
0.000000e+00
1.000000e+00
5.741606e-01
5.753246e-01
5.766369e-01
5.779784e-01
5.792505e-01
5.803192e-01
5.810387e-01
5.812920e-01
5.810341e-01
5.803114e-01
5.792433e-01
5.780050e-01
5.767093e-01
5.754581e-01
5.737068e-01
0.000000e+00
1.000000e+00
5.750991e-01
5.772306e-01
5.796262e-01
5.820716e-01
5.843906e-01
5.863391e-01
5.876514e-01
5.881151e-01
5.876489e-01
5.863376e-01
5.843957e-01
5.821061e-01
5.797116e-01
5.773840e-01
5.743588e-01
0.000000e+00
1.000000e+00
5.761638e-01
5.793836e-01
5.830034e-01
5.866957e-01
5.901972e-01
5.931400e-01
5.951229e-01
5.958253e-01
5.951249e-01
5.931492e-01
5.902207e-01
5.867512e-01
5.830888e-01
5.795162e-01
5.755084e-01
0.000000e+00
1.000000e+00
5.773271e-01
5.817151e-01
5.866639e-01
5.917076e-01
5.964904e-01
6.005105e-01
6.032206e-01
6.041827e-01
6.032292e-01
6.005325e-01
5.965325e-01
5.917834e-01
5.867544e-01
5.818358e-01
5.768702e-01
0.000000e+00
1.000000e+00
5.785441e-01
5.841298e-01
5.904602e-01
5.969054e-01
6.030175e-01
6.081552e-01
6.116197e-01
6.128517e-01
6.116363e-01
6.081914e-01
6.030816e-01
5.970056e-01
5.905566e-01
5.842513e-01
5.779252e-01
0.000000e+00
1.000000e+00
5.797539e-01
5.865097e-01
5.942083e-01
6.020373e-01
6.094619e-01
6.157037e-01
6.199144e-01
6.214147e-01
6.199421e-01
6.157606e-01
6.095591e-01
6.021697e-01
5.943141e-01
5.866278e-01
5.792491e-01
0.000000e+00
1.000000e+00
5.808850e-01
5.887248e-01
5.977037e-01
6.068227e-01
6.154711e-01
6.227433e-01
6.276518e-01
6.294054e-01
6.276969e-01
6.228338e-01
6.156140e-01
6.069922e-01
5.978275e-01
5.888631e-01
5.803749e-01
0.000000e+00
1.000000e+00
5.818718e-01
5.906451e-01
6.007417e-01
6.109813e-01
6.206933e-01
6.288623e-01
6.343802e-01
6.363583e-01
6.344500e-01
6.289981e-01
6.208858e-01
6.111855e-01
6.008926e-01
5.908030e-01
5.812960e-01
0.000000e+00
1.000000e+00
5.826655e-01
5.921543e-01
6.031404e-01
6.142647e-01
6.248182e-01
6.336981e-01
6.397007e-01
6.418600e-01
6.397967e-01
6.338789e-01
6.250545e-01
6.144959e-01
6.033309e-01
5.923346e-01
5.820059e-01
0.000000e+00
1.000000e+00
5.832489e-01
5.931563e-01
6.047617e-01
6.164874e-01
6.276140e-01
6.369785e-01
6.433118e-01
6.455950e-01
6.434270e-01
6.371916e-01
6.278842e-01
6.167483e-01
6.049825e-01
5.933731e-01
5.824889e-01
0.000000e+00
1.000000e+00
5.835779e-01
5.936014e-01
6.055326e-01
6.175486e-01
6.289514e-01
6.385490e-01
6.450410e-01
6.473831e-01
6.451645e-01
6.387777e-01
6.292460e-01
6.178388e-01
6.057501e-01
5.938739e-01
5.826981e-01
0.000000e+00
1.000000e+00
5.835967e-01
5.935074e-01
6.054470e-01
6.174339e-01
6.288082e-01
6.383819e-01
6.448592e-01
6.471957e-01
6.449810e-01
6.386144e-01
6.291181e-01
6.177371e-01
6.056449e-01
5.938159e-01
5.826711e-01
0.000000e+00
1.000000e+00
5.833490e-01
5.929124e-01
6.045479e-01
6.162039e-01
6.272640e-01
6.365730e-01
6.428715e-01
6.451444e-01
6.429856e-01
6.367996e-01
6.275758e-01
6.164985e-01
6.047261e-01
5.932338e-01
5.825021e-01
0.000000e+00
1.000000e+00
5.828466e-01
5.918855e-01
6.029306e-01
6.139901e-01
6.244830e-01
6.333132e-01
6.392862e-01
6.414421e-01
6.393931e-01
6.335261e-01
6.247794e-01
6.142577e-01
6.031010e-01
5.922013e-01
5.820241e-01
0.000000e+00
1.000000e+00
5.820280e-01
5.905444e-01
6.007226e-01
6.109624e-01
6.206776e-01
6.288522e-01
6.343797e-01
6.363724e-01
6.344782e-01
6.290458e-01
6.209471e-01
6.112003e-01
6.008898e-01
5.907883e-01
5.813728e-01
0.000000e+00
1.000000e+00
5.810761e-01
5.888973e-01
5.980540e-01
6.073053e-01
6.160824e-01
6.234667e-01
6.284574e-01
6.302536e-01
6.285443e-01
6.236361e-01
6.163146e-01
6.075118e-01
5.982084e-01
5.890938e-01
5.808412e-01
0.000000e+00
1.000000e+00
5.739575e-01
5.749167e-01
5.759980e-01
5.771036e-01
5.781519e-01
5.790326e-01
5.796255e-01
5.798342e-01
5.796216e-01
5.790258e-01
5.781456e-01
5.771234e-01
5.760477e-01
5.751213e-01
5.724248e-01
0.000000e+00
1.000000e+00
5.747699e-01
5.765644e-01
5.785826e-01
5.806427e-01
5.825960e-01
5.842372e-01
5.853427e-01
5.857333e-01
5.853404e-01
5.842347e-01
5.825968e-01
5.806664e-01
5.786488e-01
5.766513e-01
5.744510e-01
0.000000e+00
1.000000e+00
5.757262e-01
5.785014e-01
5.816208e-01
5.848025e-01
5.878196e-01
5.903552e-01
5.920636e-01
5.926687e-01
5.920647e-01
5.903608e-01
5.878342e-01
5.848467e-01
5.816997e-01
5.786193e-01
5.751415e-01
0.000000e+00
1.000000e+00
5.768185e-01
5.806851e-01
5.850485e-01
5.894957e-01
5.937129e-01
5.972572e-01
5.996463e-01
6.004942e-01
5.996529e-01
5.972736e-01
5.937438e-01
5.895624e-01
5.851341e-01
5.807872e-01
5.762770e-01
0.000000e+00
1.000000e+00
5.780024e-01
5.830429e-01
5.887542e-01
5.945695e-01
6.000841e-01
6.047193e-01
6.078446e-01
6.089555e-01
6.078580e-01
6.047479e-01
6.001332e-01
5.946612e-01
5.888508e-01
5.831537e-01
5.775710e-01
0.000000e+00
1.000000e+00
5.792272e-01
5.854736e-01
5.925789e-01
5.998062e-01
6.066600e-01
6.124215e-01
6.163077e-01
6.176913e-01
6.163302e-01
6.124668e-01
6.067372e-01
5.999292e-01
5.926858e-01
5.855960e-01
5.786802e-01
0.000000e+00
1.000000e+00
5.804336e-01
5.878502e-01
5.963250e-01
6.049349e-01
6.131001e-01
6.199654e-01
6.245982e-01
6.262514e-01
6.246352e-01
6.200397e-01
6.132201e-01
6.050951e-01
5.964479e-01
5.879830e-01
5.799268e-01
0.000000e+00
1.000000e+00
5.815572e-01
5.900309e-01
5.997724e-01
6.096543e-01
6.190265e-01
6.269087e-01
6.322312e-01
6.341369e-01
6.322917e-01
6.270276e-01
6.191985e-01
6.098491e-01
5.999276e-01
5.901865e-01
5.809837e-01
0.000000e+00
1.000000e+00
5.825246e-01
5.918764e-01
6.027032e-01
6.136661e-01
6.240652e-01
6.328144e-01
6.387274e-01
6.408529e-01
6.388176e-01
6.329849e-01
6.242900e-01
6.138941e-01
6.028935e-01
5.920583e-01
5.818605e-01
0.000000e+00
1.000000e+00
5.832843e-01
5.932620e-01
6.049268e-01
6.167114e-01
6.278932e-01
6.373045e-01
6.436697e-01
6.459651e-01
6.437863e-01
6.375176e-01
6.281654e-01
6.169856e-01
6.051284e-01
5.934860e-01
5.825261e-01
0.000000e+00
1.000000e+00
5.838164e-01
5.940864e-01
6.063062e-01
6.186062e-01
6.302794e-01
6.401054e-01
6.467530e-01
6.491537e-01
6.468843e-01
6.403423e-01
6.305808e-01
6.189095e-01
6.065196e-01
5.943825e-01
5.829343e-01
0.000000e+00
1.000000e+00
5.840725e-01
5.943011e-01
6.067789e-01
6.192614e-01
6.311062e-01
6.410755e-01
6.478199e-01
6.502551e-01
6.479532e-01
6.413193e-01
6.314237e-01
6.195795e-01
6.070111e-01
5.946866e-01
5.830793e-01
0.000000e+00
1.000000e+00
5.839807e-01
5.939463e-01
6.063533e-01
6.186794e-01
6.303735e-01
6.402156e-01
6.468744e-01
6.492764e-01
6.470001e-01
6.404566e-01
6.307019e-01
6.190089e-01
6.065783e-01
5.944012e-01
5.830133e-01
0.000000e+00
1.000000e+00
5.836187e-01
5.931114e-01
6.050864e-01
6.169434e-01
6.281922e-01
6.376594e-01
6.440647e-01
6.463754e-01
6.441787e-01
6.378909e-01
6.285206e-01
6.172606e-01
6.052932e-01
5.935850e-01
5.827685e-01
0.000000e+00
1.000000e+00
5.829309e-01
5.919251e-01
6.030932e-01
6.142132e-01
6.247624e-01
6.336401e-01
6.396450e-01
6.418117e-01
6.397504e-01
6.338547e-01
6.250727e-01
6.144985e-01
6.032785e-01
5.923151e-01
5.821478e-01
0.000000e+00
1.000000e+00
5.819544e-01
5.904188e-01
6.005216e-01
6.106874e-01
6.203321e-01
6.284475e-01
6.339347e-01
6.359121e-01
6.340313e-01
6.286385e-01
6.206086e-01
6.109345e-01
6.006956e-01
5.906910e-01
5.814626e-01
0.000000e+00
1.000000e+00
5.808962e-01
5.885685e-01
5.975194e-01
6.065736e-01
6.151637e-01
6.223905e-01
6.272744e-01
6.290312e-01
6.273587e-01
6.225544e-01
6.153964e-01
6.067835e-01
5.976821e-01
5.887912e-01
5.808316e-01
0.000000e+00
1.000000e+00
5.744210e-01
5.758497e-01
5.774635e-01
5.791103e-01
5.806717e-01
5.819836e-01
5.828673e-01
5.831794e-01
5.828651e-01
5.819804e-01
5.806700e-01
5.791261e-01
5.775120e-01
5.759760e-01
5.733458e-01
0.000000e+00
1.000000e+00
5.752347e-01
5.775010e-01
5.800539e-01
5.826572e-01
5.851256e-01
5.871999e-01
5.885976e-01
5.890924e-01
5.885977e-01
5.872022e-01
5.851330e-01
5.826883e-01
5.801154e-01
5.775541e-01
5.751230e-01
0.000000e+00
1.000000e+00
5.761950e-01
5.794427e-01
5.831003e-01
5.868281e-01
5.903630e-01
5.933338e-01
5.953361e-01
5.960463e-01
5.953403e-01
5.933446e-01
5.903827e-01
5.868806e-01
5.831767e-01
5.795443e-01
5.757491e-01
0.000000e+00
1.000000e+00
5.772870e-01
5.816313e-01
5.865366e-01
5.915330e-01
5.962709e-01
6.002531e-01
6.029379e-01
6.038918e-01
6.029479e-01
6.002740e-01
5.963054e-01
5.916092e-01
5.866244e-01
5.817243e-01
5.768149e-01
0.000000e+00
1.000000e+00
5.784728e-01
5.839908e-01
5.902452e-01
5.966107e-01
6.026470e-01
6.077211e-01
6.111431e-01
6.123606e-01
6.111602e-01
6.077550e-01
6.027044e-01
5.967167e-01
5.903442e-01
5.840975e-01
5.780485e-01
0.000000e+00
1.000000e+00
5.796975e-01
5.864130e-01
5.940583e-01
6.018313e-01
6.092025e-01
6.153996e-01
6.195806e-01
6.210706e-01
6.196085e-01
6.154558e-01
6.092987e-01
6.019709e-01
5.941731e-01
5.865342e-01
5.791898e-01
0.000000e+00
1.000000e+00
5.809006e-01
5.887624e-01
5.977662e-01
6.069076e-01
6.155770e-01
6.228670e-01
6.277878e-01
6.295462e-01
6.278344e-01
6.229621e-01
6.157257e-01
6.070815e-01
5.979053e-01
5.889014e-01
5.803591e-01
0.000000e+00
1.000000e+00
5.820113e-01
5.908886e-01
6.011364e-01
6.115213e-01
6.213711e-01
6.296562e-01
6.352530e-01
6.372608e-01
6.353284e-01
6.298048e-01
6.215759e-01
6.117263e-01
6.013151e-01
5.910543e-01
5.813782e-01
0.000000e+00
1.000000e+00
5.829490e-01
5.926457e-01
6.039401e-01
6.153596e-01
6.261931e-01
6.353095e-01
6.414735e-01
6.436939e-01
6.415814e-01
6.355117e-01
6.264495e-01
6.156058e-01
6.041517e-01
5.928481e-01
5.822206e-01
0.000000e+00
1.000000e+00
5.836742e-01
5.938994e-01
6.059804e-01
6.181563e-01
6.297110e-01
6.394375e-01
6.460180e-01
6.483949e-01
6.461499e-01
6.396764e-01
6.300109e-01
6.184561e-01
6.061956e-01
5.941668e-01
5.828132e-01
0.000000e+00
1.000000e+00
5.841590e-01
5.945435e-01
6.071237e-01
6.197310e-01
6.316956e-01
6.417667e-01
6.485813e-01
6.510443e-01
6.487224e-01
6.420208e-01
6.320185e-01
6.200487e-01
6.073406e-01
5.949224e-01
5.831801e-01
0.000000e+00
1.000000e+00
5.843382e-01
5.945279e-01
6.073191e-01
6.200051e-01
6.320409e-01
6.421705e-01
6.490234e-01
6.514982e-01
6.491614e-01
6.424240e-01
6.323742e-01
6.203286e-01
6.075650e-01
5.950536e-01
5.833168e-01
0.000000e+00
1.000000e+00
5.840851e-01
5.939455e-01
6.065860e-01
6.189970e-01
6.307710e-01
6.406802e-01
6.473839e-01
6.498004e-01
6.475083e-01
6.409245e-01
6.311114e-01
6.193392e-01
6.068250e-01
5.945778e-01
5.831824e-01
0.000000e+00
1.000000e+00
5.835527e-01
5.929736e-01
6.049942e-01
6.168136e-01
6.280273e-01
6.374656e-01
6.438514e-01
6.461518e-01
6.439593e-01
6.376947e-01
6.283648e-01
6.171438e-01
6.052052e-01
5.935647e-01
5.828412e-01
0.000000e+00
1.000000e+00
5.827488e-01
5.916659e-01
6.026782e-01
6.136419e-01
6.240431e-01
6.327969e-01
6.387193e-01
6.408540e-01
6.388177e-01
6.330047e-01
6.243581e-01
6.139362e-01
6.028697e-01
5.920928e-01
5.821702e-01
0.000000e+00
1.000000e+00
5.816839e-01
5.899936e-01
5.998071e-01
6.097065e-01
6.190978e-01
6.269998e-01
6.323436e-01
6.342690e-01
6.324342e-01
6.271797e-01
6.193720e-01
6.099535e-01
5.999851e-01
5.902669e-01
5.813958e-01
0.000000e+00
1.000000e+00
5.805468e-01
5.879655e-01
5.965392e-01
6.052295e-01
6.134735e-01
6.204084e-01
6.250949e-01
6.267801e-01
6.251722e-01
6.205579e-01
6.136949e-01
6.054284e-01
5.966977e-01
5.881547e-01
5.804732e-01
0.000000e+00
1.000000e+00
5.747139e-01
5.764260e-01
5.783698e-01
5.803513e-01
5.822301e-01
5.838089e-01
5.848725e-01
5.852489e-01
5.848717e-01
5.838081e-01
5.822310e-01
5.803715e-01
5.784175e-01
5.765100e-01
5.739066e-01
0.000000e+00
1.000000e+00
5.755193e-01
5.780490e-01
5.809162e-01
5.838378e-01
5.866082e-01
5.889363e-01
5.905051e-01
5.910612e-01
5.905071e-01
5.889417e-01
5.866187e-01
5.838743e-01
5.809798e-01
5.780936e-01
5.754943e-01
0.000000e+00
1.000000e+00
5.764656e-01
5.799609e-01
5.839175e-01
5.879472e-01
5.917683e-01
5.949797e-01
5.971445e-01
5.979130e-01
5.971508e-01
5.949931e-01
5.917892e-01
5.880038e-01
5.839980e-01
5.800557e-01
5.761518e-01
0.000000e+00
1.000000e+00
5.775272e-01
5.821207e-01
5.873078e-01
5.925888e-01
5.975966e-01
6.018059e-01
6.046441e-01
6.056531e-01
6.046561e-01
6.018289e-01
5.976347e-01
5.926719e-01
5.873988e-01
5.822110e-01
5.771931e-01
0.000000e+00
1.000000e+00
5.786838e-01
5.844500e-01
5.909662e-01
5.975972e-01
6.038854e-01
6.091715e-01
6.127370e-01
6.140062e-01
6.127563e-01
6.092097e-01
6.039554e-01
5.977131e-01
5.910691e-01
5.845572e-01
5.783157e-01
0.000000e+00
1.000000e+00
5.798961e-01
5.868340e-01
5.947184e-01
6.027343e-01
6.103359e-01
6.167271e-01
6.210396e-01
6.225775e-01
6.210712e-01
6.167933e-01
6.104557e-01
6.028809e-01
5.948388e-01
5.869563e-01
5.794421e-01
0.000000e+00
1.000000e+00
5.810919e-01
5.891305e-01
5.983465e-01
6.077018e-01
6.165742e-01
6.240353e-01
6.290724e-01
6.308739e-01
6.291257e-01
6.241470e-01
6.167494e-01
6.078861e-01
5.984873e-01
5.892758e-01
5.805340e-01
0.000000e+00
1.000000e+00
5.821797e-01
5.911849e-01
6.016101e-01
6.121701e-01
6.221862e-01
6.306118e-01
6.363045e-01
6.383490e-01
6.363898e-01
6.307802e-01
6.224143e-01
6.123987e-01
6.017843e-01
5.913564e-01
5.815135e-01
0.000000e+00
1.000000e+00
5.830774e-01
5.928481e-01
6.042734e-01
6.158165e-01
6.267681e-01
6.359845e-01
6.422171e-01
6.444646e-01
6.423350e-01
6.362055e-01
6.270427e-01
6.160844e-01
6.044898e-01
5.930530e-01
5.823185e-01
0.000000e+00
1.000000e+00
5.837548e-01
5.939831e-01
6.061358e-01
6.183712e-01
6.299826e-01
6.397569e-01
6.463700e-01
6.487601e-01
6.465085e-01
6.400101e-01
6.302942e-01
6.186626e-01
6.064032e-01
5.942493e-01
5.828963e-01
0.000000e+00
1.000000e+00
5.841669e-01
5.944892e-01
6.070678e-01
6.196568e-01
6.316031e-01
6.416586e-01
6.484618e-01
6.509203e-01
6.486043e-01
6.419206e-01
6.319380e-01
6.199823e-01
6.073352e-01
5.948837e-01
5.832711e-01
0.000000e+00
1.000000e+00
5.842231e-01
5.943309e-01
6.070278e-01
6.196047e-01
6.315362e-01
6.415787e-01
6.483723e-01
6.508223e-01
6.485049e-01
6.418328e-01
6.318818e-01
6.199497e-01
6.072762e-01
5.948898e-01
5.833627e-01
0.000000e+00
1.000000e+00
5.839149e-01
5.935857e-01
6.060405e-01
6.182469e-01
6.298268e-01
6.395739e-01
6.461686e-01
6.485415e-01
6.462819e-01
6.398118e-01
6.301725e-01
6.185940e-01
6.062715e-01
5.942662e-01
5.831447e-01
0.000000e+00
1.000000e+00
5.833257e-01
5.924468e-01
6.041904e-01
6.157118e-01
6.266430e-01
6.358442e-01
6.420705e-01
6.443129e-01
6.421667e-01
6.360614e-01
6.269791e-01
6.160408e-01
6.043989e-01
5.930871e-01
5.827274e-01
0.000000e+00
1.000000e+00
5.824044e-01
5.910253e-01
6.016331e-01
6.122098e-01
6.222445e-01
6.306904e-01
6.364056e-01
6.384679e-01
6.364957e-01
6.308829e-01
6.225538e-01
6.125016e-01
6.018295e-01
5.914414e-01
5.818905e-01
0.000000e+00
1.000000e+00
5.812732e-01
5.892123e-01
5.985503e-01
6.079836e-01
6.169332e-01
6.244636e-01
6.295569e-01
6.313945e-01
6.296433e-01
6.246266e-01
6.171972e-01
6.082222e-01
5.987271e-01
5.894469e-01
5.809202e-01
0.000000e+00
1.000000e+00
5.800738e-01
5.870649e-01
5.951064e-01
6.032659e-01
6.110058e-01
6.175161e-01
6.219152e-01
6.234979e-01
6.219866e-01
6.176494e-01
6.112120e-01
6.034499e-01
5.952569e-01
5.872123e-01
5.797320e-01
0.000000e+00
1.000000e+00
5.747905e-01
5.765808e-01
5.786124e-01
5.806834e-01
5.826471e-01
5.842972e-01
5.854089e-01
5.858024e-01
5.854082e-01
5.842965e-01
5.826475e-01
5.807035e-01
5.786645e-01
5.766362e-01
5.740596e-01
0.000000e+00
1.000000e+00
5.755708e-01
5.781376e-01
5.810553e-01
5.840283e-01
5.868473e-01
5.892164e-01
5.908129e-01
5.913789e-01
5.908151e-01
5.892218e-01
5.868564e-01
5.840641e-01
5.811221e-01
5.781853e-01
5.754613e-01
0.000000e+00
1.000000e+00
5.764864e-01
5.799797e-01
5.839482e-01
5.879894e-01
5.918214e-01
5.950419e-01
5.972130e-01
5.979838e-01
5.972195e-01
5.950550e-01
5.918417e-01
5.880503e-01
5.840293e-01
5.800718e-01
5.761366e-01
0.000000e+00
1.000000e+00
5.775142e-01
5.820685e-01
5.872277e-01
5.924793e-01
5.974593e-01
6.016451e-01
6.044676e-01
6.054711e-01
6.044796e-01
6.016677e-01
5.975028e-01
5.925715e-01
5.873207e-01
5.821609e-01
5.771639e-01
0.000000e+00
1.000000e+00
5.786328e-01
5.843257e-01
5.907730e-01
5.973331e-01
6.035538e-01
6.087832e-01
6.123104e-01
6.135661e-01
6.123295e-01
6.088221e-01
6.036376e-01
5.974565e-01
5.908776e-01
5.844355e-01
5.782243e-01
0.000000e+00
1.000000e+00
5.797964e-01
5.866372e-01
5.944092e-01
6.023110e-01
6.098043e-01
6.161043e-01
6.203553e-01
6.218712e-01
6.203867e-01
6.161730e-01
6.099384e-01
6.024659e-01
5.945272e-01
5.867599e-01
5.793323e-01
0.000000e+00
1.000000e+00
5.809426e-01
5.888592e-01
5.979152e-01
6.071108e-01
6.158318e-01
6.231655e-01
6.281165e-01
6.298870e-01
6.281699e-01
6.232808e-01
6.160171e-01
6.073110e-01
5.980463e-01
5.890000e-01
5.803854e-01
0.000000e+00
1.000000e+00
5.819970e-01
5.908307e-01
6.010457e-01
6.113974e-01
6.212160e-01
6.294751e-01
6.350550e-01
6.370584e-01
6.351401e-01
6.296460e-01
6.214486e-01
6.116483e-01
6.012035e-01
5.909905e-01
5.813279e-01
0.000000e+00
1.000000e+00
5.828493e-01
5.924043e-01
6.035633e-01
6.148452e-01
6.255485e-01
6.345551e-01
6.406448e-01
6.428396e-01
6.407610e-01
6.347752e-01
6.258201e-01
6.151386e-01
6.037702e-01
5.925903e-01
5.821418e-01
0.000000e+00
1.000000e+00
5.834431e-01
5.934531e-01
6.052683e-01
6.171832e-01
6.284897e-01
6.380065e-01
6.444440e-01
6.467683e-01
6.445777e-01
6.382562e-01
6.287972e-01
6.174976e-01
6.055338e-01
5.936843e-01
5.827366e-01
0.000000e+00
1.000000e+00
5.837622e-01
5.938810e-01
6.060332e-01
6.182365e-01
6.298166e-01
6.395642e-01
6.461589e-01
6.485375e-01
6.462909e-01
6.398205e-01
6.301529e-01
6.185699e-01
6.062979e-01
5.942189e-01
5.830809e-01
0.000000e+00
1.000000e+00
5.837839e-01
5.936143e-01
6.058127e-01
6.179390e-01
6.294441e-01
6.391290e-01
6.456819e-01
6.480414e-01
6.457993e-01
6.393744e-01
6.297930e-01
6.182874e-01
6.060580e-01
5.941201e-01
5.831193e-01
0.000000e+00
1.000000e+00
5.834542e-01
5.927415e-01
6.046499e-01
6.163448e-01
6.274393e-01
6.367781e-01
6.430979e-01
6.453740e-01
6.431956e-01
6.370016e-01
6.277796e-01
6.166841e-01
6.048706e-01
5.933754e-01
5.828272e-01
0.000000e+00
1.000000e+00
5.828441e-01
5.914863e-01
6.026426e-01
6.135953e-01
6.239859e-01
6.327317e-01
6.386503e-01
6.407859e-01
6.387361e-01
6.329282e-01
6.243067e-01
6.139067e-01
6.028490e-01
5.920795e-01
5.822253e-01
0.000000e+00
1.000000e+00
5.819053e-01
5.899735e-01
5.999541e-01
6.099111e-01
6.193575e-01
6.273075e-01
6.326869e-01
6.346311e-01
6.327741e-01
6.274760e-01
6.196460e-01
6.101823e-01
6.001440e-01
5.903323e-01
5.811910e-01
0.000000e+00
1.000000e+00
5.807172e-01
5.880858e-01
5.967688e-01
6.055434e-01
6.138677e-01
6.208710e-01
6.256063e-01
6.273158e-01
6.256899e-01
6.210109e-01
6.141071e-01
6.057600e-01
5.969333e-01
5.882812e-01
5.801598e-01
0.000000e+00
1.000000e+00
5.794908e-01
5.858896e-01
5.932528e-01
6.007275e-01
6.078173e-01
6.137798e-01
6.178068e-01
6.192544e-01
6.178710e-01
6.138946e-01
6.079991e-01
6.008900e-01
5.933881e-01
5.860191e-01
5.790673e-01
0.000000e+00
1.000000e+00
5.746292e-01
5.762676e-01
5.781194e-01
5.800083e-01
5.817994e-01
5.833044e-01
5.843184e-01
5.846770e-01
5.843168e-01
5.833018e-01
5.817952e-01
5.800179e-01
5.781734e-01
5.763049e-01
5.740286e-01
0.000000e+00
1.000000e+00
5.753645e-01
5.777175e-01
5.803945e-01
5.831235e-01
5.857112e-01
5.878859e-01
5.893513e-01
5.898704e-01
5.893520e-01
5.878880e-01
5.857146e-01
5.831569e-01
5.804629e-01
5.777672e-01
5.752626e-01
0.000000e+00
1.000000e+00
5.762241e-01
5.794479e-01
5.831113e-01
5.868433e-01
5.903823e-01
5.933565e-01
5.953613e-01
5.960727e-01
5.953659e-01
5.933659e-01
5.904001e-01
5.869121e-01
5.831946e-01
5.795364e-01
5.758854e-01
0.000000e+00
1.000000e+00
5.772002e-01
5.814228e-01
5.862112e-01
5.910877e-01
5.957119e-01
5.995986e-01
6.022190e-01
6.031502e-01
6.022287e-01
5.996170e-01
5.957590e-01
5.911880e-01
5.863074e-01
5.815139e-01
5.768659e-01
0.000000e+00
1.000000e+00
5.782731e-01
5.835655e-01
5.895778e-01
5.956972e-01
6.015000e-01
6.063778e-01
6.096675e-01
6.108379e-01
6.096835e-01
6.064111e-01
6.015881e-01
5.958262e-01
5.896843e-01
5.836753e-01
5.778680e-01
0.000000e+00
1.000000e+00
5.793756e-01
5.857671e-01
5.930411e-01
6.004385e-01
6.074535e-01
6.133509e-01
6.173296e-01
6.187473e-01
6.173559e-01
6.134118e-01
6.075897e-01
6.006011e-01
5.931577e-01
5.858878e-01
5.789180e-01
0.000000e+00
1.000000e+00
5.804498e-01
5.878887e-01
5.963834e-01
6.050139e-01
6.131989e-01
6.200813e-01
6.247265e-01
6.263855e-01
6.247715e-01
6.201866e-01
6.133852e-01
6.052188e-01
5.965088e-01
5.880196e-01
5.799254e-01
0.000000e+00
1.000000e+00
5.814406e-01
5.897701e-01
5.993610e-01
6.090913e-01
6.183200e-01
6.260820e-01
6.313239e-01
6.332023e-01
6.313969e-01
6.262397e-01
6.185492e-01
6.093423e-01
5.995088e-01
5.899100e-01
5.808685e-01
0.000000e+00
1.000000e+00
5.822332e-01
5.912642e-01
6.017383e-01
6.123470e-01
6.224108e-01
6.308775e-01
6.365993e-01
6.386567e-01
6.367006e-01
6.310803e-01
6.226721e-01
6.126453e-01
6.019185e-01
5.914256e-01
5.817034e-01
0.000000e+00
1.000000e+00
5.827722e-01
5.922459e-01
6.033185e-01
6.145122e-01
6.251329e-01
6.340712e-01
6.401161e-01
6.422929e-01
6.402327e-01
6.343013e-01
6.254230e-01
6.148349e-01
6.035392e-01
5.924463e-01
5.822729e-01
0.000000e+00
1.000000e+00
5.830556e-01
5.926125e-01
6.039721e-01
6.154102e-01
6.262646e-01
6.354023e-01
6.415861e-01
6.438132e-01
6.417002e-01
6.356410e-01
6.265834e-01
6.157363e-01
6.042099e-01
5.929038e-01
5.825665e-01
0.000000e+00
1.000000e+00
5.830589e-01
5.923191e-01
6.036589e-01
6.149862e-01
6.257348e-01
6.347836e-01
6.409086e-01
6.431174e-01
6.410101e-01
6.350113e-01
6.260663e-01
6.153095e-01
6.038867e-01
5.927295e-01
5.825449e-01
0.000000e+00
1.000000e+00
5.827121e-01
5.914563e-01
6.024270e-01
6.133008e-01
6.236170e-01
6.323002e-01
6.381767e-01
6.402988e-01
6.382651e-01
6.325009e-01
6.239338e-01
6.136076e-01
6.026343e-01
5.919209e-01
5.821052e-01
0.000000e+00
1.000000e+00
5.820284e-01
5.901999e-01
6.003826e-01
6.104996e-01
6.200976e-01
6.281753e-01
6.336409e-01
6.356157e-01
6.337245e-01
6.283444e-01
6.203872e-01
6.107747e-01
6.005744e-01
5.905912e-01
5.812559e-01
0.000000e+00
1.000000e+00
5.811080e-01
5.885934e-01
5.976853e-01
6.068024e-01
6.154519e-01
6.227300e-01
6.276532e-01
6.294329e-01
6.277393e-01
6.228705e-01
6.157054e-01
6.070371e-01
5.978538e-01
5.888590e-01
5.802978e-01
0.000000e+00
1.000000e+00
5.799741e-01
5.866673e-01
5.945171e-01
6.024592e-01
6.099931e-01
6.163302e-01
6.206129e-01
6.221575e-01
6.206906e-01
6.164464e-01
6.101980e-01
6.026446e-01
5.946609e-01
5.868308e-01
5.794168e-01
0.000000e+00
1.000000e+00
5.787808e-01
5.844891e-01
5.910442e-01
5.977032e-01
6.040188e-01
6.093292e-01
6.129138e-01
6.141992e-01
6.129672e-01
6.094236e-01
6.041708e-01
5.978406e-01
5.911611e-01
5.846021e-01
5.783139e-01
0.000000e+00
1.000000e+00
5.742362e-01
5.754690e-01
5.768654e-01
5.782912e-01
5.796432e-01
5.807791e-01
5.815441e-01
5.818138e-01
5.815406e-01
5.807726e-01
5.796328e-01
5.782919e-01
5.769158e-01
5.755045e-01
5.736997e-01
0.000000e+00
1.000000e+00
5.748981e-01
5.767723e-01
5.789104e-01
5.810915e-01
5.831598e-01
5.848980e-01
5.860691e-01
5.864834e-01
5.860680e-01
5.848958e-01
5.831545e-01
5.811165e-01
5.789838e-01
5.768269e-01
5.747808e-01
0.000000e+00
1.000000e+00
5.756758e-01
5.783503e-01
5.813861e-01
5.844812e-01
5.874163e-01
5.898832e-01
5.915458e-01
5.921351e-01
5.915473e-01
5.898859e-01
5.874238e-01
5.845509e-01
5.814783e-01
5.784388e-01
5.753643e-01
0.000000e+00
1.000000e+00
5.765699e-01
5.801713e-01
5.842419e-01
5.883912e-01
5.923260e-01
5.956331e-01
5.978626e-01
5.986539e-01
5.978680e-01
5.956431e-01
5.923654e-01
5.884953e-01
5.843465e-01
5.802627e-01
5.762652e-01
0.000000e+00
1.000000e+00
5.775695e-01
5.821630e-01
5.873698e-01
5.926740e-01
5.977039e-01
6.019318e-01
6.047825e-01
6.057956e-01
6.047929e-01
6.019530e-01
5.977833e-01
5.928055e-01
5.874831e-01
5.822708e-01
5.771969e-01
0.000000e+00
1.000000e+00
5.786076e-01
5.842226e-01
5.906092e-01
5.971094e-01
6.032735e-01
6.084554e-01
6.119502e-01
6.131938e-01
6.119678e-01
6.084987e-01
6.034030e-01
5.972718e-01
5.907316e-01
5.843372e-01
5.781726e-01
0.000000e+00
1.000000e+00
5.796124e-01
5.862198e-01
5.937530e-01
6.014135e-01
6.086784e-01
6.147864e-01
6.189074e-01
6.203761e-01
6.189377e-01
6.148689e-01
6.088581e-01
6.016079e-01
5.938836e-01
5.863371e-01
5.791547e-01
0.000000e+00
1.000000e+00
5.805247e-01
5.880033e-01
5.965666e-01
6.052658e-01
6.135164e-01
6.204546e-01
6.251378e-01
6.268110e-01
6.251890e-01
6.205859e-01
6.137349e-01
6.054963e-01
5.967119e-01
5.881265e-01
5.801052e-01
0.000000e+00
1.000000e+00
5.812651e-01
5.894257e-01
5.988193e-01
6.083503e-01
6.173910e-01
6.249958e-01
6.301330e-01
6.319733e-01
6.302083e-01
6.251707e-01
6.176365e-01
6.086208e-01
5.989820e-01
5.895711e-01
5.809158e-01
0.000000e+00
1.000000e+00
5.817770e-01
5.903638e-01
6.003202e-01
6.104044e-01
6.199709e-01
6.280211e-01
6.334647e-01
6.354205e-01
6.335573e-01
6.282230e-01
6.202362e-01
6.107005e-01
6.005074e-01
5.905438e-01
5.814462e-01
0.000000e+00
1.000000e+00
5.820532e-01
5.907189e-01
6.009379e-01
6.112509e-01
6.210366e-01
6.292737e-01
6.348488e-01
6.368604e-01
6.349471e-01
6.294859e-01
6.213198e-01
6.115522e-01
6.011423e-01
5.909636e-01
5.817053e-01
0.000000e+00
1.000000e+00
5.820327e-01
5.904679e-01
6.006329e-01
6.108371e-01
6.205202e-01
6.286713e-01
6.341893e-01
6.361854e-01
6.342830e-01
6.288720e-01
6.208104e-01
6.111214e-01
6.008349e-01
5.907663e-01
5.815431e-01
0.000000e+00
1.000000e+00
5.816551e-01
5.896870e-01
5.994502e-01
6.092195e-01
6.184890e-01
6.262904e-01
6.315700e-01
6.334794e-01
6.316579e-01
6.264638e-01
6.187654e-01
6.094795e-01
5.996348e-01
5.899806e-01
5.808951e-01
0.000000e+00
1.000000e+00
5.809935e-01
5.884735e-01
5.974948e-01
6.065407e-01
6.151232e-01
6.223449e-01
6.272297e-01
6.289948e-01
6.273128e-01
6.224853e-01
6.153698e-01
6.067672e-01
5.976564e-01
5.887297e-01
5.801571e-01
0.000000e+00
1.000000e+00
5.801464e-01
5.868803e-01
5.949156e-01
6.030073e-01
6.106837e-01
6.171417e-01
6.215077e-01
6.230849e-01
6.215872e-01
6.172559e-01
6.108937e-01
6.031985e-01
5.950563e-01
5.870871e-01
5.794418e-01
0.000000e+00
1.000000e+00
5.790978e-01
5.850090e-01
5.918888e-01
5.988596e-01
6.054716e-01
6.110322e-01
6.147877e-01