<?xml version="1.0"?>
<VTKFile type="StructuredGrid" version="0.1">
  <StructuredGrid WholeExtent="0 16 0 16 0 16">
    <Piece Extent="0 16 0 16 0 16">
      <PointData Scalars="temperature" Vectors="velocity">
        <DataArray type="Float32" Name="temperature" format="ascii">
1.000000e+00
5.815165e-01
5.882094e-01
5.972556e-01
6.062107e-01
6.147117e-01
6.218717e-01
6.267274e-01
6.285057e-01
6.268827e-01
6.221731e-01
6.151187e-01
6.065884e-01
5.975430e-01
5.887005e-01
5.796021e-01
0.000000e+00
1.000000e+00
5.805441e-01
5.864318e-01
5.943906e-01
6.022856e-01
6.097795e-01
6.160892e-01
6.203651e-01
6.219279e-01
6.204978e-01
6.163509e-01
6.101519e-01
6.026399e-01
5.946770e-01
5.868664e-01
5.789219e-01
0.000000e+00
1.000000e+00
5.793892e-01
5.844408e-01
5.911698e-01
5.978727e-01
6.042342e-01
6.095883e-01
6.132116e-01
6.145300e-01
6.133189e-01
6.097939e-01
6.045277e-01
5.981456e-01
5.914052e-01
5.847763e-01
5.780145e-01
0.000000e+00
1.000000e+00
5.781505e-01
5.822634e-01
5.876738e-01
5.930848e-01
5.982194e-01
6.025387e-01
6.054572e-01
6.065121e-01
6.055363e-01
6.026914e-01
5.984466e-01
5.933068e-01
5.878898e-01
5.825349e-01
5.770157e-01
0.000000e+00
1.000000e+00
5.768791e-01
5.799736e-01
5.840223e-01
5.880856e-01
5.919405e-01
5.951818e-01
5.973683e-01
5.981511e-01
5.974118e-01
5.952824e-01
5.921043e-01
5.882614e-01
5.842231e-01
5.801957e-01
5.759197e-01
0.000000e+00
1.000000e+00
5.756157e-01
5.776719e-01
5.803666e-01
5.830815e-01
5.856567e-01
5.878212e-01
5.892794e-01
5.897958e-01
5.892880e-01
5.878634e-01
5.857523e-01
5.832050e-01
5.805497e-01
5.778558e-01
5.748292e-01
0.000000e+00
1.000000e+00
5.744306e-01
5.754651e-01
5.768779e-01
5.783060e-01
5.796606e-01
5.807992e-01
5.815657e-01
5.818351e-01
5.815603e-01
5.807992e-01
5.796898e-01
5.783699e-01
5.770317e-01
5.756236e-01
5.737576e-01
0.000000e+00
1.000000e+00
5.734058e-01
5.734696e-01
5.737384e-01
5.740076e-01
5.742634e-01
5.744789e-01
5.746239e-01
5.746732e-01
5.746169e-01
5.744666e-01
5.742676e-01
5.740380e-01
5.738443e-01
5.736087e-01
5.727921e-01
0.000000e+00
1.000000e+00
5.725412e-01
5.717954e-01
5.711152e-01
5.704145e-01
5.697507e-01
5.691936e-01
5.688187e-01
5.686856e-01
5.688170e-01
5.691922e-01
5.697722e-01
5.704423e-01
5.711991e-01
5.719335e-01
5.719391e-01
0.000000e+00
1.000000e+00
5.719096e-01
5.705298e-01
5.691324e-01
5.677000e-01
5.663427e-01
5.652036e-01
5.644379e-01
5.641692e-01
5.644457e-01
5.652229e-01
5.663800e-01
5.677401e-01
5.692098e-01
5.706473e-01
5.713840e-01
0.000000e+00
1.000000e+00
5.715036e-01
5.697282e-01
5.678779e-01
5.659826e-01
5.641862e-01
5.626783e-01
5.616647e-01
5.613102e-01
5.616793e-01
5.627108e-01
5.642342e-01
5.660353e-01
5.679456e-01
5.697872e-01
5.713671e-01
0.000000e+00
1.000000e+00
5.713174e-01
5.694111e-01
5.673800e-01
5.653010e-01
5.633305e-01
5.616764e-01
5.605646e-01
5.601760e-01
5.605815e-01
5.617136e-01
5.633836e-01
5.653645e-01
5.674467e-01
5.694650e-01
5.712425e-01
0.000000e+00
1.000000e+00
5.713771e-01
5.695633e-01
5.676148e-01
5.656228e-01
5.637349e-01
5.621502e-01
5.610850e-01
5.607128e-01
5.611015e-01
5.621871e-01
5.637908e-01
5.656982e-01
5.676922e-01
5.696332e-01
5.710564e-01
0.000000e+00
1.000000e+00
5.716577e-01
5.701381e-01
5.685119e-01
5.668514e-01
5.652777e-01
5.639568e-01
5.630689e-01
5.627585e-01
5.630824e-01
5.639889e-01
5.653345e-01
5.669436e-01
5.686085e-01
5.702187e-01
5.714578e-01
0.000000e+00
1.000000e+00
5.721219e-01
5.710679e-01
5.699671e-01
5.688439e-01
5.677796e-01
5.668866e-01
5.662862e-01
5.660758e-01
5.662941e-01
5.669075e-01
5.678294e-01
5.689566e-01
5.700855e-01
5.711758e-01
5.719007e-01
0.000000e+00
1.000000e+00
5.727360e-01
5.722746e-01
5.718585e-01
5.714337e-01
5.710315e-01
5.706946e-01
5.704682e-01
5.703883e-01
5.704690e-01
5.706993e-01
5.710597e-01
5.715516e-01
5.719920e-01
5.724162e-01
5.724038e-01
0.000000e+00
1.000000e+00
5.734682e-01
5.736767e-01
5.740604e-01
5.744489e-01
5.748178e-01
5.751283e-01
5.753377e-01
5.754108e-01
5.753337e-01
5.751206e-01
5.748203e-01
5.745430e-01
5.742229e-01
5.738580e-01
5.728649e-01
0.000000e+00
1.000000e+00
5.824504e-01
5.895100e-01
5.995387e-01
6.093462e-01
6.186555e-01
6.264993e-01
6.318225e-01
6.337739e-01
6.319817e-01
6.268298e-01
6.191036e-01
6.097461e-01
5.998163e-01
5.901166e-01
5.805114e-01
0.000000e+00
1.000000e+00
5.815609e-01
5.878000e-01
5.968347e-01
6.056427e-01
6.140025e-01
6.210448e-01
6.258222e-01
6.275709e-01
6.259528e-01
6.213368e-01
6.144385e-01
6.060555e-01
5.971609e-01
5.884152e-01
5.798067e-01
0.000000e+00
1.000000e+00
5.804743e-01
5.858939e-01
5.937309e-01
6.013886e-01
6.086564e-01
6.147767e-01
6.189245e-01
6.204382e-01
6.190354e-01
6.150197e-01
6.090174e-01
6.017217e-01
5.940131e-01
5.864131e-01
5.788271e-01
0.000000e+00
1.000000e+00
5.792162e-01
5.838085e-01
5.903020e-01
5.966892e-01
6.027511e-01
6.078539e-01
6.113082e-01
6.125647e-01
6.113991e-01
6.080441e-01
6.030388e-01
5.969610e-01
5.905518e-01
5.842109e-01
5.778014e-01
0.000000e+00
1.000000e+00
5.779007e-01
5.815740e-01
5.866660e-01
5.917075e-01
5.964918e-01
6.005174e-01
6.032389e-01
6.042241e-01
6.033043e-01
6.006553e-01
5.967100e-01
5.919261e-01
5.868921e-01
5.818804e-01
5.766863e-01
0.000000e+00
1.000000e+00
5.765862e-01
5.792863e-01
5.829782e-01
5.866567e-01
5.901468e-01
5.930819e-01
5.950634e-01
5.957755e-01
5.951008e-01
5.931687e-01
5.902954e-01
5.868221e-01
5.831778e-01
5.795130e-01
5.755768e-01
0.000000e+00
1.000000e+00
5.753283e-01
5.770599e-01
5.794177e-01
5.817825e-01
5.840256e-01
5.859113e-01
5.871829e-01
5.876365e-01
5.871974e-01
5.859474e-01
5.841055e-01
5.818905e-01
5.795937e-01
5.772323e-01
5.744941e-01
0.000000e+00
1.000000e+00
5.742296e-01
5.750137e-01
5.761793e-01
5.773495e-01
5.784599e-01
5.793934e-01
5.800225e-01
5.802452e-01
5.800220e-01
5.793947e-01
5.784804e-01
5.773951e-01
5.763080e-01
5.751516e-01
5.735158e-01
0.000000e+00
1.000000e+00
5.733240e-01
5.732789e-01
5.734502e-01
5.736121e-01
5.737659e-01
5.738954e-01
5.739825e-01
5.740119e-01
5.739769e-01
5.738853e-01
5.737624e-01
5.736242e-01
5.735240e-01
5.733967e-01
5.726325e-01
0.000000e+00
1.000000e+00
5.726594e-01
5.719545e-01
5.713724e-01
5.707675e-01
5.701945e-01
5.697135e-01
5.693898e-01
5.692752e-01
5.693886e-01
5.697131e-01
5.702043e-01
5.707818e-01
5.714213e-01
5.720616e-01
5.720424e-01
0.000000e+00
1.000000e+00
5.721852e-01
5.711048e-01
5.700415e-01
5.689444e-01
5.679045e-01
5.670313e-01
5.664441e-01
5.662382e-01
5.664505e-01
5.670467e-01
5.679324e-01
5.689727e-01
5.700816e-01
5.711671e-01
5.720322e-01
0.000000e+00
1.000000e+00
5.719877e-01
5.707559e-01
5.694912e-01
5.681915e-01
5.669596e-01
5.659252e-01
5.652297e-01
5.649862e-01
5.652391e-01
5.659475e-01
5.669966e-01
5.682355e-01
5.695366e-01
5.708137e-01
5.718922e-01
0.000000e+00
1.000000e+00
5.720448e-01
5.708919e-01
5.697002e-01
5.684779e-01
5.673195e-01
5.663469e-01
5.656929e-01
5.654638e-01
5.657016e-01
5.663682e-01
5.673579e-01
5.685379e-01
5.697593e-01
5.709632e-01
5.717307e-01
0.000000e+00
1.000000e+00
5.723290e-01
5.714631e-01
5.705924e-01
5.696997e-01
5.688537e-01
5.681435e-01
5.676658e-01
5.674981e-01
5.676709e-01
5.681578e-01
5.688872e-01
5.697764e-01
5.706697e-01
5.715469e-01
5.721179e-01
0.000000e+00
1.000000e+00
5.728048e-01
5.723971e-01
5.720559e-01
5.717037e-01
5.713700e-01
5.710901e-01
5.709018e-01
5.708351e-01
5.709018e-01
5.710930e-01
5.713893e-01
5.717869e-01
5.721535e-01
5.725058e-01
5.725342e-01
0.000000e+00
1.000000e+00
5.734316e-01
5.736106e-01
5.739607e-01
5.743119e-01
5.746453e-01
5.749257e-01
5.751144e-01
5.751802e-01
5.751104e-01
5.749186e-01
5.746469e-01
5.743794e-01
5.740888e-01
5.737494e-01
5.731092e-01
0.000000e+00
1.000000e+00
5.741743e-01
5.750178e-01
5.761736e-01
5.773423e-01
5.784510e-01
5.793830e-01
5.800108e-01
5.802323e-01
5.800071e-01
5.793753e-01
5.784487e-01
5.774098e-01
5.763517e-01
5.751976e-01
5.735506e-01
0.000000e+00
1.000000e+00
5.831142e-01
5.904651e-01
6.013578e-01
6.118429e-01
6.217907e-01
6.301744e-01
6.358654e-01
6.379444e-01
6.360286e-01
6.305410e-01
6.222861e-01
6.122736e-01
6.016304e-01
5.912538e-01
5.810951e-01
0.000000e+00
1.000000e+00
5.822452e-01
5.888588e-01
5.988283e-01
6.083755e-01
6.174337e-01
6.250664e-01
6.302454e-01
6.321331e-01
6.303735e-01
6.253998e-01
6.179136e-01
6.088151e-01
5.991508e-01
5.896749e-01
5.804396e-01
0.000000e+00
1.000000e+00
5.812126e-01
5.869950e-01
5.958493e-01
6.042945e-01
6.123061e-01
6.190551e-01
6.236317e-01
6.252968e-01
6.237365e-01
6.193450e-01
6.127155e-01
6.046623e-01
5.961352e-01
5.877566e-01
5.794938e-01
0.000000e+00
1.000000e+00
5.800512e-01
5.849573e-01
5.924962e-01
5.996993e-01
6.065328e-01
6.122872e-01
6.161871e-01
6.176030e-01
6.162709e-01
6.125265e-01
6.068638e-01
5.999989e-01
5.927453e-01
5.856038e-01
5.784744e-01
0.000000e+00
1.000000e+00
5.787649e-01
5.827880e-01
5.888848e-01
5.947506e-01
6.003156e-01
6.050000e-01
6.081719e-01
6.093202e-01
6.082369e-01
6.051851e-01
6.005735e-01
5.949938e-01
5.891079e-01
5.832905e-01
5.773672e-01
0.000000e+00
1.000000e+00
5.774455e-01
5.805352e-01
5.851740e-01
5.896667e-01
5.939290e-01
5.975155e-01
5.999414e-01
6.008153e-01
5.999870e-01
5.976432e-01
5.941180e-01
5.898548e-01
5.853662e-01
5.809077e-01
5.762462e-01
0.000000e+00
1.000000e+00
5.761134e-01
5.783330e-01
5.815557e-01
5.847106e-01
5.877038e-01
5.902215e-01
5.919218e-01
5.925298e-01
5.919455e-01
5.902903e-01
5.878260e-01
5.848424e-01
5.817158e-01
5.785821e-01
5.751374e-01
0.000000e+00
1.000000e+00
5.749458e-01
5.762766e-01
5.782299e-01
5.801574e-01
5.819861e-01
5.835240e-01
5.845616e-01
5.849318e-01
5.845717e-01
5.835524e-01
5.820475e-01
5.802317e-01
5.783617e-01
5.764498e-01
5.741422e-01
0.000000e+00
1.000000e+00
5.739739e-01
5.744987e-01
5.754072e-01
5.762914e-01
5.771304e-01
5.778356e-01
5.783106e-01
5.784775e-01
5.783068e-01
5.778328e-01
5.771335e-01
5.763037e-01
5.754783e-01
5.746271e-01
5.732499e-01
0.000000e+00
1.000000e+00
5.732231e-01
5.731311e-01
5.732414e-01
5.733254e-01
5.734052e-01
5.734721e-01
5.735167e-01
5.735314e-01
5.735115e-01
5.734614e-01
5.733916e-01
5.733171e-01
5.732699e-01
5.732278e-01
5.726252e-01
0.000000e+00
1.000000e+00
5.727443e-01
5.722420e-01
5.718357e-01
5.714012e-01
5.709893e-01
5.706432e-01
5.704103e-01
5.703281e-01
5.704111e-01
5.706459e-01
5.709962e-01
5.714067e-01
5.718512e-01
5.723066e-01
5.725215e-01
0.000000e+00
1.000000e+00
5.725426e-01
5.718666e-01
5.712388e-01
5.705845e-01
5.699642e-01
5.694434e-01
5.690930e-01
5.689701e-01
5.690969e-01
5.694534e-01
5.699844e-01
5.706078e-01
5.712565e-01
5.719247e-01
5.723403e-01
0.000000e+00
1.000000e+00
5.725988e-01
5.719898e-01
5.714261e-01
5.708410e-01
5.702864e-01
5.698208e-01
5.695075e-01
5.693976e-01
5.695108e-01
5.698298e-01
5.703069e-01
5.708812e-01
5.714576e-01
5.720558e-01
5.722504e-01
0.000000e+00
1.000000e+00
5.728886e-01
5.725596e-01
5.723164e-01
5.720600e-01
5.718171e-01
5.716132e-01
5.714759e-01
5.714273e-01
5.714759e-01
5.716153e-01
5.718292e-01
5.721056e-01
5.723656e-01
5.726398e-01
5.725510e-01
0.000000e+00
1.000000e+00
5.733750e-01
5.734994e-01
5.737906e-01
5.740786e-01
5.743519e-01
5.745816e-01
5.747361e-01
5.747898e-01
5.747325e-01
5.745756e-01
5.743515e-01
5.741184e-01
5.738730e-01
5.736056e-01
5.729410e-01
0.000000e+00
1.000000e+00
5.740128e-01
5.747211e-01
5.757104e-01
5.767077e-01
5.776536e-01
5.784486e-01
5.789839e-01
5.791726e-01
5.789800e-01
5.784406e-01
5.776480e-01
5.767527e-01
5.758464e-01
5.748622e-01
5.735494e-01
0.000000e+00
1.000000e+00
5.747663e-01
5.761352e-01
5.779362e-01
5.797557e-01
5.814814e-01
5.829321e-01
5.839098e-01
5.842560e-01
5.839092e-01
5.829306e-01
5.814949e-01
5.798488e-01
5.781199e-01
5.763125e-01
5.740967e-01
0.000000e+00
1.000000e+00
5.836516e-01
5.911380e-01
6.025845e-01
6.135253e-01
6.239037e-01
6.326503e-01
6.385857e-01
6.407462e-01
6.387610e-01
6.330432e-01
6.244422e-01
6.139907e-01
6.028589e-01
5.919934e-01
5.814902e-01
0.000000e+00
1.000000e+00
5.828213e-01
5.896234e-01
6.002236e-01
6.102863e-01
6.198317e-01
6.278751e-01
6.333327e-01
6.353128e-01
6.334735e-01
6.282391e-01
6.203420e-01
6.107424e-01
6.005371e-01
5.905310e-01
5.808579e-01
0.000000e+00
1.000000e+00
5.818058e-01
5.878370e-01
5.973722e-01
6.063787e-01
6.149209e-01
6.221186e-01
6.270012e-01
6.287696e-01
6.271143e-01
6.224417e-01
6.153657e-01
6.067726e-01
5.976625e-01
5.887097e-01
5.799637e-01
0.000000e+00
1.000000e+00
5.806698e-01
5.858484e-01
5.940985e-01
6.018927e-01
6.092855e-01
6.155136e-01
6.197366e-01
6.212635e-01
6.198261e-01
6.157865e-01
6.096493e-01
6.022127e-01
5.943471e-01
5.866052e-01
5.789554e-01
0.000000e+00
1.000000e+00
5.793702e-01
5.837185e-01
5.905175e-01
5.969870e-01
6.031237e-01
6.082914e-01
6.117924e-01
6.130557e-01
6.118621e-01
6.085090e-01
6.034090e-01
5.972469e-01
5.907404e-01
5.843129e-01
5.778666e-01
0.000000e+00
1.000000e+00
5.780601e-01
5.814671e-01
5.867916e-01
5.918836e-01
5.967134e-01
6.007783e-01
6.035289e-01
6.045186e-01
6.035805e-01
6.009379e-01
5.969257e-01
5.920859e-01
5.869836e-01
5.819218e-01
5.767394e-01
0.000000e+00
1.000000e+00
5.767258e-01
5.792455e-01
5.831211e-01
5.868556e-01
5.903981e-01
5.933780e-01
5.953911e-01
5.961123e-01
5.954241e-01
5.934785e-01
5.905438e-01
5.870021e-01
5.832777e-01
5.795621e-01
5.756098e-01
0.000000e+00
1.000000e+00
5.755027e-01
5.771721e-01
5.797213e-01
5.821993e-01
5.845500e-01
5.865268e-01
5.878610e-01
5.883382e-01
5.878801e-01
5.865784e-01
5.846377e-01
5.822928e-01
5.798468e-01
5.773765e-01
5.745951e-01
0.000000e+00
1.000000e+00
5.744467e-01
5.753652e-01
5.768144e-01
5.782178e-01
5.795489e-01
5.806676e-01
5.814212e-01
5.816881e-01
5.814228e-01
5.806767e-01
5.795746e-01
5.782466e-01
5.768912e-01
5.755039e-01
5.737141e-01
0.000000e+00
1.000000e+00
5.736615e-01
5.739646e-01
5.745683e-01
5.751422e-01
5.756864e-01
5.761434e-01
5.764508e-01
5.765584e-01
5.764464e-01
5.761355e-01
5.756755e-01
5.751320e-01
5.745933e-01
5.740544e-01
5.730736e-01
0.000000e+00
1.000000e+00
5.731630e-01
5.730434e-01
5.731024e-01
5.731355e-01
5.731668e-01
5.731930e-01
5.732106e-01
5.732164e-01
5.732088e-01
5.731895e-01
5.731602e-01
5.731266e-01
5.731046e-01
5.731012e-01
5.728748e-01
0.000000e+00
1.000000e+00
5.729457e-01
5.726464e-01
5.724684e-01
5.722678e-01
5.720777e-01
5.719181e-01
5.718108e-01
5.717731e-01
5.718119e-01
5.719212e-01
5.720835e-01
5.722715e-01
5.724652e-01
5.726934e-01
5.726223e-01
0.000000e+00
1.000000e+00
5.729972e-01
5.727620e-01
5.726423e-01
5.725061e-01
5.723770e-01
5.722686e-01
5.721957e-01
5.721701e-01
5.721964e-01
5.722711e-01
5.723841e-01
5.725196e-01
5.726493e-01
5.728112e-01
5.726235e-01
0.000000e+00
1.000000e+00
5.732915e-01
5.733360e-01
5.735391e-01
5.737340e-01
5.739188e-01
5.740742e-01
5.741786e-01
5.742150e-01
5.741765e-01
5.740709e-01
5.739188e-01
5.737490e-01
5.735710e-01
5.734056e-01
5.728433e-01
0.000000e+00
1.000000e+00
5.737875e-01
5.742874e-01
5.750322e-01
5.757786e-01
5.764865e-01
5.770814e-01
5.774818e-01
5.776225e-01
5.774779e-01
5.770735e-01
5.764777e-01
5.757975e-01
5.751124e-01
5.743866e-01
5.732897e-01
0.000000e+00
1.000000e+00
5.744369e-01
5.755234e-01
5.769758e-01
5.784402e-01
5.798290e-01
5.809963e-01
5.817827e-01
5.820608e-01
5.817805e-01
5.809909e-01
5.798270e-01
5.784995e-01
5.771149e-01
5.756581e-01
5.739012e-01
0.000000e+00
1.000000e+00
5.752027e-01
5.769503e-01
5.792236e-01
5.815183e-01
5.836946e-01
5.855240e-01
5.867573e-01
5.871952e-01
5.867602e-01
5.855308e-01
5.837320e-01
5.816401e-01
5.793935e-01
5.771163e-01
5.744765e-01
0.000000e+00
1.000000e+00
5.836967e-01
5.916294e-01
6.031071e-01
6.142418e-01
6.248084e-01
6.337137e-01
6.397570e-01
6.419606e-01
6.399395e-01
6.341231e-01
6.253857e-01
6.147479e-01
6.033979e-01
5.923202e-01
5.816398e-01
0.000000e+00
1.000000e+00
5.830687e-01
5.900740e-01
6.008831e-01
6.111992e-01
6.209855e-01
6.292308e-01
6.348241e-01
6.368580e-01
6.349804e-01
6.296143e-01
6.215228e-01
6.116770e-01
6.012069e-01
5.909336e-01
5.810382e-01
0.000000e+00
1.000000e+00
5.821006e-01
5.883459e-01
5.981472e-01
6.074484e-01
6.162704e-01
6.237021e-01
6.287419e-01
6.305705e-01
6.288722e-01
6.240428e-01
6.167419e-01
6.078695e-01
5.984578e-01
5.892004e-01
5.801830e-01
0.000000e+00
1.000000e+00
5.809200e-01
5.864539e-01
5.949498e-01
6.030645e-01
6.107615e-01
6.172441e-01
6.216380e-01
6.232292e-01
6.217467e-01
6.175326e-01
6.111484e-01
6.034052e-01
5.952112e-01
5.871409e-01
5.792047e-01
0.000000e+00
1.000000e+00
5.796323e-01
5.843528e-01
5.914015e-01
5.982005e-01
6.046505e-01
6.100813e-01
6.137595e-01
6.150897e-01
6.138497e-01
6.103129e-01
6.049563e-01
5.984778e-01
5.916340e-01
5.848686e-01
5.781322e-01
0.000000e+00
1.000000e+00
5.783145e-01
5.820932e-01
5.876659e-01
5.930814e-01
5.982195e-01
6.025442e-01
6.054705e-01
6.065281e-01
6.055419e-01
6.027162e-01
5.984505e-01
5.932990e-01
5.878644e-01
5.824699e-01
5.769902e-01
0.000000e+00
1.000000e+00
5.770043e-01
5.798236e-01
5.839523e-01
5.879930e-01
5.918270e-01
5.950526e-01
5.972329e-01
5.980198e-01
5.972817e-01
5.951648e-01
5.919883e-01
5.881524e-01
5.841139e-01
5.800848e-01
5.758493e-01
0.000000e+00
1.000000e+00
5.757630e-01
5.776916e-01
5.804859e-01
5.832467e-01
5.858659e-01
5.880691e-01
5.895577e-01
5.900930e-01
5.895837e-01
5.881294e-01
5.859680e-01
5.833542e-01
5.806129e-01
5.778533e-01
5.748786e-01
0.000000e+00
1.000000e+00
5.747072e-01
5.758259e-01
5.775027e-01
5.791609e-01
5.807340e-01
5.820566e-01
5.829489e-01
5.832667e-01
5.829556e-01
5.820754e-01
5.807787e-01
5.792131e-01
5.775954e-01
5.759303e-01
5.740527e-01
0.000000e+00
1.000000e+00
5.739022e-01
5.743711e-01
5.751933e-01
5.759982e-01
5.767614e-01
5.774025e-01
5.778340e-01
5.779857e-01
5.778308e-01
5.773990e-01
5.767612e-01
5.759980e-01
5.752276e-01
5.744331e-01
5.733792e-01
0.000000e+00
1.000000e+00
5.733836e-01
5.734169e-01
5.736834e-01
5.739307e-01
5.741651e-01
5.743618e-01
5.744940e-01
5.745401e-01
5.744915e-01
5.743566e-01
5.741554e-01
5.739191e-01
5.736851e-01
5.734462e-01
5.730560e-01
0.000000e+00
1.000000e+00
5.731427e-01
5.730036e-01
5.730282e-01
5.730337e-01
5.730389e-01
5.730433e-01
5.730464e-01
5.730477e-01
5.730468e-01
5.730437e-01
5.730375e-01
5.730290e-01
5.730204e-01
5.730336e-01
5.728533e-01
0.000000e+00
1.000000e+00
5.731865e-01
5.731189e-01
5.732032e-01
5.732737e-01
5.733404e-01
5.733966e-01
5.734343e-01
5.734477e-01
5.734344e-01
5.733968e-01
5.733409e-01
5.732729e-01
5.732030e-01
5.731540e-01
5.728781e-01
0.000000e+00
1.000000e+00
5.734855e-01
5.737060e-01
5.741209e-01
5.745304e-01
5.749187e-01
5.752449e-01
5.754644e-01
5.755414e-01
5.754620e-01
5.752403e-01
5.749134e-01
5.745296e-01
5.741504e-01
5.737697e-01
5.729784e-01
0.000000e+00
1.000000e+00
5.739934e-01
5.746787e-01
5.756480e-01
5.766217e-01
5.775451e-01
5.783210e-01
5.788435e-01
5.790276e-01
5.788398e-01
5.783125e-01
5.775321e-01
5.766374e-01
5.757345e-01
5.747756e-01
5.734189e-01
0.000000e+00
1.000000e+00
5.746574e-01
5.759393e-01
5.776310e-01
5.793372e-01
5.809553e-01
5.823151e-01
5.832313e-01
5.835556e-01
5.832299e-01
5.823112e-01
5.809563e-01
5.794118e-01
5.777796e-01
5.760689e-01
5.740449e-01
0.000000e+00
1.000000e+00
5.754376e-01
5.773900e-01
5.799175e-01
5.824683e-01
5.848875e-01
5.869212e-01
5.882925e-01
5.887801e-01
5.882984e-01
5.869356e-01
5.849378e-01
5.826042e-01
5.800858e-01
5.775476e-01
5.746815e-01
0.000000e+00
1.000000e+00
5.834654e-01
5.916451e-01
6.028643e-01
6.139029e-01
6.243850e-01
6.332205e-01
6.392203e-01
6.414181e-01
6.394075e-01
6.336318e-01
6.249797e-01
6.144207e-01
6.031594e-01
5.922160e-01
5.816063e-01
0.000000e+00
1.000000e+00
5.829295e-01
5.902144e-01
6.007483e-01
6.110096e-01
6.207506e-01
6.289586e-01
6.345275e-01
6.365641e-01
6.346995e-01
6.293458e-01
6.212967e-01
6.114896e-01
6.010693e-01
5.908851e-01
5.810038e-01
0.000000e+00
1.000000e+00
5.820216e-01
5.885512e-01
5.980949e-01
6.073730e-01
6.161798e-01
6.235989e-01
6.286293e-01
6.304667e-01
6.287811e-01
6.239450e-01
6.166672e-01
6.078118e-01
5.984175e-01
5.892015e-01
5.801816e-01
0.000000e+00
1.000000e+00
5.808803e-01
5.866501e-01
5.949508e-01
6.030618e-01
6.107613e-01
6.172459e-01
6.216396e-01
6.232418e-01
6.217719e-01
6.175386e-01
6.111639e-01
6.034196e-01
5.952249e-01
5.871709e-01
5.792177e-01
0.000000e+00
1.000000e+00
5.795967e-01
5.845078e-01
5.914221e-01
5.982242e-01
6.046813e-01
6.101180e-01
6.137988e-01
6.151393e-01
6.139113e-01
6.103530e-01
6.050013e-01
5.985170e-01
5.916675e-01
5.849084e-01
5.781437e-01
0.000000e+00
1.000000e+00
5.782561e-01
5.822030e-01
5.876732e-01
5.930870e-01
5.982253e-01
6.025498e-01
6.054752e-01
6.065389e-01
6.055642e-01
6.027247e-01
5.984673e-01
5.933170e-01
5.878829e-01
5.825002e-01
5.769886e-01
0.000000e+00
1.000000e+00
5.769212e-01
5.798712e-01
5.839157e-01
5.879415e-01
5.917608e-01
5.949734e-01
5.971445e-01
5.979312e-01
5.972035e-01
5.950884e-01
5.919299e-01
5.881122e-01
5.840904e-01
5.800896e-01
5.758353e-01
0.000000e+00
1.000000e+00
5.756802e-01
5.776658e-01
5.803893e-01
5.831143e-01
5.856992e-01
5.878731e-01
5.893415e-01
5.898705e-01
5.893717e-01
5.879360e-01
5.858051e-01
5.832321e-01
5.805329e-01
5.778223e-01
5.748957e-01
0.000000e+00
1.000000e+00
5.746406e-01
5.757442e-01
5.773448e-01
5.789450e-01
5.804631e-01
5.817395e-01
5.826007e-01
5.829079e-01
5.826085e-01
5.817585e-01
5.805060e-01
5.790026e-01
5.774518e-01
5.758527e-01
5.741442e-01
0.000000e+00
1.000000e+00
5.738331e-01
5.742484e-01
5.749869e-01
5.757154e-01
5.764062e-01
5.769865e-01
5.773771e-01
5.775142e-01
5.773733e-01
5.769811e-01
5.764043e-01
5.757207e-01
5.750310e-01
5.743052e-01
5.734652e-01
0.000000e+00
1.000000e+00
5.733095e-01
5.732729e-01
5.734480e-01
5.736083e-01
5.737602e-01
5.738877e-01
5.739732e-01
5.740025e-01
5.739698e-01
5.738803e-01
5.737496e-01
5.736028e-01
5.734581e-01
5.732898e-01
5.729753e-01
0.000000e+00
1.000000e+00
5.730787e-01
5.728562e-01
5.727900e-01
5.727075e-01
5.726292e-01
5.725634e-01
5.725190e-01
5.725031e-01
5.725182e-01
5.725609e-01
5.726244e-01
5.727066e-01
5.727893e-01
5.728473e-01
5.728440e-01
0.000000e+00
1.000000e+00
5.731215e-01
5.729841e-01
5.729873e-01
5.729777e-01
5.729685e-01
5.729607e-01
5.729553e-01
5.729532e-01
5.729546e-01
5.729586e-01
5.729643e-01
5.729783e-01
5.729938e-01
5.729854e-01
5.728518e-01
0.000000e+00
1.000000e+00
5.734294e-01
5.735970e-01
5.739464e-01
5.742913e-01
5.746182e-01
5.748927e-01
5.750773e-01
5.751417e-01
5.750741e-01
5.748862e-01
5.746078e-01
5.742803e-01
5.739961e-01
5.736374e-01
5.730760e-01
0.000000e+00
1.000000e+00
5.739532e-01
5.746046e-01
5.755285e-01
5.764579e-01
5.773392e-01
5.780798e-01
5.785782e-01
5.787536e-01
5.785738e-01
5.780695e-01
5.773214e-01
5.764508e-01
5.756131e-01
5.746835e-01
5.734568e-01
0.000000e+00
1.000000e+00
5.746376e-01
5.759041e-01
5.775726e-01
5.792572e-01
5.808546e-01
5.821971e-01
5.831015e-01
5.834213e-01
5.830992e-01
5.821914e-01
5.808482e-01
5.793121e-01
5.777318e-01
5.760145e-01
5.740278e-01
0.000000e+00
1.000000e+00
5.754378e-01
5.773932e-01
5.799206e-01
5.824725e-01
5.848928e-01
5.869272e-01
5.882990e-01
5.887866e-01
5.883045e-01
5.869412e-01
5.849366e-01
5.826008e-01
5.801004e-01
5.775363e-01
5.746695e-01
0.000000e+00
1.000000e+00
5.830372e-01
5.910901e-01
6.018350e-01
6.124815e-01
6.225938e-01
6.311195e-01
6.369102e-01
6.390380e-01
6.371037e-01
6.315127e-01
6.231782e-01
6.129791e-01
6.021200e-01
5.915605e-01
5.813026e-01
0.000000e+00
1.000000e+00
5.824266e-01
5.897671e-01
5.997836e-01
6.096741e-01
6.190668e-01
6.269827e-01
6.323542e-01
6.343249e-01
6.325389e-01
6.273572e-01
6.196000e-01
6.101341e-01
6.000943e-01
5.902738e-01
5.806882e-01
0.000000e+00
1.000000e+00
5.815258e-01
5.881400e-01
5.971735e-01
6.060981e-01
6.145725e-01
6.217120e-01
6.265530e-01
6.283275e-01
6.267217e-01
6.220490e-01
6.150528e-01
6.065281e-01
5.974925e-01
5.886226e-01
5.798949e-01
0.000000e+00
1.000000e+00
5.804155e-01
5.862131e-01
5.940495e-01
6.018175e-01
6.091926e-01
6.154035e-01
6.196109e-01
6.211499e-01
6.197580e-01
6.156876e-01
6.095905e-01
6.021736e-01
5.943297e-01
5.866159e-01
5.789390e-01
0.000000e+00
1.000000e+00
5.791661e-01
5.840241e-01
5.905155e-01
5.969766e-01
6.031094e-01
6.082716e-01
6.117646e-01
6.130385e-01
6.118845e-01
6.084970e-01
6.034252e-01
5.972715e-01
5.907716e-01
5.843528e-01
5.778643e-01
0.000000e+00
1.000000e+00
5.778441e-01
5.816682e-01
5.867372e-01
5.918032e-01
5.966100e-01
6.006537e-01
6.033861e-01
6.043777e-01
6.034713e-01
6.008173e-01
5.968464e-01
5.920386e-01
5.869640e-01
5.819297e-01
5.767074e-01
0.000000e+00
1.000000e+00
5.765204e-01
5.792839e-01
5.829332e-01
5.865960e-01
5.900704e-01
5.929914e-01
5.949629e-01
5.956731e-01
5.950102e-01
5.930931e-01
5.902326e-01
5.867751e-01
5.831296e-01
5.794881e-01
5.755383e-01
0.000000e+00
1.000000e+00
5.752902e-01
5.770288e-01
5.793557e-01
5.816988e-01
5.839212e-01
5.857895e-01
5.870499e-01
5.875005e-01
5.870673e-01
5.858342e-01
5.840105e-01
5.818164e-01
5.795251e-01
5.771884e-01
5.745766e-01
0.000000e+00
1.000000e+00
5.742557e-01
5.750690e-01
5.762631e-01
5.774639e-01
5.786032e-01
5.795609e-01
5.802066e-01
5.804354e-01
5.802071e-01
5.795665e-01
5.786264e-01
5.775113e-01
5.763787e-01
5.751770e-01
5.738358e-01
0.000000e+00
1.000000e+00
5.734579e-01
5.735476e-01
5.738723e-01
5.741895e-01
5.744904e-01
5.747429e-01
5.749126e-01
5.749708e-01
5.749064e-01
5.747321e-01
5.744818e-01
5.742045e-01
5.739291e-01
5.736086e-01
5.731493e-01
0.000000e+00
1.000000e+00
5.729297e-01
5.725626e-01
5.723249e-01
5.720705e-01
5.718292e-01
5.716261e-01
5.714889e-01
5.714391e-01
5.714849e-01
5.716179e-01
5.718224e-01
5.720859e-01
5.723543e-01
5.725960e-01
5.726168e-01
0.000000e+00
1.000000e+00
5.727153e-01
5.721553e-01
5.716832e-01
5.711921e-01
5.707264e-01
5.703350e-01
5.700712e-01
5.699776e-01
5.700704e-01
5.703328e-01
5.707260e-01
5.712137e-01
5.717020e-01
5.721642e-01
5.724332e-01
0.000000e+00
1.000000e+00
5.727766e-01
5.723097e-01
5.719233e-01
5.715209e-01
5.711392e-01
5.708184e-01
5.706022e-01
5.705254e-01
5.706012e-01
5.708160e-01
5.711364e-01
5.715431e-01
5.719492e-01
5.723204e-01
5.723986e-01
0.000000e+00
1.000000e+00
5.730997e-01
5.729630e-01
5.729463e-01
5.729217e-01
5.728983e-01
5.728784e-01
5.728646e-01
5.728585e-01
5.728606e-01
5.728705e-01
5.728853e-01
5.729292e-01
5.730066e-01
5.729867e-01
5.728564e-01
0.000000e+00
1.000000e+00
5.736452e-01
5.740210e-01
5.746064e-01
5.751953e-01
5.757536e-01
5.762225e-01
5.765377e-01
5.766477e-01
5.765317e-01
5.762096e-01
5.757319e-01
5.751790e-01
5.746881e-01
5.740852e-01
5.733427e-01
0.000000e+00
1.000000e+00
5.743563e-01
5.753756e-01
5.767360e-01
5.781117e-01
5.794163e-01
5.805126e-01
5.812509e-01
5.815112e-01
5.812465e-01
5.805026e-01
5.793982e-01
5.781275e-01
5.768900e-01
5.754766e-01
5.739229e-01
0.000000e+00
1.000000e+00
5.751824e-01
5.769205e-01
5.791716e-01
5.814469e-01
5.836047e-01
5.854186e-01
5.866412e-01
5.870749e-01
5.866429e-01
5.854232e-01
5.836238e-01
5.815467e-01
5.793689e-01
5.770546e-01
5.745081e-01
0.000000e+00
1.000000e+00
5.823463e-01
5.900192e-01
6.000376e-01
6.100138e-01
6.194861e-01
6.274691e-01
6.328883e-01
6.348789e-01
6.330778e-01
6.278245e-01
6.200210e-01
6.104561e-01
6.003080e-01
5.904189e-01
5.807594e-01
0.000000e+00
1.000000e+00
5.816906e-01
5.887291e-01
5.979985e-01
6.072219e-01
6.159782e-01
6.233547e-01
6.283561e-01
6.301900e-01
6.285357e-01
6.236917e-01
6.164649e-01
6.076411e-01
5.982995e-01
5.891396e-01
5.801467e-01
0.000000e+00
1.000000e+00
5.807932e-01
5.870958e-01
5.953861e-01
6.036443e-01
6.114830e-01
6.180839e-01
6.225551e-01
6.241918e-01
6.227183e-01
6.183885e-01
6.119270e-01
6.040469e-01
5.957013e-01
5.874839e-01
5.793501e-01
0.000000e+00
1.000000e+00
5.796983e-01
5.851380e-01
5.922450e-01
5.993432e-01
6.060797e-01
6.117495e-01
6.155855e-01
6.169836e-01
6.157195e-01
6.120034e-01
6.064469e-01
5.996843e-01
5.925350e-01
5.854706e-01
5.783880e-01
0.000000e+00
1.000000e+00
5.784655e-01
5.829085e-01
5.886798e-01
5.944624e-01
5.999490e-01
6.045646e-01
6.076828e-01
6.088120e-01
6.077798e-01
6.047596e-01
6.002381e-01
5.947516e-01
5.889537e-01
5.831929e-01
5.773018e-01
0.000000e+00
1.000000e+00
5.771502e-01
5.805097e-01
5.848592e-01
5.892326e-01
5.933813e-01
5.968697e-01
5.992233e-01
6.000685e-01
5.992778e-01
5.969984e-01
5.935914e-01
5.894683e-01
5.851117e-01
5.807464e-01
5.761369e-01
0.000000e+00
1.000000e+00
5.758274e-01
5.780827e-01
5.810085e-01
5.839612e-01
5.867620e-01
5.891164e-01
5.907037e-01
5.912692e-01
5.907230e-01
5.891775e-01
5.868896e-01
5.841351e-01
5.812376e-01
5.782787e-01
5.749585e-01
0.000000e+00
1.000000e+00
5.746031e-01
5.757897e-01
5.773878e-01
5.790042e-01
5.805376e-01
5.818267e-01
5.826956e-01
5.830034e-01
5.826972e-01
5.818396e-01
5.805856e-01
5.791003e-01
5.775825e-01
5.759535e-01
5.739720e-01
0.000000e+00
1.000000e+00
5.735729e-01
5.738019e-01
5.742612e-01
5.747231e-01
5.751615e-01
5.755302e-01
5.757787e-01
5.758655e-01
5.757748e-01
5.755249e-01
5.751687e-01
5.747760e-01
5.743846e-01
5.739117e-01
5.731987e-01
0.000000e+00
1.000000e+00
5.727867e-01
5.722673e-01
5.718538e-01
5.714261e-01
5.710208e-01
5.706804e-01
5.704510e-01
5.703688e-01
5.704481e-01
5.706761e-01
5.710299e-01
5.714798e-01
5.719380e-01
5.723406e-01
5.724940e-01
0.000000e+00
1.000000e+00
5.722704e-01
5.712862e-01
5.703161e-01
5.693202e-01
5.683760e-01
5.675827e-01
5.670485e-01
5.668595e-01
5.670493e-01
5.675851e-01
5.683933e-01
5.693757e-01
5.703795e-01
5.713360e-01
5.720460e-01
0.000000e+00
1.000000e+00
5.720630e-01
5.709007e-01
5.697103e-01
5.684910e-01
5.673348e-01
5.663636e-01
5.657098e-01
5.654793e-01
5.657131e-01
5.663703e-01
5.673538e-01
5.685448e-01
5.697576e-01
5.709342e-01
5.717106e-01
0.000000e+00
1.000000e+00
5.721583e-01
5.710932e-01
5.700109e-01
5.689028e-01
5.678520e-01
5.669693e-01
5.663749e-01
5.661652e-01
5.663776e-01
5.669747e-01
5.678653e-01
5.689590e-01
5.700629e-01
5.711299e-01
5.717329e-01
0.000000e+00
1.000000e+00
5.725003e-01
5.717990e-01
5.711159e-01
5.704157e-01
5.697518e-01
5.691941e-01
5.688183e-01
5.686849e-01
5.688175e-01
5.691931e-01
5.697508e-01
5.704761e-01
5.711865e-01
5.718385e-01
5.722245e-01
0.000000e+00
1.000000e+00
5.730699e-01
5.729206e-01
5.728739e-01
5.728230e-01
5.727747e-01
5.727340e-01
5.727060e-01
5.726945e-01
5.727007e-01
5.727235e-01
5.727572e-01
5.728579e-01
5.729670e-01
5.729828e-01
5.728864e-01
0.000000e+00
1.000000e+00
5.738108e-01
5.743450e-01
5.751106e-01
5.758861e-01
5.766215e-01
5.772394e-01
5.776550e-01