<?xml version="1.0"?>
<VTKFile type="StructuredGrid" version="0.1">
  <StructuredGrid WholeExtent="0 16 0 16 0 16">
    <Piece Extent="0 16 0 16 0 16">
      <PointData Scalars="temperature" Vectors="velocity">
        <DataArray type="Float32" Name="temperature" format="ascii">
1.000000e+00
5.731999e-01
5.730254e-01
5.730475e-01
5.730617e-01
5.730752e-01
5.730864e-01
5.730941e-01
5.730969e-01
5.730946e-01
5.730875e-01
5.730767e-01
5.730643e-01
5.730497e-01
5.730903e-01
5.724552e-01
0.000000e+00
1.000000e+00
5.731558e-01
5.730174e-01
5.730354e-01
5.730445e-01
5.730530e-01
5.730602e-01
5.730649e-01
5.730665e-01
5.730648e-01
5.730602e-01
5.730534e-01
5.730504e-01
5.730432e-01
5.730748e-01
5.723732e-01
0.000000e+00
1.000000e+00
5.730482e-01
5.727736e-01
5.726469e-01
5.725133e-01
5.723866e-01
5.722801e-01
5.722083e-01
5.721826e-01
5.722076e-01
5.722792e-01
5.723855e-01
5.725271e-01
5.726672e-01
5.728545e-01
5.725227e-01
0.000000e+00
1.000000e+00
5.727679e-01
5.722667e-01
5.718485e-01
5.714198e-01
5.710133e-01
5.706719e-01
5.704418e-01
5.703602e-01
5.704414e-01
5.706723e-01
5.710144e-01
5.714527e-01
5.718910e-01
5.723247e-01
5.724017e-01
0.000000e+00
1.000000e+00
5.723478e-01
5.714876e-01
5.706222e-01
5.697407e-01
5.689050e-01
5.682031e-01
5.677306e-01
5.675640e-01
5.677332e-01
5.682104e-01
5.689159e-01
5.698057e-01
5.706977e-01
5.715692e-01
5.718911e-01
0.000000e+00
1.000000e+00
5.718006e-01
5.704441e-01
5.689814e-01
5.674942e-01
5.660846e-01
5.649012e-01
5.641052e-01
5.638260e-01
5.641141e-01
5.649213e-01
5.661119e-01
5.675950e-01
5.690945e-01
5.705635e-01
5.712976e-01
0.000000e+00
1.000000e+00
5.711487e-01
5.691652e-01
5.669728e-01
5.647445e-01
5.626328e-01
5.608604e-01
5.596694e-01
5.592530e-01
5.596872e-01
5.608971e-01
5.626807e-01
5.648804e-01
5.671197e-01
5.693080e-01
5.706862e-01
0.000000e+00
1.000000e+00
5.704127e-01
5.677014e-01
5.646763e-01
5.616009e-01
5.586868e-01
5.562419e-01
5.546000e-01
5.540274e-01
5.546280e-01
5.562970e-01
5.587571e-01
5.617700e-01
5.648548e-01
5.678621e-01
5.700080e-01
0.000000e+00
1.000000e+00
5.696252e-01
5.661220e-01
5.621999e-01
5.582111e-01
5.544322e-01
5.512624e-01
5.491350e-01
5.483950e-01
5.491753e-01
5.513379e-01
5.545264e-01
5.584141e-01
5.624056e-01
5.662960e-01
5.692689e-01
0.000000e+00
1.000000e+00
5.688244e-01
5.645085e-01
5.596711e-01
5.547498e-01
5.500879e-01
5.461783e-01
5.435550e-01
5.426443e-01
5.436082e-01
5.462745e-01
5.502057e-01
5.549838e-01
5.599010e-01
5.646973e-01
5.685099e-01
0.000000e+00
1.000000e+00
5.680510e-01
5.629461e-01
5.572229e-01
5.513989e-01
5.458825e-01
5.412566e-01
5.381534e-01
5.370771e-01
5.382185e-01
5.413725e-01
5.460211e-01
5.516629e-01
5.574715e-01
5.631430e-01
5.677784e-01
0.000000e+00
1.000000e+00
5.673417e-01
5.615140e-01
5.549791e-01
5.483281e-01
5.420287e-01
5.367464e-01
5.332035e-01
5.319758e-01
5.332789e-01
5.368799e-01
5.421855e-01
5.486158e-01
5.552437e-01
5.617195e-01
5.671072e-01
0.000000e+00
1.000000e+00
5.667293e-01
5.602780e-01
5.530427e-01
5.456781e-01
5.387031e-01
5.328547e-01
5.289328e-01
5.275733e-01
5.290150e-01
5.330020e-01
5.388742e-01
5.459866e-01
5.533167e-01
5.604862e-01
5.665268e-01
0.000000e+00
1.000000e+00
5.662452e-01
5.592838e-01
5.514872e-01
5.435495e-01
5.360320e-01
5.297293e-01
5.255015e-01
5.240345e-01
5.255882e-01
5.298856e-01
5.362140e-01
5.438695e-01
5.517687e-01
5.595034e-01
5.660707e-01
0.000000e+00
1.000000e+00
5.659034e-01
5.585579e-01
5.503538e-01
5.419983e-01
5.340847e-01
5.274491e-01
5.229982e-01
5.214538e-01
5.230888e-01
5.276124e-01
5.342765e-01
5.423235e-01
5.506336e-01
5.587825e-01
5.657145e-01
0.000000e+00
1.000000e+00
5.656765e-01
5.581067e-01
5.496488e-01
5.410336e-01
5.328744e-01
5.260330e-01
5.214439e-01
5.198513e-01
5.215369e-01
5.262013e-01
5.330804e-01
5.413540e-01
5.499305e-01
5.583538e-01
5.655593e-01
0.000000e+00
1.000000e+00
5.655303e-01
5.579069e-01
5.493517e-01
5.406291e-01
5.323697e-01
5.254461e-01
5.208039e-01
5.191959e-01
5.209060e-01
5.256311e-01
5.326064e-01
5.409465e-01
5.496623e-01
5.583025e-01
5.648937e-01
0.000000e+00
1.000000e+00
5.730955e-01
5.730297e-01
5.730631e-01
5.730819e-01
5.730998e-01
5.731147e-01
5.731249e-01
5.731285e-01
5.731252e-01
5.731154e-01
5.731009e-01
5.730828e-01
5.730606e-01
5.730243e-01
5.729663e-01
0.000000e+00
1.000000e+00
5.729722e-01
5.727959e-01
5.726906e-01
5.725718e-01
5.724591e-01
5.723643e-01
5.723004e-01
5.722778e-01
5.723003e-01
5.723639e-01
5.724597e-01
5.725772e-01
5.726934e-01
5.728077e-01
5.723244e-01
0.000000e+00
1.000000e+00
5.726944e-01
5.722988e-01
5.719026e-01
5.714926e-01
5.711037e-01
5.707767e-01
5.705563e-01
5.704779e-01
5.705552e-01
5.707752e-01
5.711048e-01
5.715118e-01
5.719198e-01
5.723623e-01
5.724477e-01
0.000000e+00
1.000000e+00
5.722945e-01
5.715168e-01
5.706671e-01
5.698011e-01
5.689797e-01
5.682893e-01
5.678241e-01
5.676592e-01
5.678241e-01
5.682918e-01
5.689887e-01
5.698426e-01
5.707079e-01
5.715773e-01
5.720375e-01
0.000000e+00
1.000000e+00
5.717487e-01
5.704449e-01
5.689797e-01
5.674907e-01
5.660788e-01
5.648927e-01
5.640942e-01
5.638127e-01
5.640993e-01
5.649061e-01
5.661035e-01
5.675583e-01
5.690450e-01
5.705211e-01
5.714400e-01
0.000000e+00
1.000000e+00
5.710692e-01
5.691013e-01
5.668689e-01
5.646009e-01
5.624508e-01
5.606454e-01
5.594311e-01
5.590053e-01
5.594451e-01
5.606749e-01
5.624958e-01
5.646986e-01
5.669649e-01
5.692047e-01
5.707481e-01
0.000000e+00
1.000000e+00
5.702796e-01
5.675296e-01
5.644024e-01
5.612243e-01
5.582121e-01
5.556838e-01
5.539849e-01
5.533914e-01
5.540102e-01
5.557331e-01
5.582806e-01
5.613563e-01
5.645310e-01
5.676543e-01
5.699706e-01
0.000000e+00
1.000000e+00
5.694154e-01
5.657970e-01
5.616854e-01
5.575049e-01
5.535433e-01
5.502193e-01
5.479873e-01
5.472098e-01
5.480259e-01
5.502907e-01
5.536378e-01
5.576717e-01
5.618461e-01
5.659416e-01
5.691514e-01
0.000000e+00
1.000000e+00
5.685202e-01
5.639898e-01
5.588526e-01
5.536273e-01
5.486764e-01
5.445232e-01
5.417358e-01
5.407670e-01
5.417884e-01
5.446178e-01
5.487971e-01
5.538313e-01
5.590431e-01
5.641472e-01
5.682897e-01
0.000000e+00
1.000000e+00
5.676391e-01
5.622047e-01
5.560555e-01
5.497988e-01
5.438714e-01
5.389000e-01
5.355646e-01
5.344068e-01
5.356307e-01
5.390172e-01
5.440175e-01
5.500376e-01
5.562733e-01
5.623769e-01
5.674482e-01
0.000000e+00
1.000000e+00
5.668169e-01
5.605385e-01
5.534450e-01
5.462260e-01
5.393878e-01
5.336532e-01
5.298067e-01
5.284722e-01
5.298850e-01
5.337914e-01
5.395560e-01
5.464989e-01
5.536848e-01
5.607143e-01
5.666628e-01
0.000000e+00
1.000000e+00
5.660972e-01
5.590765e-01
5.511550e-01
5.430922e-01
5.354551e-01
5.290514e-01
5.247564e-01
5.232669e-01
5.248451e-01
5.292080e-01
5.356416e-01
5.433929e-01
5.514151e-01
5.592589e-01
5.659701e-01
0.000000e+00
1.000000e+00
5.655098e-01
5.578846e-01
5.492882e-01
5.405376e-01
5.322496e-01
5.253004e-01
5.206400e-01
5.190242e-01
5.207365e-01
5.254715e-01
5.324496e-01
5.408614e-01
5.495623e-01
5.580646e-01
5.654031e-01
0.000000e+00
1.000000e+00
5.650775e-01
5.570034e-01
5.479086e-01
5.386501e-01
5.298816e-01
5.225298e-01
5.175989e-01
5.158882e-01
5.176992e-01
5.227095e-01
5.300916e-01
5.389848e-01
5.481933e-01
5.571861e-01
5.649940e-01
0.000000e+00
1.000000e+00
5.648197e-01
5.564465e-01
5.470410e-01
5.374631e-01
5.283916e-01
5.207853e-01
5.156832e-01
5.139132e-01
5.157867e-01
5.209709e-01
5.286112e-01
5.378001e-01
5.473214e-01
5.566308e-01
5.647312e-01
0.000000e+00
1.000000e+00
5.646977e-01
5.562094e-01
5.466714e-01
5.369580e-01
5.277587e-01
5.200454e-01
5.148716e-01
5.130765e-01
5.149767e-01
5.202351e-01
5.279925e-01
5.372826e-01
5.469425e-01
5.564433e-01
5.646316e-01
0.000000e+00
1.000000e+00
5.648772e-01
5.562514e-01
5.467718e-01
5.370966e-01
5.279342e-01
5.202522e-01
5.150992e-01
5.133111e-01
5.152033e-01
5.204410e-01
5.281796e-01
5.373927e-01
5.470860e-01
5.568645e-01
5.636260e-01
0.000000e+00
1.000000e+00
5.732655e-01
5.732745e-01
5.734495e-01
5.736105e-01
5.737631e-01
5.738914e-01
5.739778e-01
5.740084e-01
5.739773e-01
5.738896e-01
5.737593e-01
5.736068e-01
5.734531e-01
5.732891e-01
5.734793e-01
0.000000e+00
1.000000e+00
5.730224e-01
5.728052e-01
5.727058e-01
5.725920e-01
5.724841e-01
5.723934e-01
5.723324e-01
5.723107e-01
5.723315e-01
5.723911e-01
5.724831e-01
5.725963e-01
5.727129e-01
5.728148e-01
5.731434e-01
0.000000e+00
1.000000e+00
5.726058e-01
5.720406e-01
5.715006e-01
5.709414e-01
5.704111e-01
5.699656e-01
5.696656e-01
5.695595e-01
5.696657e-01
5.699666e-01
5.704198e-01
5.709659e-01
5.715186e-01
5.720630e-01
5.726380e-01
0.000000e+00
1.000000e+00
5.720367e-01
5.709640e-01
5.698065e-01
5.686219e-01
5.674988e-01
5.665552e-01
5.659202e-01
5.656966e-01
5.659246e-01
5.665672e-01
5.675242e-01
5.686754e-01
5.698513e-01
5.710071e-01
5.719248e-01
0.000000e+00
1.000000e+00
5.713274e-01
5.695801e-01
5.676322e-01
5.656452e-01
5.637615e-01
5.621797e-01
5.611158e-01
5.607428e-01
5.611283e-01
5.622079e-01
5.638061e-01
5.657257e-01
5.677017e-01
5.696505e-01
5.711662e-01
0.000000e+00
1.000000e+00
5.704889e-01
5.679192e-01
5.650258e-01
5.620769e-01
5.592818e-01
5.569356e-01
5.553591e-01
5.548084e-01
5.553828e-01
5.569840e-01
5.593506e-01
5.621872e-01
5.651239e-01
5.680167e-01
5.703067e-01
0.000000e+00
1.000000e+00
5.695502e-01
5.660400e-01
5.620791e-01
5.580429e-01
5.542178e-01
5.510082e-01
5.488532e-01
5.481026e-01
5.488908e-01
5.510800e-01
5.543149e-01
5.581892e-01
5.622079e-01
5.661620e-01
5.693741e-01
0.000000e+00
1.000000e+00
5.685524e-01
5.640281e-01
5.589257e-01
5.537261e-01
5.487994e-01
5.446666e-01
5.418932e-01
5.409293e-01
5.419461e-01
5.447635e-01
5.489260e-01
5.539120e-01
5.590843e-01
5.641721e-01
5.683921e-01
0.000000e+00
1.000000e+00
5.675456e-01
5.619887e-01
5.557301e-01
5.493517e-01
5.433091e-01
5.382414e-01
5.348419e-01
5.336621e-01
5.349101e-01
5.383638e-01
5.434646e-01
5.495795e-01
5.559173e-01
5.621468e-01
5.674089e-01
0.000000e+00
1.000000e+00
5.665833e-01
5.600353e-01
5.526696e-01
5.451629e-01
5.380521e-01
5.320896e-01
5.280909e-01
5.267041e-01
5.281735e-01
5.322362e-01
5.382343e-01
5.454308e-01
5.528844e-01
5.602055e-01
5.664753e-01
0.000000e+00
1.000000e+00
5.657181e-01
5.582764e-01
5.499141e-01
5.413918e-01
5.333198e-01
5.265521e-01
5.220139e-01
5.204405e-01
5.221089e-01
5.267198e-01
5.335241e-01
5.416984e-01
5.501559e-01
5.584504e-01
5.656373e-01
0.000000e+00
1.000000e+00
5.649931e-01
5.568029e-01
5.476053e-01
5.382325e-01
5.293556e-01
5.219135e-01
5.169231e-01
5.151931e-01
5.170275e-01
5.220987e-01
5.295773e-01
5.385682e-01
5.478753e-01
5.569814e-01
5.649300e-01
0.000000e+00
1.000000e+00
5.644378e-01
5.556786e-01
5.458428e-01
5.358211e-01
5.263300e-01
5.183730e-01
5.130373e-01
5.111874e-01
5.131487e-01
5.185722e-01
5.265642e-01
5.361759e-01
5.461372e-01
5.558508e-01
5.643916e-01
0.000000e+00
1.000000e+00
5.640708e-01
5.549353e-01
5.446773e-01
5.342268e-01
5.243299e-01
5.160329e-01
5.104690e-01
5.085393e-01
5.105835e-01
5.162400e-01
5.245733e-01
5.345864e-01
5.449888e-01
5.551051e-01
5.640289e-01
0.000000e+00
1.000000e+00
5.639135e-01
5.545722e-01
5.441133e-01
5.334553e-01
5.233614e-01
5.148984e-01
5.092228e-01
5.072545e-01
5.093396e-01
5.151098e-01
5.236137e-01
5.338115e-01
5.444138e-01
5.547437e-01
5.638703e-01
0.000000e+00
1.000000e+00
5.639110e-01
5.545732e-01
5.441138e-01
5.334565e-01
5.233636e-01
5.149013e-01
5.092257e-01
5.072570e-01
5.093421e-01
5.151127e-01
5.236252e-01
5.337933e-01
5.444069e-01
5.548244e-01
5.638388e-01
0.000000e+00
1.000000e+00
5.642250e-01
5.548789e-01
5.446226e-01
5.341546e-01
5.242414e-01
5.159300e-01
5.103551e-01
5.084208e-01
5.104683e-01
5.161367e-01
5.245077e-01
5.344620e-01
5.449543e-01
5.555651e-01
5.629076e-01
0.000000e+00
1.000000e+00
5.735452e-01
5.737810e-01
5.742431e-01
5.746972e-01
5.751278e-01
5.754897e-01
5.757332e-01
5.758185e-01
5.757295e-01
5.754829e-01
5.751203e-01
5.746943e-01
5.742634e-01
5.738223e-01
5.732324e-01
0.000000e+00
1.000000e+00
5.731769e-01
5.730755e-01
5.731274e-01
5.731695e-01
5.732095e-01
5.732433e-01
5.732660e-01
5.732733e-01
5.732630e-01
5.732367e-01
5.732049e-01
5.731754e-01
5.731552e-01
5.731065e-01
5.730892e-01
0.000000e+00
1.000000e+00
5.726484e-01
5.720422e-01
5.715010e-01
5.709429e-01
5.704139e-01
5.699697e-01
5.696707e-01
5.695648e-01
5.696702e-01
5.699700e-01
5.704271e-01
5.709703e-01
5.715356e-01
5.720604e-01
5.725590e-01
0.000000e+00
1.000000e+00
5.719303e-01
5.706681e-01
5.693448e-01
5.679906e-01
5.667069e-01
5.656291e-01
5.649043e-01
5.646501e-01
5.649122e-01
5.656482e-01
5.667472e-01
5.680491e-01
5.693988e-01
5.707227e-01
5.716296e-01
0.000000e+00
1.000000e+00
5.710584e-01
5.689673e-01
5.666782e-01
5.643395e-01
5.621228e-01
5.602623e-01
5.590123e-01
5.585758e-01
5.590320e-01
5.603047e-01
5.621877e-01
5.644349e-01
5.667631e-01
5.690581e-01
5.707411e-01
0.000000e+00
1.000000e+00
5.700571e-01
5.669835e-01
5.635695e-01
5.600833e-01
5.567795e-01
5.540075e-01
5.521466e-01
5.514987e-01
5.521804e-01
5.540756e-01
5.568704e-01
5.602100e-01
5.636802e-01
5.670956e-01
5.697594e-01
0.000000e+00
1.000000e+00
5.689647e-01
5.647930e-01
5.601381e-01
5.553853e-01
5.508822e-01
5.471051e-01
5.445709e-01
5.436907e-01
5.446210e-01
5.472014e-01
5.510047e-01
5.555496e-01
5.602747e-01
5.649284e-01
5.686996e-01
0.000000e+00
1.000000e+00
5.678302e-01
5.625014e-01
5.565488e-01
5.504716e-01
5.447146e-01
5.398872e-01
5.366495e-01
5.355266e-01
5.367168e-01
5.400126e-01
5.448724e-01
5.506803e-01
5.567121e-01
5.626589e-01
5.676091e-01
0.000000e+00
1.000000e+00
5.667126e-01
5.602341e-01
5.529976e-01
5.456106e-01
5.386138e-01
5.327479e-01
5.288149e-01
5.274518e-01
5.288988e-01
5.329014e-01
5.388053e-01
5.458677e-01
5.531870e-01
5.604030e-01
5.665305e-01
0.000000e+00
1.000000e+00
5.656744e-01
5.581221e-01
5.496894e-01
5.410826e-01
5.329315e-01
5.260987e-01
5.215180e-01
5.199309e-01
5.216168e-01
5.262770e-01
5.331517e-01
5.413875e-01
5.499090e-01
5.583065e-01
5.655278e-01
0.000000e+00
1.000000e+00
5.647705e-01
5.562855e-01
5.468117e-01
5.371446e-01
5.279899e-01
5.203164e-01
5.151721e-01
5.133899e-01
5.152830e-01
5.205150e-01
5.282323e-01
5.374919e-01
5.470621e-01
5.564771e-01
5.646434e-01
0.000000e+00
1.000000e+00
5.640471e-01
5.548191e-01
5.445127e-01
5.339990e-01
5.240431e-01
5.156978e-01
5.101029e-01
5.081643e-01
5.102223e-01
5.159120e-01
5.243016e-01
5.343736e-01
5.447983e-01
5.550127e-01
5.639320e-01
0.000000e+00
1.000000e+00
5.635306e-01
5.537824e-01
5.428854e-01
5.317728e-01
5.212500e-01
5.124293e-01
5.065151e-01
5.044650e-01
5.066401e-01
5.126557e-01
5.215201e-01
5.321560e-01
5.432085e-01
5.539658e-01
5.634348e-01
0.000000e+00
1.000000e+00
5.632363e-01
5.531952e-01
5.419632e-01
5.305118e-01
5.196682e-01
5.105788e-01
5.044842e-01
5.023707e-01
5.046114e-01
5.108121e-01
5.199477e-01
5.308846e-01
5.423181e-01
5.533736e-01
5.631492e-01
0.000000e+00
1.000000e+00
5.631810e-01
5.530428e-01
5.417275e-01
5.301893e-01
5.192629e-01
5.101031e-01
5.039614e-01
5.018323e-01
5.040905e-01
5.103394e-01
5.195503e-01
5.305506e-01
5.420648e-01
5.532225e-01
5.631089e-01
0.000000e+00
1.000000e+00
5.633044e-01
5.532922e-01
5.421149e-01
5.307199e-01
5.199288e-01
5.108822e-01
5.048156e-01
5.027123e-01
5.049428e-01
5.111149e-01
5.202184e-01
5.310612e-01
5.424414e-01
5.535629e-01
5.631833e-01
0.000000e+00
1.000000e+00
5.637442e-01
5.538657e-01
5.430394e-01
5.319872e-01
5.215215e-01
5.127475e-01
5.068633e-01
5.048228e-01
5.069860e-01
5.129729e-01
5.218053e-01
5.323117e-01
5.434004e-01
5.545381e-01
5.624591e-01
0.000000e+00
1.000000e+00
5.739550e-01
5.745577e-01
5.754593e-01
5.763633e-01
5.772207e-01
5.779411e-01
5.784262e-01
5.785969e-01
5.784233e-01
5.779386e-01
5.772245e-01
5.763766e-01
5.755117e-01
5.746395e-01
5.733293e-01
0.000000e+00
1.000000e+00
5.734571e-01
5.736280e-01
5.739899e-01
5.743512e-01
5.746939e-01
5.749817e-01
5.751751e-01
5.752417e-01
5.751687e-01
5.749706e-01
5.746873e-01
5.743634e-01
5.740442e-01
5.737001e-01
5.731523e-01
0.000000e+00
1.000000e+00
5.727860e-01
5.723355e-01
5.719578e-01
5.715684e-01
5.711995e-01
5.708898e-01
5.706814e-01
5.706071e-01
5.706792e-01
5.708867e-01
5.712121e-01
5.716014e-01
5.720249e-01
5.723868e-01
5.725273e-01
0.000000e+00
1.000000e+00
5.719561e-01
5.706734e-01
5.693514e-01
5.680002e-01
5.667197e-01
5.656451e-01
5.649231e-01
5.646703e-01
5.649323e-01
5.656671e-01
5.667701e-01
5.680638e-01
5.694279e-01
5.707539e-01
5.715188e-01
0.000000e+00
1.000000e+00
5.709394e-01
5.686651e-01
5.662061e-01
5.636938e-01
5.613132e-01
5.593161e-01
5.579756e-01
5.575091e-01
5.580011e-01
5.593703e-01
5.613987e-01
5.637976e-01
5.663089e-01
5.687871e-01
5.705754e-01
0.000000e+00
1.000000e+00
5.697922e-01
5.663678e-01
5.626106e-01
5.587710e-01
5.551333e-01
5.520825e-01
5.500361e-01
5.493260e-01
5.500794e-01
5.521687e-01
5.552491e-01
5.589163e-01
5.627402e-01
5.665096e-01
5.694729e-01
0.000000e+00
1.000000e+00
5.685575e-01
5.638761e-01
5.587120e-01
5.534334e-01
5.484333e-01
5.442412e-01
5.414304e-01
5.404567e-01
5.414925e-01
5.443606e-01
5.485818e-01
5.536189e-01
5.588667e-01
5.640370e-01
5.682531e-01
0.000000e+00
1.000000e+00
5.672947e-01
5.613167e-01
5.547075e-01
5.479511e-01
5.415526e-01
5.361893e-01
5.325944e-01
5.313499e-01
5.326752e-01
5.363426e-01
5.417382e-01
5.481816e-01
5.548873e-01
5.614948e-01
5.670141e-01
0.000000e+00
1.000000e+00
5.660751e-01
5.588358e-01
5.508251e-01
5.426367e-01
5.348833e-01
5.283856e-01
5.240307e-01
5.225234e-01
5.241290e-01
5.285701e-01
5.351063e-01
5.429185e-01
5.510314e-01
5.590243e-01
5.658363e-01
0.000000e+00
1.000000e+00
5.649671e-01
5.565819e-01
5.472963e-01
5.378071e-01
5.288231e-01
5.212943e-01
5.162484e-01
5.145019e-01
5.163617e-01
5.215045e-01
5.290799e-01
5.381394e-01
5.475316e-01
5.567850e-01
5.647779e-01
0.000000e+00
1.000000e+00
5.640322e-01
5.546858e-01
5.443256e-01
5.337420e-01
5.237221e-01
5.153251e-01
5.096971e-01
5.077486e-01
5.098219e-01
5.155545e-01
5.240049e-01
5.341166e-01
5.445925e-01
5.548892e-01
5.638817e-01
0.000000e+00
1.000000e+00
5.633159e-01
5.532448e-01
5.420646e-01
5.306485e-01
5.198402e-01
5.107821e-01
5.047103e-01
5.026072e-01
5.048426e-01
5.110242e-01
5.201406e-01
5.310448e-01
5.423720e-01
5.534523e-01
5.631974e-01
0.000000e+00
1.000000e+00
5.628402e-01
5.523120e-01
5.405968e-01
5.286407e-01
5.173206e-01
5.078326e-01
5.014716e-01
4.992679e-01
5.016094e-01
5.080849e-01
5.176330e-01
5.290342e-01
5.409491e-01
5.525202e-01
5.627546e-01
0.000000e+00
1.000000e+00
5.626375e-01
5.518904e-01
5.399355e-01
5.277369e-01
5.161872e-01
5.065063e-01
5.000153e-01
4.977655e-01
5.001541e-01
5.067634e-01
5.165079e-01
5.281082e-01
5.403197e-01
5.521258e-01
5.625297e-01
0.000000e+00
1.000000e+00
5.626716e-01
5.519534e-01
5.400345e-01
5.278723e-01
5.163566e-01
5.067042e-01
5.002332e-01
4.979913e-01
5.003732e-01
5.069635e-01
5.166838e-01
5.282277e-01
5.403850e-01
5.521954e-01
5.625767e-01
0.000000e+00
1.000000e+00
5.629201e-01
5.524516e-01
5.408076e-01
5.289300e-01
5.176829e-01
5.082551e-01
5.019341e-01
4.997441e-01
5.020705e-01
5.085068e-01
5.180009e-01
5.292669e-01
5.411547e-01
5.527674e-01
5.627809e-01
0.000000e+00
1.000000e+00
5.634734e-01
5.532874e-01
5.421366e-01
5.307512e-01
5.199706e-01
5.109337e-01
5.048743e-01
5.027745e-01
5.050047e-01
5.111748e-01
5.202702e-01
5.310919e-01
5.425287e-01
5.539288e-01
5.622179e-01
0.000000e+00
1.000000e+00
5.744803e-01
5.755966e-01
5.770957e-01
5.786036e-01
5.800337e-01
5.812354e-01
5.820449e-01
5.823312e-01
5.820446e-01
5.812406e-01
5.800581e-01
5.786467e-01
5.771911e-01
5.757169e-01
5.737008e-01
0.000000e+00
1.000000e+00
5.738754e-01
5.744616e-01
5.752972e-01
5.761411e-01
5.769415e-01
5.776142e-01
5.780669e-01
5.782255e-01
5.780614e-01
5.776057e-01
5.769434e-01
5.761708e-01
5.753930e-01
5.745764e-01
5.733831e-01
0.000000e+00
1.000000e+00
5.730860e-01
5.729331e-01
5.728898e-01
5.728451e-01
5.728031e-01
5.727683e-01
5.727450e-01
5.727356e-01
5.727413e-01
5.727626e-01
5.728140e-01
5.728873e-01
5.729928e-01
5.730244e-01
5.726776e-01
0.000000e+00
1.000000e+00
5.721017e-01
5.710059e-01
5.698693e-01
5.687095e-01
5.676109e-01
5.666896e-01
5.660710e-01
5.658548e-01
5.660798e-01
5.667099e-01
5.676661e-01
5.687837e-01
5.699860e-01
5.711133e-01
5.715642e-01
0.000000e+00
1.000000e+00
5.709712e-01
5.687146e-01
5.662827e-01
5.637988e-01
5.614459e-01
5.594731e-01
5.581501e-01
5.576910e-01
5.581792e-01
5.595346e-01
5.615472e-01
5.639081e-01
5.664151e-01
5.688572e-01
5.704574e-01
0.000000e+00
1.000000e+00
5.696989e-01
5.661305e-01
5.622403e-01
5.582646e-01
5.544988e-01
5.513421e-01
5.492265e-01
5.484947e-01
5.492775e-01
5.514432e-01
5.546392e-01
5.584169e-01
5.623903e-01
5.662940e-01
5.692613e-01
0.000000e+00
1.000000e+00
5.683522e-01
5.633655e-01
5.579171e-01
5.523459e-01
5.470702e-01
5.426488e-01
5.396863e-01
5.386625e-01
5.397582e-01
5.427874e-01
5.472471e-01
5.525465e-01
5.580932e-01
5.635504e-01
5.679725e-01
0.000000e+00
1.000000e+00
5.669869e-01
5.605660e-01
5.535410e-01
5.463553e-01
5.395526e-01
5.338524e-01
5.300336e-01
5.287135e-01
5.301250e-01
5.340278e-01
5.397681e-01
5.466042e-01
5.537390e-01
5.607696e-01
5.666736e-01
0.000000e+00
1.000000e+00
5.656833e-01
5.578980e-01
5.493703e-01
5.406469e-01
5.323899e-01
5.254719e-01
5.208368e-01
5.192340e-01
5.209460e-01
5.256806e-01
5.326439e-01
5.409483e-01
5.495936e-01
5.581140e-01
5.654294e-01
0.000000e+00
1.000000e+00
5.645190e-01
5.555266e-01
5.456611e-01
5.355710e-01
5.260209e-01
5.180195e-01
5.126579e-01
5.108031e-01
5.127818e-01
5.182553e-01
5.263097e-01
5.359208e-01
5.459130e-01
5.557496e-01
5.642983e-01
0.000000e+00
1.000000e+00
5.635604e-01
5.535922e-01
5.426318e-01
5.314256e-01
5.208191e-01
5.119320e-01
5.059760e-01
5.039146e-01
5.061108e-01
5.121865e-01
5.211365e-01
5.318127e-01
5.429156e-01
5.538142e-01
5.633497e-01
0.000000e+00
1.000000e+00
5.628516e-01
5.521926e-01
5.404344e-01
5.284188e-01
5.170451e-01
5.075144e-01
5.011263e-01
4.989144e-01
5.012684e-01
5.077804e-01
5.173852e-01
5.288243e-01
5.407556e-01
5.524256e-01
5.626515e-01
0.000000e+00
1.000000e+00
5.624128e-01
5.513732e-01
5.391400e-01
5.266475e-01
5.148211e-01
5.049102e-01
4.982671e-01
4.959673e-01
4.984153e-01
5.051860e-01
5.151769e-01
5.270517e-01
5.394947e-01
5.516206e-01
5.622384e-01
0.000000e+00
1.000000e+00
5.623195e-01
5.511194e-01
5.387423e-01
5.261038e-01
5.141384e-01
5.041101e-01
4.973874e-01
4.950592e-01
4.975362e-01
5.043888e-01
5.144990e-01
5.264856e-01
5.390979e-01
5.514076e-01
5.620785e-01
0.000000e+00
1.000000e+00
5.624298e-01
5.513885e-01
5.391639e-01
5.266813e-01
5.148638e-01
5.049599e-01
4.983213e-01
4.960227e-01
4.984693e-01
5.052376e-01
5.152244e-01
5.270455e-01
5.394956e-01
5.516935e-01
5.622146e-01
0.000000e+00
1.000000e+00
5.627890e-01
5.521202e-01
5.402987e-01
5.282331e-01
5.168094e-01
5.072347e-01
5.008166e-01
4.985944e-01
5.009595e-01
5.075008e-01
5.171489e-01
5.285794e-01
5.406516e-01
5.524639e-01
5.625318e-01
0.000000e+00
1.000000e+00
5.634342e-01
5.531985e-01
5.419992e-01
5.305627e-01
5.197345e-01
5.106588e-01
5.045748e-01
5.024681e-01
5.047103e-01
5.109110e-01
5.200470e-01
5.309240e-01
5.423519e-01
5.537292e-01
5.624523e-01
0.000000e+00
1.000000e+00
5.751448e-01
5.768723e-01
5.791044e-01
5.813545e-01
5.834884e-01
5.852817e-01
5.864896e-01
5.869169e-01
5.864922e-01
5.853015e-01
5.835428e-01
5.814384e-01
5.792368e-01
5.770251e-01
5.743617e-01
0.000000e+00
1.000000e+00
5.744254e-01
5.755555e-01
5.770203e-01
5.785004e-01
5.799042e-01
5.810839e-01
5.818782e-01
5.821580e-01
5.818729e-01
5.810797e-01
5.799236e-01
5.785632e-01
5.771675e-01
5.757083e-01
5.739470e-01
0.000000e+00
1.000000e+00
5.735138e-01
5.738240e-01
5.742847e-01
5.747547e-01
5.752008e-01
5.755761e-01
5.758292e-01
5.759176e-01
5.758248e-01
5.755690e-01
5.752103e-01
5.748115e-01
5.744291e-01
5.739577e-01
5.732021e-01
0.000000e+00
1.000000e+00
5.724198e-01
5.716672e-01
5.709020e-01
5.701233e-01
5.693865e-01
5.687697e-01
5.683569e-01
5.682133e-01
5.683641e-01
5.687853e-01
5.694415e-01
5.702119e-01
5.710569e-01
5.718124e-01
5.720198e-01
0.000000e+00
1.000000e+00
5.711608e-01
5.691315e-01
5.669341e-01
5.646910e-01
5.625674e-01
5.607877e-01
5.595956e-01
5.591833e-01
5.596254e-01
5.608501e-01
5.626782e-01
5.648120e-01
5.671154e-01
5.693202e-01
5.708168e-01
0.000000e+00
1.000000e+00
5.697857e-01
5.663034e-01
5.625111e-01
5.586355e-01
5.549658e-01
5.518911e-01
5.498323e-01
5.491224e-01
5.498880e-01
5.520013e-01
5.551244e-01
5.587912e-01
5.626960e-01
5.665099e-01
5.694885e-01
0.000000e+00
1.000000e+00
5.683465e-01
5.633101e-01
5.578313e-01
5.522293e-01
5.469258e-01
5.424829e-01
5.395079e-01
5.384823e-01
5.395866e-01
5.426351e-01
5.471275e-01
5.524266e-01
5.580281e-01
5.635295e-01
5.680077e-01
0.000000e+00
1.000000e+00
5.669227e-01
5.603151e-01
5.531504e-01
5.458227e-01
5.388875e-01
5.330778e-01
5.291868e-01
5.278438e-01
5.292854e-01
5.332680e-01
5.391312e-01
5.460722e-01
5.533665e-01
5.605435e-01
5.665121e-01
0.000000e+00
1.000000e+00
5.655742e-01
5.575007e-01
5.487530e-01
5.398055e-01
5.313386e-01
5.242457e-01
5.194939e-01
5.178519e-01
5.196096e-01
5.244692e-01
5.316225e-01
5.401088e-01
5.489891e-01
5.577394e-01
5.651585e-01
0.000000e+00
1.000000e+00
5.643765e-01
5.550445e-01
5.449154e-01
5.345548e-01
5.247508e-01
5.165371e-01
5.110331e-01
5.091298e-01
5.111630e-01
5.167875e-01
5.250700e-01
5.349065e-01
5.451718e-01
5.552880e-01
5.640160e-01
0.000000e+00
1.000000e+00
5.633992e-01
5.530944e-01
5.418659e-01
5.303815e-01
5.195135e-01
5.104073e-01
5.043045e-01
5.021927e-01
5.044450e-01
5.106767e-01
5.198605e-01
5.307682e-01
5.421428e-01
5.533411e-01
5.631463e-01
0.000000e+00
1.000000e+00
5.626901e-01
5.517490e-01
5.397536e-01
5.274900e-01
5.158831e-01
5.061571e-01
4.996382e-01
4.973817e-01
4.997859e-01
5.064387e-01
5.162527e-01
5.278928e-01
5.400496e-01
5.520054e-01
5.625721e-01
0.000000e+00
1.000000e+00
5.622970e-01
5.510406e-01
5.386348e-01
5.259585e-01
5.139601e-01
5.039058e-01
4.971670e-01
4.948343e-01
4.973196e-01
5.041954e-01
5.143445e-01
5.263605e-01
5.389398e-01
5.513240e-01
5.622659e-01
0.000000e+00
1.000000e+00
5.622693e-01
5.509461e-01
5.384838e-01
5.257513e-01
5.136988e-01
5.035988e-01
4.968294e-01
4.944865e-01
4.969837e-01
5.038917e-01
5.140846e-01
5.261423e-01
5.387872e-01
5.512912e-01
5.621836e-01
0.000000e+00
1.000000e+00
5.624797e-01
5.514046e-01
5.392002e-01
5.267315e-01
5.149287e-01
5.050383e-01
4.984099e-01
4.961163e-01
4.985621e-01
5.053267e-01
5.153051e-01
5.271135e-01
5.395070e-01
5.517777e-01
5.624509e-01
0.000000e+00
1.000000e+00
5.629243e-01
5.523402e-01
5.406515e-01
5.287161e-01
5.174168e-01
5.079478e-01
5.016017e-01
4.994062e-01
5.017476e-01
5.082215e-01
5.177662e-01
5.290806e-01
5.409674e-01
5.527260e-01
5.627849e-01
0.000000e+00
1.000000e+00
5.636344e-01
5.536268e-01
5.426703e-01
5.314805e-01
5.208870e-01
5.120090e-01
5.060590e-01
5.040007e-01
5.061967e-01
5.122664e-01
5.212074e-01
5.318492e-01
5.429751e-01
5.540447e-01
5.631056e-01
0.000000e+00
1.000000e+00
5.759144e-01
5.783330e-01
5.814087e-01
5.845094e-01
5.874505e-01
5.899224e-01
5.915880e-01
5.921789e-01
5.915975e-01
5.899656e-01
5.875365e-01
5.846293e-01
5.815705e-01
5.785402e-01
5.750381e-01
0.000000e+00
1.000000e+00
5.751076e-01
5.768679e-01
5.790859e-01
5.813293e-01
5.834572e-01
5.852456e-01
5.864501e-01
5.868758e-01
5.864477e-01
5.852551e-01
5.835073e-01
5.814376e-01
5.792754e-01
5.770744e-01
5.744708e-01
0.000000e+00
1.000000e+00
5.740883e-01
5.749690e-01
5.760834e-01
5.772176e-01
5.782935e-01
5.791979e-01
5.798074e-01
5.800218e-01
5.798024e-01
5.791916e-01
5.783102e-01
5.773017e-01
5.762792e-01
5.752074e-01
5.735143e-01
0.000000e+00
1.000000e+00
5.728725e-01
5.726322e-01
5.724095e-01
5.721869e-01
5.719772e-01
5.718038e-01
5.716900e-01
5.716518e-01
5.716950e-01
5.718122e-01
5.720222e-01
5.722903e-01
5.725946e-01
5.729284e-01
5.720474e-01
0.000000e+00
1.000000e+00
5.715202e-01
5.699020e-01
5.681390e-01
5.663405e-01
5.646389e-01
5.632152e-01
5.622632e-01
5.619348e-01
5.622901e-01
5.632702e-01
5.647515e-01
5.664759e-01
5.683649e-01
5.703212e-01
5.704783e-01
0.000000e+00
1.000000e+00
5.700643e-01
5.668838e-01
5.634208e-01
5.598816e-01
5.565324e-01
5.537269e-01
5.518505e-01
5.512053e-01
5.519066e-01
5.538378e-01
5.567000e-01
5.600515e-01
5.636669e-01
5.673998e-01
5.691238e-01
0.000000e+00
1.000000e+00
5.685623e-01
5.637212e-01
5.584749e-01
5.531110e-01
5.480353e-01
5.437836e-01
5.409391e-01
5.399611e-01
5.410210e-01
5.439421e-01
5.482508e-01
5.533103e-01
5.587184e-01
5.642396e-01
5.679931e-01
0.000000e+00
1.000000e+00
5.670833e-01
5.605887e-01
5.535767e-01
5.464085e-01
5.396258e-01
5.339447e-01
5.301411e-01
5.288302e-01
5.302426e-01
5.341415e-01
5.398868e-01
5.466438e-01
5.538255e-01
5.610615e-01
5.667231e-01
0.000000e+00
1.000000e+00
5.657545e-01
5.576823e-01
5.490304e-01
5.401899e-01
5.318249e-01
5.248171e-01
5.201226e-01
5.185016e-01
5.202402e-01
5.250455e-01
5.321279e-01
5.404719e-01
5.492891e-01
5.580926e-01
5.654581e-01
0.000000e+00
1.000000e+00
5.645691e-01
5.551838e-01
5.451264e-01
5.348496e-01
5.251247e-01
5.169761e-01
5.115157e-01
5.096281e-01
5.116468e-01
5.172300e-01
5.254635e-01
5.351776e-01
5.453958e-01
5.555408e-01
5.643148e-01
0.000000e+00
1.000000e+00
5.635699e-01
5.532409e-01
5.420974e-01
5.307037e-01
5.199210e-01
5.108853e-01
5.048295e-01
5.027347e-01
5.049710e-01
5.111578e-01
5.202866e-01
5.310677e-01
5.423771e-01
5.536099e-01
5.633167e-01
0.000000e+00
1.000000e+00
5.628375e-01
5.519579e-01
5.400867e-01
5.279492e-01
5.164617e-01
5.068354e-01
5.003836e-01
4.981512e-01
5.005330e-01
5.071213e-01
5.168442e-01
5.283346e-01
5.403760e-01
5.524163e-01
5.625552e-01
0.000000e+00
1.000000e+00
5.625620e-01
5.513547e-01
5.391384e-01
5.266500e-01
5.148297e-01
5.049242e-01
4.982850e-01
4.959872e-01
4.984370e-01
5.052149e-01
5.152147e-01
5.270419e-01
5.394455e-01
5.519644e-01
5.621216e-01
0.000000e+00
1.000000e+00
5.625380e-01
5.513958e-01
5.392007e-01
5.267351e-01
5.149368e-01
5.050507e-01
4.984253e-01
4.961334e-01
4.985798e-01
5.053464e-01
5.153217e-01
5.271288e-01
5.395198e-01
5.521158e-01
5.620965e-01
0.000000e+00
1.000000e+00
5.628113e-01
5.520161e-01
5.401651e-01
5.280528e-01
5.165888e-01
5.069835e-01
5.005472e-01
4.983216e-01
5.006992e-01
5.072733e-01
5.169615e-01
5.284414e-01
5.404824e-01
5.527610e-01
5.624717e-01
0.000000e+00
1.000000e+00
5.633181e-01
5.531164e-01
5.418724e-01
5.303870e-01
5.195150e-01
5.104052e-01
5.043014e-01