<?xml version="1.0"?>
<VTKFile type="StructuredGrid" version="0.1">
  <StructuredGrid WholeExtent="0 16 0 16 0 16">
    <Piece Extent="0 16 0 16 0 16">
      <PointData Scalars="temperature" Vectors="velocity">
        <DataArray type="Float32" Name="temperature" format="ascii">
1.000000e+00
5.829826e-01
5.921341e-01
6.007783e-01
6.083550e-01
6.145731e-01
6.191935e-01
6.220388e-01
6.229995e-01
6.220388e-01
6.191935e-01
6.145730e-01
6.083549e-01
6.007782e-01
5.921339e-01
5.824402e-01
0.000000e+00
1.000000e+00
5.827952e-01
5.917665e-01
6.002446e-01
6.076757e-01
6.137743e-01
6.183059e-01
6.210965e-01
6.220388e-01
6.210965e-01
6.183059e-01
6.137742e-01
6.076756e-01
6.002444e-01
5.917662e-01
5.822528e-01
0.000000e+00
1.000000e+00
5.822401e-01
5.906776e-01
5.986638e-01
6.056638e-01
6.114085e-01
6.156773e-01
6.183059e-01
6.191935e-01
6.183059e-01
6.156772e-01
6.114085e-01
6.056637e-01
5.986637e-01
5.906774e-01
5.816977e-01
0.000000e+00
1.000000e+00
5.813387e-01
5.889095e-01
5.960968e-01
6.023966e-01
6.075668e-01
6.114085e-01
6.137743e-01
6.145731e-01
6.137742e-01
6.114085e-01
6.075667e-01
6.023966e-01
5.960967e-01
5.889092e-01
5.807963e-01
0.000000e+00
1.000000e+00
5.801256e-01
5.865299e-01
5.926422e-01
5.979998e-01
6.023966e-01
6.056638e-01
6.076757e-01
6.083550e-01
6.076756e-01
6.056637e-01
6.023966e-01
5.979997e-01
5.926421e-01
5.865297e-01
5.795833e-01
0.000000e+00
1.000000e+00
5.786475e-01
5.836304e-01
5.884328e-01
5.926422e-01
5.960968e-01
5.986638e-01
6.002445e-01
6.007782e-01
6.002445e-01
5.986637e-01
5.960967e-01
5.926422e-01
5.884327e-01
5.836302e-01
5.781051e-01
0.000000e+00
1.000000e+00
5.769610e-01
5.803223e-01
5.836303e-01
5.865298e-01
5.889094e-01
5.906775e-01
5.917663e-01
5.921340e-01
5.917663e-01
5.906775e-01
5.889093e-01
5.865298e-01
5.836303e-01
5.803222e-01
5.764187e-01
0.000000e+00
1.000000e+00
5.751311e-01
5.767329e-01
5.784193e-01
5.798974e-01
5.811105e-01
5.820119e-01
5.825670e-01
5.827544e-01
5.825670e-01
5.820119e-01
5.811105e-01
5.798974e-01
5.784193e-01
5.767328e-01
5.745889e-01
0.000000e+00
1.000000e+00
5.732281e-01
5.730000e-01
5.730000e-01
5.730000e-01
5.730000e-01
5.730000e-01
5.730000e-01
5.730000e-01
5.730000e-01
5.730000e-01
5.730000e-01
5.730000e-01
5.730000e-01
5.730000e-01
5.726859e-01
0.000000e+00
1.000000e+00
5.713251e-01
5.692672e-01
5.675807e-01
5.661026e-01
5.648895e-01
5.639881e-01
5.634330e-01
5.632456e-01
5.634330e-01
5.639881e-01
5.648895e-01
5.661026e-01
5.675808e-01
5.692671e-01
5.707830e-01
0.000000e+00
1.000000e+00
5.694952e-01
5.656778e-01
5.623697e-01
5.594702e-01
5.570907e-01
5.553225e-01
5.542337e-01
5.538661e-01
5.542337e-01
5.553225e-01
5.570907e-01
5.594703e-01
5.623698e-01
5.656777e-01
5.689531e-01
0.000000e+00
1.000000e+00
5.678088e-01
5.623697e-01
5.575672e-01
5.533578e-01
5.499033e-01
5.473363e-01
5.457556e-01
5.452218e-01
5.457556e-01
5.473363e-01
5.499033e-01
5.533579e-01
5.575673e-01
5.623697e-01
5.672667e-01
0.000000e+00
1.000000e+00
5.663306e-01
5.594702e-01
5.533578e-01
5.480003e-01
5.436034e-01
5.403363e-01
5.383244e-01
5.376451e-01
5.383244e-01
5.403363e-01
5.436035e-01
5.480003e-01
5.533579e-01
5.594703e-01
5.657886e-01
0.000000e+00
1.000000e+00
5.651175e-01
5.570907e-01
5.499032e-01
5.436034e-01
5.384333e-01
5.345915e-01
5.322258e-01
5.314270e-01
5.322258e-01
5.345916e-01
5.384333e-01
5.436035e-01
5.499033e-01
5.570907e-01
5.645755e-01
0.000000e+00
1.000000e+00
5.642160e-01
5.553225e-01
5.473362e-01
5.403363e-01
5.345915e-01
5.303228e-01
5.276941e-01
5.268065e-01
5.276941e-01
5.303228e-01
5.345916e-01
5.403363e-01
5.473363e-01
5.553226e-01
5.636742e-01
0.000000e+00
1.000000e+00
5.636609e-01
5.542336e-01
5.457555e-01
5.383244e-01
5.322258e-01
5.276941e-01
5.249036e-01
5.239613e-01
5.249036e-01
5.276942e-01
5.322258e-01
5.383244e-01
5.457556e-01
5.542337e-01
5.631191e-01
0.000000e+00
1.000000e+00
5.634735e-01
5.538660e-01
5.452217e-01
5.376450e-01
5.314270e-01
5.268065e-01
5.239613e-01
5.230006e-01
5.239613e-01
5.268066e-01
5.314270e-01
5.376451e-01
5.452219e-01
5.538661e-01
5.629316e-01
0.000000e+00
1.000000e+00
5.827952e-01
5.917665e-01
6.002446e-01
6.076757e-01
6.137743e-01
6.183059e-01
6.210965e-01
6.220388e-01
6.210965e-01
6.183059e-01
6.137742e-01
6.076756e-01
6.002444e-01
5.917662e-01
5.822528e-01
0.000000e+00
1.000000e+00
5.826114e-01
5.914059e-01
5.997211e-01
6.070094e-01
6.129908e-01
6.174354e-01
6.201724e-01
6.210965e-01
6.201723e-01
6.174354e-01
6.129907e-01
6.070093e-01
5.997209e-01
5.914056e-01
5.820690e-01
0.000000e+00
1.000000e+00
5.820670e-01
5.903380e-01
5.981707e-01
6.050362e-01
6.106705e-01
6.148572e-01
6.174354e-01
6.183059e-01
6.174354e-01
6.148572e-01
6.106705e-01
6.050361e-01
5.981706e-01
5.903377e-01
5.815246e-01
0.000000e+00
1.000000e+00
5.811829e-01
5.886038e-01
5.956530e-01
6.018318e-01
6.069026e-01
6.106705e-01
6.129908e-01
6.137743e-01
6.129908e-01
6.106705e-01
6.069025e-01
6.018317e-01
5.956529e-01
5.886035e-01
5.806405e-01
0.000000e+00
1.000000e+00
5.799931e-01
5.862699e-01
5.922648e-01
5.975194e-01
6.018318e-01
6.050361e-01
6.070094e-01
6.076757e-01
6.070094e-01
6.050361e-01
6.018317e-01
5.975194e-01
5.922647e-01
5.862697e-01
5.794507e-01
0.000000e+00
1.000000e+00
5.785433e-01
5.834261e-01
5.881363e-01
5.922648e-01
5.956530e-01
5.981706e-01
5.997210e-01
6.002445e-01
5.997210e-01
5.981706e-01
5.956529e-01
5.922647e-01
5.881362e-01
5.834259e-01
5.780010e-01
0.000000e+00
1.000000e+00
5.768893e-01
5.801816e-01
5.834261e-01
5.862698e-01
5.886037e-01
5.903378e-01
5.914058e-01
5.917663e-01
5.914057e-01
5.903378e-01
5.886036e-01
5.862698e-01
5.834260e-01
5.801815e-01
5.763470e-01
0.000000e+00
1.000000e+00
5.750946e-01
5.766612e-01
5.783152e-01
5.797649e-01
5.809547e-01
5.818388e-01
5.823832e-01
5.825670e-01
5.823832e-01
5.818388e-01
5.809547e-01
5.797649e-01
5.783151e-01
5.766611e-01
5.745523e-01
0.000000e+00
1.000000e+00
5.732281e-01
5.730000e-01
5.730000e-01
5.730000e-01
5.730000e-01
5.730000e-01
5.730000e-01
5.730000e-01
5.730000e-01
5.730000e-01
5.730000e-01
5.730000e-01
5.730000e-01
5.730000e-01
5.726859e-01
0.000000e+00
1.000000e+00
5.713617e-01
5.693389e-01
5.676849e-01
5.662351e-01
5.650454e-01
5.641613e-01
5.636169e-01
5.634330e-01
5.636169e-01
5.641613e-01
5.650454e-01
5.662351e-01
5.676849e-01
5.693389e-01
5.708195e-01
0.000000e+00
1.000000e+00
5.695669e-01
5.658185e-01
5.625740e-01
5.597302e-01
5.573964e-01
5.556622e-01
5.545943e-01
5.542337e-01
5.545943e-01
5.556622e-01
5.573964e-01
5.597302e-01
5.625740e-01
5.658184e-01
5.690248e-01
0.000000e+00
1.000000e+00
5.679129e-01
5.625740e-01
5.578638e-01
5.537352e-01
5.503471e-01
5.478294e-01
5.462790e-01
5.457556e-01
5.462791e-01
5.478294e-01
5.503471e-01
5.537353e-01
5.578638e-01
5.625740e-01
5.673709e-01
0.000000e+00
1.000000e+00
5.664631e-01
5.597302e-01
5.537352e-01
5.484806e-01
5.441683e-01
5.409639e-01
5.389907e-01
5.383244e-01
5.389907e-01
5.409639e-01
5.441683e-01
5.484807e-01
5.537353e-01
5.597302e-01
5.659211e-01
0.000000e+00
1.000000e+00
5.652733e-01
5.573963e-01
5.503470e-01
5.441683e-01
5.390975e-01
5.353295e-01
5.330093e-01
5.322258e-01
5.330093e-01
5.353296e-01
5.390975e-01
5.441683e-01
5.503471e-01
5.573964e-01
5.647314e-01
0.000000e+00
1.000000e+00
5.643892e-01
5.556621e-01
5.478294e-01
5.409639e-01
5.353295e-01
5.311428e-01
5.285647e-01
5.276941e-01
5.285647e-01
5.311429e-01
5.353296e-01
5.409640e-01
5.478295e-01
5.556622e-01
5.638473e-01
0.000000e+00
1.000000e+00
5.638448e-01
5.545942e-01
5.462790e-01
5.389906e-01
5.330092e-01
5.285647e-01
5.258277e-01
5.249036e-01
5.258277e-01
5.285647e-01
5.330093e-01
5.389907e-01
5.462791e-01
5.545943e-01
5.633029e-01
0.000000e+00
1.000000e+00
5.636609e-01
5.542336e-01
5.457555e-01
5.383244e-01
5.322258e-01
5.276941e-01
5.249036e-01
5.239613e-01
5.249036e-01
5.276942e-01
5.322258e-01
5.383244e-01
5.457556e-01
5.542337e-01
5.631191e-01
0.000000e+00
1.000000e+00
5.822401e-01
5.906776e-01
5.986638e-01
6.056638e-01
6.114085e-01
6.156773e-01
6.183059e-01
6.191935e-01
6.183059e-01
6.156772e-01
6.114085e-01
6.056637e-01
5.986637e-01
5.906774e-01
5.816977e-01
0.000000e+00
1.000000e+00
5.820670e-01
5.903380e-01
5.981707e-01
6.050362e-01
6.106705e-01
6.148572e-01
6.174354e-01
6.183059e-01
6.174354e-01
6.148572e-01
6.106705e-01
6.050361e-01
5.981706e-01
5.903377e-01
5.815246e-01
0.000000e+00
1.000000e+00
5.815541e-01
5.893320e-01
5.967103e-01
6.031774e-01
6.084849e-01
6.124287e-01
6.148572e-01
6.156772e-01
6.148572e-01
6.124286e-01
6.084848e-01
6.031773e-01
5.967102e-01
5.893318e-01
5.810118e-01
0.000000e+00
1.000000e+00
5.807213e-01
5.876984e-01
5.943387e-01
6.001590e-01
6.049355e-01
6.084849e-01
6.106705e-01
6.114085e-01
6.106705e-01
6.084848e-01
6.049355e-01
6.001589e-01
5.943386e-01
5.876982e-01
5.801790e-01
0.000000e+00
1.000000e+00
5.796006e-01
5.855000e-01
5.911471e-01
5.960968e-01
6.001589e-01
6.031774e-01
6.050361e-01
6.056638e-01
6.050361e-01
6.031774e-01
6.001589e-01
5.960967e-01
5.911470e-01
5.854998e-01
5.790582e-01
0.000000e+00
1.000000e+00
5.782349e-01
5.828212e-01
5.872581e-01
5.911470e-01
5.943387e-01
5.967102e-01
5.981706e-01
5.986637e-01
5.981706e-01
5.967102e-01
5.943386e-01
5.911470e-01
5.872580e-01
5.828210e-01
5.776926e-01
0.000000e+00
1.000000e+00
5.766769e-01
5.797650e-01
5.828211e-01
5.854999e-01
5.876983e-01
5.893319e-01
5.903378e-01
5.906775e-01
5.903378e-01
5.893319e-01
5.876983e-01
5.854999e-01
5.828211e-01
5.797648e-01
5.761346e-01
0.000000e+00
1.000000e+00
5.749863e-01
5.764488e-01
5.780068e-01
5.793724e-01
5.804932e-01
5.813259e-01
5.818388e-01
5.820119e-01
5.818388e-01
5.813259e-01
5.804931e-01
5.793724e-01
5.780068e-01
5.764487e-01
5.744440e-01
0.000000e+00
1.000000e+00
5.732281e-01
5.730000e-01
5.730000e-01
5.730000e-01
5.730000e-01
5.730000e-01
5.730000e-01
5.730000e-01
5.730000e-01
5.730000e-01
5.730000e-01
5.730000e-01
5.730000e-01
5.730000e-01
5.726859e-01
0.000000e+00
1.000000e+00
5.714699e-01
5.695513e-01
5.679933e-01
5.666276e-01
5.655069e-01
5.646741e-01
5.641613e-01
5.639881e-01
5.641613e-01
5.646741e-01
5.655069e-01
5.666276e-01
5.679933e-01
5.695513e-01
5.709278e-01
0.000000e+00
1.000000e+00
5.697793e-01
5.662351e-01
5.631789e-01
5.605001e-01
5.583017e-01
5.566682e-01
5.556622e-01
5.553225e-01
5.556622e-01
5.566682e-01
5.583017e-01
5.605002e-01
5.631790e-01
5.662351e-01
5.692373e-01
0.000000e+00
1.000000e+00
5.682213e-01
5.631789e-01
5.587420e-01
5.548530e-01
5.516614e-01
5.492898e-01
5.478294e-01
5.473363e-01
5.478294e-01
5.492898e-01
5.516614e-01
5.548530e-01
5.587420e-01
5.631789e-01
5.676792e-01
0.000000e+00
1.000000e+00
5.668556e-01
5.605001e-01
5.548530e-01
5.499032e-01
5.458411e-01
5.428227e-01
5.409639e-01
5.403363e-01
5.409639e-01
5.428227e-01
5.458411e-01
5.499033e-01
5.548531e-01
5.605002e-01
5.663136e-01
0.000000e+00
1.000000e+00
5.657349e-01
5.583017e-01
5.516614e-01
5.458411e-01
5.410645e-01
5.375152e-01
5.353295e-01
5.345915e-01
5.353296e-01
5.375152e-01
5.410646e-01
5.458412e-01
5.516615e-01
5.583017e-01
5.651929e-01
0.000000e+00
1.000000e+00
5.649020e-01
5.566681e-01
5.492898e-01
5.428226e-01
5.375152e-01
5.335714e-01
5.311428e-01
5.303228e-01
5.311429e-01
5.335714e-01
5.375152e-01
5.428227e-01
5.492899e-01
5.566682e-01
5.643601e-01
0.000000e+00
1.000000e+00
5.643892e-01
5.556621e-01
5.478294e-01
5.409639e-01
5.353295e-01
5.311428e-01
5.285647e-01
5.276941e-01
5.285647e-01
5.311429e-01
5.353296e-01
5.409640e-01
5.478295e-01
5.556622e-01
5.638473e-01
0.000000e+00
1.000000e+00
5.642160e-01
5.553225e-01
5.473362e-01
5.403363e-01
5.345915e-01
5.303228e-01
5.276941e-01
5.268066e-01
5.276942e-01
5.303228e-01
5.345916e-01
5.403363e-01
5.473364e-01
5.553226e-01
5.636741e-01
0.000000e+00
1.000000e+00
5.813387e-01
5.889095e-01
5.960968e-01
6.023966e-01
6.075668e-01
6.114085e-01
6.137743e-01
6.145731e-01
6.137742e-01
6.114085e-01
6.075667e-01
6.023966e-01
5.960967e-01
5.889092e-01
5.807963e-01
0.000000e+00
1.000000e+00
5.811829e-01
5.886038e-01
5.956530e-01
6.018318e-01
6.069026e-01
6.106705e-01
6.129908e-01
6.137742e-01
6.129908e-01
6.106705e-01
6.069025e-01
6.018317e-01
5.956529e-01
5.886035e-01
5.806405e-01
0.000000e+00
1.000000e+00
5.807213e-01
5.876984e-01
5.943387e-01
6.001590e-01
6.049355e-01
6.084849e-01
6.106705e-01
6.114085e-01
6.106705e-01
6.084848e-01
6.049355e-01
6.001589e-01
5.943386e-01
5.876982e-01
5.801790e-01
0.000000e+00
1.000000e+00
5.799718e-01
5.862282e-01
5.922043e-01
5.974424e-01
6.017412e-01
6.049355e-01
6.069026e-01
6.075667e-01
6.069025e-01
6.049355e-01
6.017412e-01
5.974423e-01
5.922042e-01
5.862280e-01
5.794295e-01
0.000000e+00
1.000000e+00
5.789632e-01
5.842497e-01
5.893319e-01
5.937866e-01
5.974424e-01
6.001589e-01
6.018318e-01
6.023966e-01
6.018317e-01
6.001589e-01
5.974424e-01
5.937865e-01
5.893318e-01
5.842495e-01
5.784209e-01
0.000000e+00
1.000000e+00
5.777341e-01
5.818388e-01
5.858319e-01
5.893319e-01
5.922043e-01
5.943386e-01
5.956530e-01
5.960968e-01
5.956530e-01
5.943386e-01
5.922042e-01
5.893319e-01
5.858319e-01
5.818387e-01
5.771918e-01
0.000000e+00
1.000000e+00
5.763319e-01
5.790883e-01
5.818388e-01
5.842496e-01
5.862281e-01
5.876983e-01
5.886036e-01
5.889093e-01
5.886036e-01
5.876983e-01
5.862281e-01
5.842496e-01
5.818387e-01
5.790882e-01
5.757896e-01
0.000000e+00
1.000000e+00
5.748104e-01
5.761038e-01
5.775060e-01
5.787350e-01
5.797437e-01
5.804931e-01
5.809547e-01
5.811105e-01
5.809547e-01
5.804931e-01
5.797436e-01
5.787350e-01
5.775060e-01
5.761037e-01
5.742682e-01
0.000000e+00
1.000000e+00
5.732281e-01
5.730000e-01
5.730000e-01
5.730000e-01
5.730000e-01
5.730000e-01
5.730000e-01
5.730000e-01
5.730000e-01
5.730000e-01
5.730000e-01
5.730000e-01
5.730000e-01
5.730000e-01
5.726859e-01
0.000000e+00
1.000000e+00
5.716458e-01
5.698963e-01
5.684941e-01
5.672650e-01
5.662564e-01
5.655069e-01
5.650454e-01
5.648895e-01
5.650454e-01
5.655069e-01
5.662564e-01
5.672650e-01
5.684941e-01
5.698962e-01
5.711037e-01
0.000000e+00
1.000000e+00
5.701243e-01
5.669118e-01
5.641613e-01
5.617504e-01
5.597719e-01
5.583017e-01
5.573964e-01
5.570907e-01
5.573964e-01
5.583017e-01
5.597719e-01
5.617504e-01
5.641613e-01
5.669118e-01
5.695822e-01
0.000000e+00
1.000000e+00
5.687221e-01
5.641613e-01
5.601681e-01
5.566681e-01
5.537958e-01
5.516614e-01
5.503471e-01
5.499033e-01
5.503471e-01
5.516614e-01
5.537958e-01
5.566682e-01
5.601682e-01
5.641613e-01
5.681800e-01
0.000000e+00
1.000000e+00
5.674930e-01
5.617504e-01
5.566681e-01
5.522135e-01
5.485576e-01
5.458411e-01
5.441683e-01
5.436034e-01
5.441683e-01
5.458411e-01
5.485577e-01
5.522135e-01
5.566682e-01
5.617504e-01
5.669510e-01
0.000000e+00
1.000000e+00
5.664844e-01
5.597719e-01
5.537957e-01
5.485576e-01
5.442588e-01
5.410645e-01
5.390975e-01
5.384333e-01
5.390975e-01
5.410646e-01
5.442589e-01
5.485577e-01
5.537958e-01
5.597719e-01
5.659424e-01
0.000000e+00
1.000000e+00
5.657348e-01
5.583017e-01
5.516614e-01
5.458411e-01
5.410645e-01
5.375152e-01
5.353295e-01
5.345915e-01
5.353296e-01
5.375152e-01
5.410646e-01
5.458412e-01
5.516615e-01
5.583017e-01
5.651929e-01
0.000000e+00
1.000000e+00
5.652733e-01
5.573964e-01
5.503470e-01
5.441683e-01
5.390975e-01
5.353295e-01
5.330093e-01
5.322258e-01
5.330093e-01
5.353296e-01
5.390975e-01
5.441683e-01
5.503471e-01
5.573964e-01
5.647314e-01
0.000000e+00
1.000000e+00
5.651174e-01
5.570907e-01
5.499032e-01
5.436034e-01
5.384333e-01
5.345915e-01
5.322258e-01
5.314270e-01
5.322258e-01
5.345916e-01
5.384333e-01
5.436035e-01
5.499033e-01
5.570907e-01
5.645755e-01
0.000000e+00
1.000000e+00
5.801256e-01
5.865299e-01
5.926422e-01
5.979998e-01
6.023966e-01
6.056638e-01
6.076757e-01
6.083550e-01
6.076756e-01
6.056637e-01
6.023966e-01
5.979997e-01
5.926421e-01
5.865297e-01
5.795833e-01
0.000000e+00
1.000000e+00
5.799931e-01
5.862699e-01
5.922648e-01
5.975194e-01
6.018318e-01
6.050361e-01
6.070094e-01
6.076757e-01
6.070094e-01
6.050361e-01
6.018317e-01
5.975194e-01
5.922647e-01
5.862697e-01
5.794507e-01
0.000000e+00
1.000000e+00
5.796006e-01
5.855000e-01
5.911471e-01
5.960968e-01
6.001589e-01
6.031774e-01
6.050361e-01
6.056638e-01
6.050361e-01
6.031774e-01
6.001589e-01
5.960967e-01
5.911470e-01
5.854998e-01
5.790582e-01
0.000000e+00
1.000000e+00
5.789632e-01
5.842497e-01
5.893319e-01
5.937866e-01
5.974424e-01
6.001589e-01
6.018318e-01
6.023966e-01
6.018317e-01
6.001589e-01
5.974424e-01
5.937865e-01
5.893318e-01
5.842495e-01
5.784209e-01
0.000000e+00
1.000000e+00
5.781054e-01
5.825671e-01
5.868892e-01
5.906775e-01
5.937866e-01
5.960968e-01
5.975194e-01
5.979998e-01
5.975194e-01
5.960968e-01
5.937865e-01
5.906775e-01
5.868891e-01
5.825669e-01
5.775631e-01
0.000000e+00
1.000000e+00
5.770602e-01
5.805168e-01
5.839127e-01
5.868892e-01
5.893319e-01
5.911470e-01
5.922648e-01
5.926422e-01
5.922648e-01
5.911470e-01
5.893319e-01
5.868891e-01
5.839126e-01
5.805167e-01
5.765179e-01
0.000000e+00
1.000000e+00
5.758677e-01
5.781777e-01
5.805168e-01
5.825670e-01
5.842496e-01
5.854999e-01
5.862698e-01
5.865298e-01
5.862698e-01
5.854999e-01
5.842496e-01
5.825670e-01
5.805167e-01
5.781776e-01
5.753254e-01
0.000000e+00
1.000000e+00
5.745737e-01
5.756396e-01
5.768320e-01
5.778772e-01
5.787350e-01
5.793724e-01
5.797649e-01
5.798974e-01
5.797649e-01
5.793724e-01
5.787350e-01
5.778772e-01
5.768320e-01
5.756395e-01
5.740315e-01
0.000000e+00
1.000000e+00
5.732281e-01
5.730000e-01
5.730000e-01
5.730000e-01
5.730000e-01
5.730000e-01
5.730000e-01
5.730000e-01
5.730000e-01
5.730000e-01
5.730000e-01
5.730000e-01
5.730000e-01
5.730000e-01
5.726859e-01
0.000000e+00
1.000000e+00
5.718825e-01
5.703605e-01
5.691680e-01
5.681228e-01
5.672650e-01
5.666276e-01
5.662351e-01
5.661026e-01
5.662351e-01
5.666276e-01
5.672650e-01
5.681228e-01
5.691680e-01
5.703605e-01
5.713403e-01
0.000000e+00
1.000000e+00
5.705885e-01
5.678224e-01
5.654833e-01
5.634330e-01
5.617504e-01
5.605001e-01
5.597302e-01
5.594703e-01
5.597302e-01
5.605002e-01
5.617504e-01
5.634330e-01
5.654833e-01
5.678224e-01
5.700464e-01
0.000000e+00
1.000000e+00
5.693960e-01
5.654833e-01
5.620874e-01
5.591109e-01
5.566681e-01
5.548530e-01
5.537353e-01
5.533579e-01
5.537353e-01
5.548530e-01
5.566682e-01
5.591109e-01
5.620874e-01
5.654833e-01
5.688540e-01
0.000000e+00
1.000000e+00
5.683508e-01
5.634330e-01
5.591109e-01
5.553225e-01
5.522135e-01
5.499033e-01
5.484806e-01
5.480003e-01
5.484807e-01
5.499033e-01
5.522135e-01
5.553226e-01
5.591109e-01
5.634330e-01
5.678088e-01
0.000000e+00
1.000000e+00
5.674930e-01
5.617504e-01
5.566681e-01
5.522135e-01
5.485576e-01
5.458411e-01
5.441683e-01
5.436034e-01
5.441683e-01
5.458411e-01
5.485577e-01
5.522135e-01
5.566682e-01
5.617504e-01
5.669510e-01
0.000000e+00
1.000000e+00
5.668556e-01
5.605001e-01
5.548530e-01
5.499032e-01
5.458411e-01
5.428227e-01
5.409639e-01
5.403363e-01
5.409639e-01
5.428227e-01
5.458411e-01
5.499033e-01
5.548531e-01
5.605002e-01
5.663137e-01
0.000000e+00
1.000000e+00
5.664631e-01
5.597302e-01
5.537352e-01
5.484806e-01
5.441683e-01
5.409639e-01
5.389907e-01
5.383244e-01
5.389907e-01
5.409639e-01
5.441683e-01
5.484807e-01
5.537353e-01
5.597302e-01
5.659212e-01
0.000000e+00
1.000000e+00
5.663305e-01
5.594702e-01
5.533578e-01
5.480003e-01
5.436034e-01
5.403363e-01
5.383244e-01
5.376451e-01
5.383244e-01
5.403363e-01
5.436035e-01
5.480003e-01
5.533579e-01
5.594703e-01
5.657886e-01
0.000000e+00
1.000000e+00
5.786474e-01
5.836304e-01
5.884328e-01
5.926422e-01
5.960968e-01
5.986638e-01
6.002445e-01
6.007782e-01
6.002445e-01
5.986637e-01
5.960967e-01
5.926422e-01
5.884327e-01
5.836302e-01
5.781051e-01
0.000000e+00
1.000000e+00
5.785433e-01
5.834261e-01
5.881363e-01
5.922648e-01
5.956530e-01
5.981706e-01
5.997210e-01
6.002445e-01
5.997210e-01
5.981706e-01
5.956529e-01
5.922647e-01
5.881362e-01
5.834259e-01
5.780010e-01
0.000000e+00
1.000000e+00
5.782349e-01
5.828212e-01
5.872581e-01
5.911470e-01
5.943386e-01
5.967102e-01
5.981706e-01
5.986637e-01
5.981706e-01
5.967102e-01
5.943386e-01
5.911470e-01
5.872580e-01
5.828210e-01
5.776926e-01
0.000000e+00
1.000000e+00
5.777341e-01
5.818388e-01
5.858319e-01
5.893319e-01
5.922043e-01
5.943386e-01
5.956530e-01
5.960968e-01
5.956530e-01
5.943386e-01
5.922042e-01
5.893319e-01
5.858319e-01
5.818387e-01
5.771918e-01
0.000000e+00
1.000000e+00
5.770602e-01
5.805168e-01
5.839127e-01
5.868892e-01
5.893319e-01
5.911470e-01
5.922648e-01
5.926422e-01
5.922648e-01
5.911470e-01
5.893319e-01
5.868891e-01
5.839126e-01
5.805167e-01
5.765179e-01
0.000000e+00
1.000000e+00
5.762389e-01
5.789059e-01
5.815740e-01
5.839126e-01
5.858319e-01
5.872580e-01
5.881362e-01
5.884328e-01
5.881362e-01
5.872580e-01
5.858319e-01
5.839126e-01
5.815740e-01
5.789058e-01
5.756967e-01
0.000000e+00
1.000000e+00
5.753020e-01
5.770681e-01
5.789059e-01
5.805168e-01
5.818388e-01
5.828211e-01
5.834260e-01
5.836303e-01
5.834260e-01
5.828211e-01
5.818388e-01
5.805167e-01
5.789059e-01
5.770680e-01
5.747598e-01
0.000000e+00
1.000000e+00
5.742854e-01
5.750739e-01
5.760108e-01
5.768320e-01
5.775060e-01
5.780068e-01
5.783152e-01
5.784193e-01
5.783151e-01
5.780068e-01
5.775060e-01
5.768320e-01
5.760108e-01
5.750738e-01
5.737432e-01
0.000000e+00
1.000000e+00
5.732281e-01
5.730000e-01
5.730000e-01
5.730000e-01
5.730000e-01
5.730000e-01
5.730000e-01
5.730000e-01
5.730000e-01
5.730000e-01
5.730000e-01
5.730000e-01
5.730000e-01
5.730000e-01
5.726859e-01
0.000000e+00
1.000000e+00
5.721708e-01
5.709262e-01
5.699892e-01
5.691680e-01
5.684941e-01
5.679933e-01
5.676849e-01
5.675808e-01
5.676849e-01
5.679933e-01
5.684941e-01
5.691680e-01
5.699892e-01
5.709261e-01
5.716287e-01
0.000000e+00
1.000000e+00
5.711542e-01
5.689320e-01
5.670941e-01
5.654833e-01
5.641613e-01
5.631789e-01
5.625740e-01
5.623698e-01
5.625740e-01
5.631789e-01
5.641613e-01
5.654833e-01
5.670942e-01
5.689320e-01
5.706121e-01
0.000000e+00
1.000000e+00
5.702173e-01
5.670942e-01
5.644260e-01
5.620874e-01
5.601681e-01
5.587420e-01
5.578638e-01
5.575673e-01
5.578638e-01
5.587420e-01
5.601682e-01
5.620874e-01
5.644261e-01
5.670941e-01
5.696752e-01
0.000000e+00
1.000000e+00
5.693960e-01
5.654833e-01
5.620874e-01
5.591109e-01
5.566681e-01
5.548530e-01
5.537353e-01
5.533579e-01
5.537353e-01
5.548530e-01
5.566682e-01
5.591109e-01
5.620874e-01
5.654833e-01
5.688540e-01
0.000000e+00
1.000000e+00
5.687221e-01
5.641613e-01
5.601681e-01
5.566681e-01
5.537958e-01
5.516614e-01
5.503471e-01
5.499033e-01
5.503471e-01
5.516614e-01
5.537958e-01
5.566682e-01
5.601682e-01
5.641613e-01
5.681801e-01
0.000000e+00
1.000000e+00
5.682213e-01
5.631789e-01
5.587420e-01
5.548530e-01
5.516614e-01
5.492898e-01
5.478294e-01
5.473363e-01
5.478294e-01
5.492898e-01
5.516614e-01
5.548530e-01
5.587420e-01
5.631789e-01
5.676793e-01
0.000000e+00
1.000000e+00
5.679129e-01
5.625740e-01
5.578638e-01
5.537352e-01
5.503471e-01
5.478294e-01
5.462791e-01
5.457556e-01
5.462791e-01
5.478294e-01
5.503471e-01
5.537353e-01
5.578638e-01
5.625740e-01
5.673709e-01
0.000000e+00
1.000000e+00
5.678087e-01
5.623697e-01
5.575672e-01
5.533578e-01
5.499033e-01
5.473363e-01
5.457556e-01
5.452218e-01
5.457556e-01
5.473363e-01
5.499033e-01
5.533579e-01
5.575673e-01
5.623698e-01
5.672668e-01
0.000000e+00
1.000000e+00
5.769610e-01
5.803223e-01
5.836303e-01
5.865298e-01
5.889093e-01
5.906775e-01
5.917663e-01
5.921340e-01
5.917663e-01
5.906775e-01
5.889093e-01
5.865298e-01
5.836303e-01
5.803222e-01
5.764187e-01
0.000000e+00
1.000000e+00
5.768893e-01
5.801816e-01
5.834261e-01
5.862698e-01
5.886037e-01
5.903378e-01
5.914057e-01
5.917663e-01
5.914057e-01
5.903378e-01
5.886036e-01
5.862698e-01
5.834260e-01
5.801815e-01
5.763470e-01
0.000000e+00
1.000000e+00
5.766769e-01
5.797650e-01
5.828211e-01
5.854999e-01
5.876983e-01
5.893319e-01
5.903378e-01
5.906775e-01
5.903378e-01
5.893319e-01
5.876983e-01
5.854999e-01
5.828211e-01
5.797648e-01
5.761346e-01
0.000000e+00
1.000000e+00
5.763319e-01
5.790883e-01
5.818388e-01
5.842496e-01
5.862281e-01
5.876983e-01
5.886036e-01
5.889093e-01
5.886036e-01
5.876983e-01
5.862281e-01
5.842496e-01
5.818387e-01
5.790882e-01
5.757896e-01
0.000000e+00
1.000000e+00
5.758677e-01
5.781777e-01
5.805168e-01
5.825670e-01
5.842496e-01
5.854999e-01
5.862698e-01
5.865298e-01
5.862698e-01
5.854999e-01
5.842496e-01
5.825670e-01
5.805167e-01
5.781776e-01
5.753254e-01
0.000000e+00
1.000000e+00
5.753020e-01
5.770681e-01
5.789059e-01
5.805168e-01
5.818388e-01
5.828211e-01
5.834260e-01
5.836303e-01
5.834260e-01
5.828211e-01
5.818388e-01
5.805167e-01
5.789059e-01
5.770680e-01
5.747598e-01
0.000000e+00
1.000000e+00
5.746566e-01
5.758022e-01
5.770681e-01
5.781776e-01
5.790883e-01
5.797649e-01
5.801816e-01
5.803223e-01
5.801816e-01
5.797649e-01
5.790882e-01
5.781776e-01
5.770680e-01
5.758021e-01
5.741144e-01
0.000000e+00
1.000000e+00
5.739564e-01
5.744286e-01
5.750739e-01
5.756395e-01
5.761038e-01
5.764487e-01
5.766611e-01
5.767329e-01
5.766611e-01
5.764487e-01
5.761038e-01
5.756395e-01
5.750739e-01
5.744285e-01
5.734142e-01
0.000000e+00
1.000000e+00
5.732281e-01
5.730000e-01
5.730000e-01
5.730000e-01
5.730000e-01
5.730000e-01
5.730000e-01
5.730000e-01
5.730000e-01
5.730000e-01
5.730000e-01
5.730000e-01
5.730000e-01
5.730000e-01
5.726859e-01
0.000000e+00
1.000000e+00
5.724998e-01
5.715715e-01
5.709261e-01
5.703605e-01
5.698963e-01
5.695513e-01
5.693389e-01
5.692672e-01
5.693389e-01
5.695513e-01
5.698963e-01
5.703605e-01
5.709262e-01
5.715715e-01
5.719577e-01
0.000000e+00
1.000000e+00
5.717996e-01
5.701979e-01
5.689320e-01
5.678224e-01
5.669118e-01
5.662351e-01
5.658185e-01
5.656778e-01
5.658185e-01
5.662351e-01
5.669118e-01
5.678224e-01
5.689320e-01
5.701979e-01
5.712575e-01
0.000000e+00
1.000000e+00
5.711542e-01
5.689320e-01
5.670941e-01
5.654833e-01
5.641613e-01
5.631789e-01
5.625740e-01
5.623698e-01
5.625740e-01
5.631789e-01
5.641613e-01
5.654833e-01
5.670942e-01
5.689320e-01
5.706121e-01
0.000000e+00
1.000000e+00
5.705885e-01
5.678224e-01
5.654833e-01
5.634330e-01
5.617504e-01
5.605001e-01
5.597302e-01
5.594703e-01
5.597302e-01
5.605002e-01
5.617504e-01
5.634330e-01
5.654833e-01
5.678224e-01
5.700465e-01
0.000000e+00
1.000000e+00
5.701243e-01
5.669118e-01
5.641613e-01
5.617504e-01
5.597719e-01
5.583017e-01
5.573964e-01
5.570907e-01
5.573964e-01
5.583017e-01
5.597719e-01
5.617504e-01
5.641613e-01
5.669118e-01
5.695822e-01
0.000000e+00
1.000000e+00
5.697793e-01
5.662351e-01
5.631789e-01
5.605001e-01
5.583017e-01
5.566681e-01
5.556622e-01
5.553225e-01
5.556622e-01
5.566682e-01
5.583017e-01
5.605002e-01
5.631790e-01
5.662351e-01
5.692373e-01
0.000000e+00
1.000000e+00
5.695669e-01
5.658185e-01
5.625740e-01
5.597302e-01
5.573964e-01
5.556622e-01
5.545943e-01
5.542337e-01
5.545943e-01
5.556622e-01
5.573964e-01
5.597302e-01
5.625740e-01
5.658184e-01
5.690249e-01
0.000000e+00
1.000000e+00
5.694951e-01
5.656778e-01
5.623697e-01
5.594702e-01
5.570907e-01
5.553225e-01
5.542337e-01
5.538661e-01
5.542337e-01
5.553225e-01
5.570907e-01
5.594703e-01
5.623698e-01
5.656777e-01
5.689532e-01
0.000000e+00
1.000000e+00
5.751311e-01
5.767329e-01
5.784193e-01
5.798974e-01
5.811105e-01
5.820119e-01
5.825670e-01
5.827544e-01
5.825670e-01
5.820119e-01
5.811105e-01
5.798974e-01
5.784193e-01
5.767328e-01
5.745889e-01
0.000000e+00
1.000000e+00
5.750946e-01
5.766612e-01
5.783152e-01
5.797649e-01
5.809547e-01
5.818388e-01
5.823832e-01
5.825670e-01
5.823832e-01
5.818388e-01
5.809547e-01
5.797649e-01
5.783151e-01
5.766611e-01
5.745523e-01
0.000000e+00
1.000000e+00
5.749863e-01
5.764488e-01
5.780068e-01
5.793724e-01
5.804931e-01
5.813259e-01
5.818388e-01
5.820119e-01
5.818388e-01
5.813259e-01
5.804931e-01
5.793724e-01
5.780067e-01
5.764487e-01
5.744440e-01
0.000000e+00
1.000000e+00
5.748104e-01
5.761038e-01
5.775060e-01
5.787350e-01
5.797437e-01
5.804931e-01
5.809547e-01
5.811105e-01
5.809547e-01
5.804931e-01
5.797436e-01
5.787350e-01
5.775060e-01
5.761037e-01
5.742682e-01
0.000000e+00
1.000000e+00
5.745738e-01
5.756396e-01
5.768320e-01
5.778772e-01
5.787350e-01
5.793724e-01
5.797649e-01
5.798974e-01
5.797649e-01
5.793724e-01
5.787350e-01
5.778772e-01
5.768320e-01
5.756395e-01
5.740315e-01
0.000000e+00
1.000000e+00
5.742854e-01
5.750739e-01
5.760108e-01
5.768320e-01
5.775060e-01
5.780068e-01
5.783151e-01
5.784193e-01
5.783151e-01
5.780068e-01
5.775060e-01
5.768320e-01
5.760108e-01
5.750738e-01
5.737432e-01
0.000000e+00
1.000000e+00
5.739564e-01
5.744286e-01
5.750739e-01
5.756395e-01
5.761038e-01
5.764487e-01
5.766611e-01
5.767329e-01
5.766611e-01
5.764487e-01
5.761038e-01
5.756395e-01
5.750739e-01
5.744285e-01
5.734142e-01
0.000000e+00
1.000000e+00
5.735994e-01
5.737283e-01
5.740573e-01
5.743456e-01
5.745823e-01
5.747582e-01
5.748664e-01
5.749030e-01
5.748664e-01
5.747581e-01
5.745823e-01
5.743456e-01
5.740573e-01
5.737282e-01
5.730572e-01
0.000000e+00
1.000000e+00
5.732281e-01
5.730000e-01
5.730000e-01
5.730000e-01
5.730000e-01
5.730000e-01
5.730000e-01
5.730000e-01
5.730000e-01
5.730000e-01
5.730000e-01
5.730000e-01
5.730000e-01
5.730000e-01
5.726859e-01
0.000000e+00
1.000000e+00
5.728568e-01
5.722718e-01
5.719428e-01
5.716544e-01
5.714177e-01
5.712419e-01
5.711336e-01
5.710970e-01
5.711336e-01
5.712419e-01
5.714177e-01
5.716544e-01
5.719428e-01
5.722717e-01
5.723147e-01
0.000000e+00
1.000000e+00
5.724998e-01
5.715715e-01
5.709261e-01
5.703605e-01
5.698963e-01
5.695513e-01
5.693389e-01
5.692672e-01
5.693389e-01
5.695513e-01
5.698963e-01
5.703605e-01
5.709262e-01
5.715715e-01
5.719577e-01
0.000000e+00
1.000000e+00
5.721708e-01
5.709262e-01
5.699892e-01
5.691680e-01
5.684941e-01
5.679933e-01
5.676849e-01
5.675808e-01
5.676849e-01
5.679933e-01
5.684941e-01
5.691680e-01
5.699892e-01
5.709261e-01
5.716287e-01
0.000000e+00
1.000000e+00
5.718824e-01
5.703605e-01
5.691680e-01
5.681228e-01
5.672650e-01
5.666276e-01
5.662351e-01
5.661026e-01
5.662351e-01
5.666276e-01
5.672650e-01
5.681228e-01
5.691680e-01
5.703605e-01
5.713404e-01
0.000000e+00
1.000000e+00
5.716458e-01
5.698963e-01
5.684941e-01
5.672650e-01
5.662564e-01
5.655069e-01
5.650454e-01
5.648895e-01
5.650454e-01
5.655069e-01
5.662564e-01
5.672650e-01
5.684941e-01
5.698962e-01
5.711037e-01
0.000000e+00
1.000000e+00
5.714699e-01
5.695513e-01
5.679933e-01
5.666276e-01
5.655069e-01
5.646741e-01
5.641613e-01
5.639881e-01
5.641613e-01
5.646741e-01
5.655069e-01
5.666276e-01
5.679933e-01
5.695513e-01
5.709279e-01
0.000000e+00
1.000000e+00
5.713616e-01
5.693389e-01
5.676849e-01
5.662351e-01
5.650454e-01
5.641613e-01
5.636169e-01