<?xml version="1.0"?>
<VTKFile type="StructuredGrid" version="0.1">
  <StructuredGrid WholeExtent="0 8 0 8 0 8">
    <Piece Extent="0 8 0 8 0 8">
      <PointData Scalars="temperature" Vectors="velocity">
        <DataArray type="Float32" Name="temperature" format="ascii">
1.000000e+00
8.795896e-01
7.541442e-01
6.302466e-01
5.521709e-01
3.802851e-01
2.542255e-01
1.298382e-01
0.000000e+00
1.000000e+00
8.795335e-01
7.540490e-01
6.294821e-01
5.224583e-01
3.795132e-01
2.541333e-01
1.297853e-01
0.000000e+00
1.000000e+00
8.794287e-01
7.538797e-01
6.280329e-01
4.699827e-01
3.782536e-01
2.539631e-01
1.296876e-01
0.000000e+00
1.000000e+00
8.794104e-01
7.538497e-01
6.277369e-01
4.595433e-01
3.780229e-01
2.539304e-01
1.296693e-01
0.000000e+00
1.000000e+00
8.795048e-01
7.540008e-01
6.290116e-01
5.040422e-01
3.790745e-01
2.540810e-01
1.297552e-01
0.000000e+00
1.000000e+00
8.795991e-01
7.541552e-01
6.301840e-01
5.485566e-01
3.802189e-01
2.542291e-01
1.298412e-01
0.000000e+00
1.000000e+00
8.795808e-01
7.541237e-01
6.299286e-01
5.381113e-01
3.799512e-01
2.541974e-01
1.298228e-01
0.000000e+00
1.000000e+00
8.794766e-01
7.539533e-01
6.285280e-01
4.856297e-01
3.786494e-01
2.540290e-01
1.297255e-01
0.000000e+00
1.000000e+00
8.794120e-01
7.538537e-01
6.276604e-01
4.559256e-01
3.779592e-01
2.539289e-01
1.296670e-01
0.000000e+00
1.000000e+00
8.795636e-01
7.541001e-01
6.298992e-01
5.380730e-01
3.799167e-01
2.541832e-01
1.298131e-01
0.000000e+00
1.000000e+00
8.795252e-01
7.540340e-01
6.293522e-01
5.170660e-01
3.793790e-01
2.541188e-01
1.297766e-01
0.000000e+00
1.000000e+00
8.794510e-01
7.539141e-01
6.283311e-01
4.799591e-01
3.784846e-01
2.539984e-01
1.297074e-01
0.000000e+00
1.000000e+00
8.794380e-01
7.538928e-01
6.281251e-01
4.725766e-01
3.783185e-01
2.539753e-01
1.296944e-01
0.000000e+00
1.000000e+00
8.795048e-01
7.539997e-01
6.290184e-01
5.040442e-01
3.790698e-01
2.540818e-01
1.297552e-01
0.000000e+00
1.000000e+00
8.795715e-01
7.541089e-01
6.298554e-01
5.355185e-01
3.798713e-01
2.541865e-01
1.298160e-01
0.000000e+00
1.000000e+00
8.795585e-01
7.540866e-01
6.296716e-01
5.281333e-01
3.796851e-01
2.541640e-01
1.298030e-01
0.000000e+00
1.000000e+00
8.794850e-01
7.539663e-01
6.286775e-01
4.910243e-01
3.787682e-01
2.540450e-01
1.297342e-01
0.000000e+00
1.000000e+00
8.794380e-01
7.538947e-01
6.280705e-01
4.700173e-01
3.782721e-01
2.539735e-01
1.296921e-01
0.000000e+00
1.000000e+00
8.795008e-01
7.539958e-01
6.290162e-01
5.040421e-01
3.790667e-01
2.540795e-01
1.297526e-01
0.000000e+00
1.000000e+00
8.795051e-01
7.539990e-01
6.290247e-01
5.040463e-01
3.790659e-01
2.540827e-01
1.297554e-01
0.000000e+00
1.000000e+00
8.795048e-01
7.539990e-01
6.290220e-01
5.040454e-01
3.790673e-01
2.540822e-01
1.297552e-01
0.000000e+00
1.000000e+00
8.795048e-01
7.539993e-01
6.290200e-01
5.040451e-01
3.790689e-01
2.540821e-01
1.297552e-01
0.000000e+00
1.000000e+00
8.795048e-01
7.539987e-01
6.290253e-01
5.040462e-01
3.790651e-01
2.540825e-01
1.297552e-01
0.000000e+00
1.000000e+00
8.795048e-01
7.539993e-01
6.290200e-01
5.040451e-01
3.790689e-01
2.540821e-01
1.297552e-01
0.000000e+00
1.000000e+00
8.795048e-01
7.539990e-01
6.290220e-01
5.040454e-01
3.790674e-01
2.540822e-01
1.297552e-01
0.000000e+00
1.000000e+00
8.795051e-01
7.539991e-01
6.290247e-01
5.040463e-01
3.790659e-01
2.540827e-01
1.297554e-01
0.000000e+00
1.000000e+00
8.795008e-01
7.539958e-01
6.290162e-01
5.040421e-01
3.790667e-01
2.540795e-01
1.297526e-01
0.000000e+00
1.000000e+00
8.794380e-01
7.538947e-01
6.280705e-01
4.700173e-01
3.782721e-01
2.539735e-01
1.296921e-01
0.000000e+00
1.000000e+00
8.794849e-01
7.539663e-01
6.286775e-01
4.910243e-01
3.787682e-01
2.540450e-01
1.297342e-01
0.000000e+00
1.000000e+00
8.795585e-01
7.540866e-01
6.296716e-01
5.281333e-01
3.796851e-01
2.541640e-01
1.298030e-01
0.000000e+00
1.000000e+00
8.795715e-01
7.541089e-01
6.298554e-01
5.355185e-01
3.798713e-01
2.541865e-01
1.298160e-01
0.000000e+00
1.000000e+00
8.795048e-01
7.539997e-01
6.290184e-01
5.040442e-01
3.790698e-01
2.540818e-01
1.297552e-01
0.000000e+00
1.000000e+00
8.794380e-01
7.538928e-01
6.281251e-01
4.725766e-01
3.783185e-01
2.539753e-01
1.296944e-01
0.000000e+00
1.000000e+00
8.794510e-01
7.539141e-01
6.283312e-01
4.799591e-01
3.784847e-01
2.539984e-01
1.297074e-01
0.000000e+00
1.000000e+00
8.795252e-01
7.540340e-01
6.293522e-01
5.170660e-01
3.793790e-01
2.541188e-01
1.297766e-01
0.000000e+00
1.000000e+00
8.795636e-01
7.541001e-01
6.298992e-01
5.380730e-01
3.799167e-01
2.541832e-01
1.298131e-01
0.000000e+00
1.000000e+00
8.794120e-01
7.538537e-01
6.276604e-01
4.559256e-01
3.779592e-01
2.539289e-01
1.296670e-01
0.000000e+00
1.000000e+00
8.794766e-01
7.539533e-01
6.285280e-01
4.856297e-01
3.786494e-01
2.540290e-01
1.297255e-01
0.000000e+00
1.000000e+00
8.795808e-01
7.541237e-01
6.299286e-01
5.381113e-01
3.799512e-01
2.541974e-01
1.298228e-01
0.000000e+00
1.000000e+00
8.795991e-01
7.541552e-01
6.301840e-01
5.485566e-01
3.802189e-01
2.542291e-01
1.298412e-01
0.000000e+00
1.000000e+00
8.795048e-01
7.540008e-01
6.290116e-01
5.040422e-01
3.790745e-01
2.540810e-01
1.297552e-01
0.000000e+00
1.000000e+00
8.794104e-01
7.538497e-01
6.277369e-01
4.595433e-01
3.780229e-01
2.539304e-01
1.296693e-01
0.000000e+00
1.000000e+00
8.794287e-01
7.538797e-01
6.280329e-01
4.699828e-01
3.782536e-01
2.539631e-01
1.296876e-01
0.000000e+00
1.000000e+00
8.795335e-01
7.540490e-01
6.294821e-01
5.224583e-01
3.795132e-01
2.541333e-01
1.297853e-01
0.000000e+00
1.000000e+00
8.795896e-01
7.541442e-01
6.302466e-01
5.521709e-01
3.802851e-01
2.542255e-01
1.298382e-01
0.000000e+00
1.000000e+00
8.794380e-01
7.538947e-01
6.280705e-01
4.700173e-01
3.782721e-01
2.539735e-01
1.296921e-01
0.000000e+00
1.000000e+00
8.794849e-01
7.539663e-01
6.286775e-01
4.910243e-01
3.787682e-01
2.540450e-01
1.297342e-01
0.000000e+00
1.000000e+00
8.795585e-01
7.540866e-01
6.296716e-01
5.281333e-01
3.796851e-01
2.541640e-01
1.298030e-01
0.000000e+00
1.000000e+00
8.795715e-01
7.541089e-01
6.298554e-01
5.355185e-01
3.798713e-01
2.541865e-01
1.298160e-01
0.000000e+00
1.000000e+00
8.795048e-01
7.539997e-01
6.290184e-01
5.040442e-01
3.790698e-01
2.540818e-01
1.297552e-01
0.000000e+00
1.000000e+00
8.794380e-01
7.538928e-01
6.281251e-01
4.725766e-01
3.783185e-01
2.539753e-01
1.296944e-01
0.000000e+00
1.000000e+00
8.794510e-01
7.539141e-01
6.283312e-01
4.799591e-01
3.784847e-01
2.539984e-01
1.297074e-01
0.000000e+00
1.000000e+00
8.795252e-01
7.540340e-01
6.293522e-01
5.170660e-01
3.793790e-01
2.541188e-01
1.297766e-01
0.000000e+00
1.000000e+00
8.795636e-01
7.541001e-01
6.298992e-01
5.380730e-01
3.799167e-01
2.541832e-01
1.298131e-01
0.000000e+00
1.000000e+00
8.795008e-01
7.539958e-01
6.290162e-01
5.040421e-01
3.790667e-01
2.540795e-01
1.297526e-01
0.000000e+00
1.000000e+00
8.795051e-01
7.539990e-01
6.290247e-01
5.040463e-01
3.790659e-01
2.540827e-01
1.297554e-01
0.000000e+00
1.000000e+00
8.795048e-01
7.539990e-01
6.290220e-01
5.040454e-01
3.790673e-01
2.540822e-01
1.297552e-01
0.000000e+00
1.000000e+00
8.795048e-01
7.539993e-01
6.290200e-01
5.040451e-01
3.790689e-01
2.540821e-01
1.297552e-01
0.000000e+00
1.000000e+00
8.795048e-01
7.539987e-01
6.290253e-01
5.040462e-01
3.790651e-01
2.540825e-01
1.297552e-01
0.000000e+00
1.000000e+00
8.795048e-01
7.539993e-01
6.290200e-01
5.040451e-01
3.790689e-01
2.540821e-01
1.297552e-01
0.000000e+00
1.000000e+00
8.795048e-01
7.539990e-01
6.290220e-01
5.040454e-01
3.790674e-01
2.540822e-01
1.297552e-01
0.000000e+00
1.000000e+00
8.795051e-01
7.539991e-01
6.290247e-01
5.040463e-01
3.790659e-01
2.540827e-01
1.297554e-01
0.000000e+00
1.000000e+00
8.795008e-01
7.539958e-01
6.290162e-01
5.040421e-01
3.790667e-01
2.540795e-01
1.297526e-01
0.000000e+00
1.000000e+00
8.795636e-01
7.541001e-01
6.298992e-01
5.380730e-01
3.799167e-01
2.541832e-01
1.298131e-01
0.000000e+00
1.000000e+00
8.795252e-01
7.540340e-01
6.293522e-01
5.170660e-01
3.793790e-01
2.541188e-01
1.297766e-01
0.000000e+00
1.000000e+00
8.794510e-01
7.539141e-01
6.283311e-01
4.799591e-01
3.784846e-01
2.539984e-01
1.297074e-01
0.000000e+00
1.000000e+00
8.794380e-01
7.538928e-01
6.281251e-01
4.725766e-01
3.783185e-01
2.539753e-01
1.296944e-01
0.000000e+00
1.000000e+00
8.795048e-01
7.539997e-01
6.290184e-01
5.040442e-01
3.790698e-01
2.540818e-01
1.297552e-01
0.000000e+00
1.000000e+00
8.795715e-01
7.541089e-01
6.298554e-01
5.355185e-01
3.798713e-01
2.541865e-01
1.298160e-01
0.000000e+00
1.000000e+00
8.795585e-01
7.540866e-01
6.296716e-01
5.281333e-01
3.796851e-01
2.541640e-01
1.298030e-01
0.000000e+00
1.000000e+00
8.794850e-01
7.539663e-01
6.286775e-01
4.910243e-01
3.787682e-01
2.540450e-01
1.297342e-01
0.000000e+00
1.000000e+00
8.794380e-01
7.538947e-01
6.280705e-01
4.700173e-01
3.782721e-01
2.539735e-01
1.296921e-01
0.000000e+00
1.000000e+00
8.795896e-01
7.541442e-01
6.302466e-01
5.521709e-01
3.802851e-01
2.542255e-01
1.298382e-01
0.000000e+00
1.000000e+00
8.795335e-01
7.540490e-01
6.294821e-01
5.224583e-01
3.795132e-01
2.541333e-01
1.297853e-01
0.000000e+00
1.000000e+00
8.794287e-01
7.538797e-01
6.280329e-01
4.699827e-01
3.782536e-01
2.539631e-01
1.296876e-01
0.000000e+00
1.000000e+00
8.794104e-01
7.538497e-01
6.277369e-01
4.595433e-01
3.780229e-01
2.539304e-01
1.296693e-01
0.000000e+00
1.000000e+00
8.795048e-01
7.540008e-01
6.290116e-01
5.040422e-01
3.790745e-01
2.540810e-01
1.297552e-01
0.000000e+00
1.000000e+00
8.795991e-01
7.541552e-01
6.301840e-01
5.485566e-01
3.802189e-01
2.542291e-01
1.298412e-01
0.000000e+00
1.000000e+00
8.795808e-01
7.541237e-01
6.299286e-01
5.381113e-01
3.799512e-01
2.541974e-01
1.298228e-01
0.000000e+00
1.000000e+00
8.794766e-01
7.539533e-01
6.285280e-01
4.856297e-01
3.786494e-01
2.540290e-01
1.297255e-01
0.000000e+00
1.000000e+00
8.794120e-01
7.538537e-01
6.276604e-01
4.559256e-01
3.779592e-01
2.539289e-01
1.296670e-01
0.000000e+00
        </DataArray>
        <DataArray type="Float32" Name="velocity" NumberOfComponents="3" format="ascii">
0.0000e+00 0.0000e+00 0.0000e+00
7.6223e-01 0.0000e+00 4.1641e-01
1.7962e+00 0.0000e+00 9.8127e-01
2.9902e+00 0.0000e+00 1.6335e+00
3.4951e+00 0.0000e+00 1.9093e+00
2.8499e+00 0.0000e+00 1.5569e+00
1.7121e+00 0.0000e+00 9.3530e-01
7.3875e-01 0.0000e+00 4.0358e-01
0.0000e+00 0.0000e+00 0.0000e+00
-1.8868e-01 0.0000e+00 4.7935e-01
-1.8136e-02 0.0000e+00 8.1225e-01
1.8003e-01 0.0000e+00 1.4607e+00
6.2530e-01 0.0000e+00 1.7741e+00
1.2612e+00 0.0000e+00 8.2096e-01
1.4000e+00 0.0000e+00 -3.0506e-01
1.0056e+00 0.0000e+00 -6.4334e-01
5.9258e-01 0.0000e+00 -6.9356e-01
2.9471e-01 0.0000e+00 -7.4872e-01
-9.0820e-02 0.0000e+00 3.5568e-01
-8.5967e-01 0.0000e+00 3.5531e-01
-1.8402e+00 0.0000e+00 5.3086e-01
-2.8204e+00 0.0000e+00 4.0221e-01
-2.9911e+00 0.0000e+00 -5.3069e-01
-2.2453e+00 0.0000e+00 -1.2043e+00
-1.2820e+00 0.0000e+00 -1.0774e+00
-4.8421e-01 0.0000e+00 -7.8369e-01
1.4650e-01 0.0000e+00 -5.7375e-01
3.5129e-02 0.0000e+00 -2.7958e-01
-8.7155e-01 0.0000e+00 -5.0166e-01
-2.0005e+00 0.0000e+00 -8.6066e-01
-3.2722e+00 0.0000e+00 -1.0573e+00
-3.8552e+00 0.0000e+00 -6.2112e-01
-3.2057e+00 0.0000e+00 -4.1029e-02
-1.9768e+00 0.0000e+00 2.0769e-01
-8.9197e-01 0.0000e+00 3.1383e-01
-5.0285e-02 0.0000e+00 4.0020e-01
-2.3857e-06 0.0000e+00 -6.4949e-01
-1.7670e-04 0.0000e+00 -9.2393e-01
-1.0786e-06 0.0000e+00 -1.5042e+00
3.3234e-04 0.0000e+00 -1.6236e+00
1.6214e-05 0.0000e+00 -3.4314e-01
-2.2351e-04 0.0000e+00 9.1067e-01
9.8145e-05 0.0000e+00 1.1264e+00
2.0174e-04 0.0000e+00 1.0269e+00
3.5621e-06 0.0000e+00 9.6975e-01
-3.5093e-02 0.0000e+00 -2.7927e-01
8.7100e-01 0.0000e+00 -5.0127e-01
1.9987e+00 0.0000e+00 -8.5979e-01
3.2702e+00 0.0000e+00 -1.0570e+00
3.8561e+00 0.0000e+00 -6.2202e-01
3.2091e+00 0.0000e+00 -4.1577e-02
1.9794e+00 0.0000e+00 2.0750e-01
8.9306e-01 0.0000e+00 3.1355e-01
5.0260e-02 0.0000e+00 3.9997e-01
9.0947e-02 0.0000e+00 3.5617e-01
8.5925e-01 0.0000e+00 3.5588e-01
1.8390e+00 0.0000e+00 5.3103e-01
2.8195e+00 0.0000e+00 4.0304e-01
2.9919e+00 0.0000e+00 -5.2954e-01
2.2471e+00 0.0000e+00 -1.2048e+00
1.2834e+00 0.0000e+00 -1.0787e+00
4.8481e-01 0.0000e+00 -7.8464e-01
-1.4669e-01 0.0000e+00 -5.7448e-01
1.8890e-01 0.0000e+00 4.7989e-01
1.7752e-02 0.0000e+00 8.1294e-01
-1.8046e-01 0.0000e+00 1.4617e+00
-6.2562e-01 0.0000e+00 1.7745e+00
-1.2619e+00 0.0000e+00 8.2083e-01
-1.4004e+00 0.0000e+00 -3.0488e-01
-1.0055e+00 0.0000e+00 -6.4344e-01
-5.9254e-01 0.0000e+00 -6.9419e-01
-2.9499e-01 0.0000e+00 -7.4940e-01
0.0000e+00 0.0000e+00 -0.0000e+00
-7.6338e-01 0.0000e+00 4.1704e-01
-1.7991e+00 0.0000e+00 9.8286e-01
-2.9936e+00 0.0000e+00 1.6354e+00
-3.4957e+00 0.0000e+00 1.9097e+00
-2.8481e+00 0.0000e+00 1.5560e+00
-1.7108e+00 0.0000e+00 9.3462e-01
-7.3848e-01 0.0000e+00 4.0344e-01
0.0000e+00 0.0000e+00 -0.0000e+00
2.1002e-02 -1.6714e-01 0.0000e+00
5.7098e-01 -2.2041e-01 2.9448e-01
1.3317e+00 -4.0839e-01 6.9400e-01
2.1822e+00 -4.0516e-01 1.1552e+00
2.4680e+00 1.8047e-01 1.3500e+00
1.9473e+00 6.6001e-01 1.1005e+00
1.1428e+00 6.1089e-01 6.6103e-01
4.6987e-01 4.4833e-01 2.8522e-01
-4.3689e-02 3.4769e-01 0.0000e+00
-1.3162e-01 -2.2397e-02 3.3887e-01
-6.5011e-03 -4.9452e-02 5.7436e-01
1.4623e-01 -1.3954e-01 1.0330e+00
4.6531e-01 -1.5405e-01 1.2547e+00
8.8960e-01 7.3598e-02 5.8041e-01
9.6513e-01 2.5670e-01 -2.1584e-01
6.8808e-01 2.2376e-01 -4.5502e-01
4.0337e-01 1.4874e-01 -4.9044e-01
1.9687e-01 1.0447e-01 -5.2933e-01
-9.8117e-02 2.6591e-01 2.5143e-01
-6.4867e-01 2.8868e-01 2.5124e-01
-1.3586e+00 3.7931e-01 3.7543e-01
-2.0477e+00 3.0440e-01 2.8453e-01
-2.1119e+00 -1.5714e-01 -3.7522e-01
-1.5343e+00 -5.2796e-01 -8.5167e-01
-8.4685e-01 -5.3427e-01 -7.6194e-01
-2.8968e-01 -4.4227e-01 -5.5412e-01
1.5116e-01 -3.7227e-01 -4.0559e-01
-1.2591e-02 2.9948e-01 -1.9772e-01
-6.6249e-01 3.3137e-01 -3.5472e-01
-1.4830e+00 4.6127e-01 -6.0850e-01
-2.3792e+00 3.8041e-01 -7.4755e-01
-2.7205e+00 -2.1492e-01 -4.3924e-01
-2.1986e+00 -6.8874e-01 -2.9058e-02
-1.3240e+00 -6.7806e-01 1.4684e-01
-5.6749e-01 -5.4405e-01 2.2189e-01
2.0253e-02 -4.4635e-01 2.8295e-01
-2.5612e-05 1.9030e-04 -4.5920e-01
1.2530e-04 3.1840e-04 -6.5331e-01
4.7736e-04 3.5804e-04 -1.0636e+00
7.1522e-04 -2.1215e-04 -1.1481e+00
1.7294e-04 -7.1655e-04 -2.4260e-01
-4.0341e-04 -3.6849e-04 6.4394e-01
-3.2005e-04 1.4654e-04 7.9645e-01
-1.0682e-04 3.1146e-04 7.2608e-01
-3.7417e-05 3.1798e-04 6.8564e-01
1.2583e-02 -2.9909e-01 -1.9740e-01
6.6259e-01 -3.3073e-01 -3.5440e-01
1.4828e+00 -4.6049e-01 -6.0800e-01
2.3791e+00 -3.8116e-01 -7.4749e-01
2.7213e+00 2.1310e-01 -4.3980e-01
2.1999e+00 6.8826e-01 -2.9352e-02
1.3248e+00 6.7876e-01 1.4675e-01
5.6769e-01 5.4483e-01 2.2168e-01
-2.0365e-02 4.4703e-01 2.8273e-01
9.8212e-02 -2.6556e-01 2.5196e-01
6.4884e-01 -2.8808e-01 2.5169e-01
1.3587e+00 -3.7858e-01 3.7547e-01
2.0482e+00 -3.0499e-01 2.8492e-01
2.1126e+00 1.5553e-01 -3.7448e-01
1.5346e+00 5.2740e-01 -8.5182e-01
8.4690e-01 5.3479e-01 -7.6265e-01
2.8956e-01 4.4293e-01 -5.5481e-01
-1.5141e-01 3.7288e-01 -4.0626e-01
1.3181e-01 2.2701e-02 3.3945e-01
6.5883e-03 4.9958e-02 5.7490e-01
-1.4587e-01 1.4016e-01 1.0335e+00
-4.6485e-01 1.5358e-01 1.2548e+00
-8.8997e-01 -7.5005e-02 5.8041e-01
-9.6613e-01 -2.5736e-01 -2.1546e-01
-6.8889e-01 -2.2348e-01 -4.5489e-01
-4.0386e-01 -1.4823e-01 -4.9087e-01
-1.9719e-01 -1.0397e-01 -5.2996e-01
-2.1033e-02 1.6738e-01 -0.0000e+00
-5.7173e-01 2.2079e-01 2.9486e-01
-1.3333e+00 4.0893e-01 6.9484e-01
-2.1840e+00 4.0435e-01 1.1563e+00
-2.4688e+00 -1.8229e-01 1.3506e+00
-1.9474e+00 -6.6053e-01 1.1006e+00
-1.1431e+00 -6.1034e-01 6.6118e-01
-4.7027e-01 -4.4777e-01 2.8541e-01
4.3623e-02 -3.4716e-01 -0.0000e+00
5.8989e-02 -2.3102e-01 0.0000e+00
1.0144e-01 -3.9756e-01 -3.8380e-05
1.9996e-01 -7.8317e-01 -6.0295e-06
2.3568e-01 -9.2341e-01 -5.6741e-05
4.4119e-02 -1.7512e-01 -3.1611e-04
-1.4525e-01 5.6484e-01 -5.4199e-04
-1.6297e-01 6.3466e-01 -4.8596e-04
-1.3550e-01 5.2872e-01 -2.6278e-04
-1.2251e-01 4.7977e-01 0.0000e+00
2.1795e-03 -8.1401e-03 -2.4848e-04
1.7293e-02 -6.6342e-02 -1.2844e-04
5.5615e-02 -2.1495e-01 2.4250e-05
7.4288e-02 -2.8842e-01 1.4928e-04
1.2888e-02 -5.1051e-02 -4.2710e-05
-4.7900e-02 1.8434e-01 -2.8855e-04
-4.8349e-02 1.8625e-01 -2.0729e-04
-3.4348e-02 1.3280e-01 6.4701e-05
-2.7687e-02 1.0797e-01 2.9073e-04
-9.6488e-02 3.7809e-01 -2.0857e-04
-1.2798e-01 5.0301e-01 -8.4042e-05
-1.9001e-01 7.4750e-01 1.2528e-04
-1.9430e-01 7.6428e-01 4.5871e-05
-3.7724e-02 1.4833e-01 -1.4825e-04
1.1577e-01 -4.5541e-01 -1.2861e-04
1.4811e-01 -5.8221e-01 3.8038e-05
1.4072e-01 -5.5229e-01 1.6689e-04
1.3585e-01 -5.3229e-01 2.4955e-04
-1.0442e-01 4.0900e-01 -7.0947e-05
-1.4341e-01 5.6341e-01 -1.6820e-05
-2.2386e-01 8.8010e-01 -2.3143e-05
-2.3522e-01 9.2434e-01 7.3983e-05
-4.4234e-02 1.7386e-01 8.7404e-05
1.4266e-01 -5.6046e-01 -1.6957e-05
1.7733e-01 -6.9622e-01 -3.6282e-05
1.6405e-01 -6.4325e-01 -4.1862e-07
1.5592e-01 -6.1065e-01 3.3795e-05
-8.3101e-08 3.2728e-07 1.2320e-04
4.9107e-04 1.2574e-04 9.8053e-05
1.0075e-03 2.5633e-04 5.1556e-05
1.0052e-03 2.5615e-04 -2.3119e-08
1.4224e-04 3.5325e-05 -2.0128e-05
-6.5152e-04 -1.6689e-04 -3.4054e-05
-6.7523e-04 -1.7216e-04 -1.7592e-05
-3.2731e-04 -8.2306e-05 -5.3904e-05
-4.6878e-07 1.8342e-06 -1.1636e-04
1.0447e-01 -4.0898e-01 2.6823e-04
1.4429e-01 -5.6319e-01 2.3009e-04
2.2549e-01 -8.7969e-01 1.2299e-04
2.3675e-01 -9.2395e-01 -2.9549e-05
4.4492e-02 -1.7380e-01 -1.2718e-04
-1.4352e-01 5.6024e-01 -4.4808e-05
-1.7825e-01 6.9598e-01 -2.6387e-05
-1.6452e-01 6.4313e-01 -1.2791e-04
-1.5595e-01 6.1065e-01 -1.9536e-04
9.6633e-02 -3.7806e-01 3.7579e-04
1.2886e-01 -5.0278e-01 2.4392e-04
1.9161e-01 -7.4710e-01 4.4018e-05
1.9586e-01 -7.6388e-01 1.2460e-05
3.7947e-02 -1.4827e-01 1.7408e-04
-1.1684e-01 4.5513e-01 6.5002e-05
-1.4928e-01 5.8191e-01 -1.3799e-04
-1.4137e-01 5.5213e-01 -2.5979e-04
-1.3600e-01 5.3225e-01 -3.4585e-04
-1.9466e-03 8.1983e-03 3.6124e-04
-1.6632e-02 6.6509e-02 2.6407e-04
-5.4341e-02 2.1527e-01 9.1825e-05
-7.3203e-02 2.8870e-01 -1.0695e-05
-1.3353e-02 5.0931e-02 9.7341e-05
4.6203e-02 -1.8477e-01 2.8205e-04
4.6789e-02 -1.8664e-01 1.4843e-04
3.3490e-02 -1.3301e-01 -1.5527e-04
2.7458e-02 -1.0802e-01 -3.0649e-04
-5.8989e-02 2.3102e-01 -0.0000e+00
-1.0167e-01 3.9750e-01 9.2096e-05
-2.0012e-01 7.8313e-01 7.9553e-05
-2.3609e-01 9.2330e-01 1.7358e-04
-4.5465e-02 1.7478e-01 4.4335e-04
1.4324e-01 -5.6535e-01 5.9382e-04
1.6125e-01 -6.3509e-01 4.8723e-04
1.3460e-01 -5.2894e-01 2.4378e-04
1.2251e-01 -4.7977e-01 -0.0000e+00
6.1785e-02 -1.5696e-01 0.0000e+00
-3.9578e-01 -4.6782e-01 -2.9480e-01
-9.7386e-01 -9.9801e-01 -6.9474e-01
-1.7226e+00 -1.4020e+00 -1.1562e+00
-2.2538e+00 -1.0235e+00 -1.3505e+00
-2.0255e+00 -3.5381e-01 -1.1004e+00
-1.2957e+00 -1.2326e-02 -6.6109e-01
-6.2730e-01 1.6747e-01 -2.8537e-01
-1.2812e-01 3.2549e-01 0.0000e+00
1.2652e-01 4.3251e-02 -3.3932e-01
2.9741e-02 -4.0637e-02 -5.7476e-01
-6.0728e-02 -1.9296e-01 -1.0334e+00
-3.3420e-01 -3.5761e-01 -1.2547e+00
-8.1685e-01 -3.6081e-01 -5.8031e-01
-9.7117e-01 -2.3725e-01 2.1551e-01
-7.1160e-01 -1.3407e-01 4.5486e-01
-4.2538e-01 -6.3522e-02 4.9075e-01
-2.2285e-01 -3.2868e-03 5.2986e-01
-4.1178e-02 2.8013e-01 -2.5177e-01
4.3127e-01 5.6388e-01 -2.5152e-01
1.0109e+00 9.8362e-01 -3.7535e-01
1.6512e+00 1.2496e+00 -2.8486e-01
1.9286e+00 8.7633e-01 3.7447e-01
1.5996e+00 2.7289e-01 8.5175e-01
9.9962e-01 -6.3299e-02 7.6256e-01
4.6648e-01 -2.4983e-01 5.5464e-01
4.5909e-02 -3.9973e-01 4.0609e-01
-1.3236e-01 2.6848e-01 1.9760e-01
4.2289e-01 6.0792e-01 3.5460e-01
1.0806e+00 1.1150e+00 6.0810e-01
1.9051e+00 1.4750e+00 7.4748e-01
2.4903e+00 1.1176e+00 4.3973e-01
2.2605e+00 4.5066e-01 2.9249e-02
1.4880e+00 3.9418e-02 -1.4684e-01
7.5936e-01 -2.0593e-01 -2.2179e-01
1.9642e-01 -4.0195e-01 -2.8286e-01
7.1482e-05 -1.7699e-04 4.5942e-01
2.6784e-04 -2.1651e-04 6.5354e-01
5.9698e-04 -8.5007e-05 1.0637e+00
5.3348e-04 5.3158e-04 1.1481e+00
-1.9368e-04 7.1033e-04 2.4255e-01
-5.3787e-04 1.2523e-04 -6.4400e-01
-2.1638e-04 -2.8470e-04 -7.9651e-01
4.8141e-05 -3.2526e-04 -7.2615e-01
1.1371e-04 -2.9576e-04 -6.8574e-01
1.3254e-01 -2.6881e-01 1.9792e-01
-4.2249e-01 -6.0844e-01 3.5493e-01
-1.0803e+00 -1.1158e+00 6.0862e-01
-1.9055e+00 -1.4744e+00 7.4757e-01
-2.4904e+00 -1.1156e+00 4.3921e-01
-2.2596e+00 -4.4961e-01 2.8989e-02
-1.4870e+00 -3.9656e-02 -1.4691e-01
-7.5881e-01 2.0535e-01 -2.2198e-01
-1.9619e-01 4.0131e-01 -2.8308e-01
4.1428e-02 -2.8039e-01 -2.5123e-01
-4.3084e-01 -5.6433e-01 -2.5106e-01
-1.0104e+00 -9.8420e-01 -3.7529e-01
-1.6512e+00 -1.2488e+00 -2.8443e-01
-1.9287e+00 -8.7457e-01 3.7524e-01
-1.5996e+00 -2.7220e-01 8.5162e-01
-9.9932e-01 6.2872e-02 7.6185e-01
-4.6626e-01 2.4920e-01 5.5396e-01
-4.5835e-02 3.9909e-01 4.0543e-01
-1.2620e-01 -4.3429e-02 -3.3875e-01
-2.9428e-02 4.0230e-02 -5.7421e-01
6.1330e-02 1.9258e-01 -1.0328e+00
3.3437e-01 3.5823e-01 -1.2546e+00
8.1583e-01 3.6186e-01 -5.8032e-01
9.6997e-01 2.3735e-01 2.1587e-01
7.1103e-01 1.3344e-01 4.5497e-01
4.2520e-01 6.2851e-02 4.9032e-01
2.2281e-01 2.7022e-03 5.2922e-01
-6.1694e-02 1.5673e-01 -0.0000e+00
3.9530e-01 4.6712e-01 -2.9442e-01
9.7270e-01 9.9676e-01 -6.9392e-01
1.7206e+00 1.4018e+00 -1.1552e+00
2.2522e+00 1.0247e+00 -1.3499e+00
2.0252e+00 3.5422e-01 -1.1004e+00
1.2956e+00 1.1686e-02 -6.6096e-01
6.2721e-01 -1.6816e-01 -2.8519e-01
1.2832e-01 -3.2598e-01 -0.0000e+00
1.3673e-09 -2.5029e-09 0.0000e+00
-6.6982e-01 -3.6593e-01 -4.1697e-01
-1.5787e+00 -8.6244e-01 -9.8274e-01
-2.6270e+00 -1.4351e+00 -1.6353e+00
-3.0677e+00 -1.6759e+00 -1.9097e+00
-2.4993e+00 -1.3654e+00 -1.5558e+00
-1.5011e+00 -8.2007e-01 -9.3446e-01
-6.4794e-01 -3.5397e-01 -4.0335e-01
4.2089e-09 -7.7043e-09 0.0000e+00
1.6573e-01 9.0537e-02 -4.7976e-01
1.5621e-02 8.5340e-03 -8.1279e-01
-1.5833e-01 -8.6495e-02 -1.4616e+00
-5.4895e-01 -2.9989e-01 -1.7745e+00
-1.1073e+00 -6.0493e-01 -8.2068e-01
-1.2289e+00 -6.7134e-01 3.0498e-01
-8.8230e-01 -4.8200e-01 6.4342e-01
-5.1986e-01 -2.8400e-01 6.9404e-01
-2.5880e-01 -1.4138e-01 7.4920e-01
7.9763e-02 4.3575e-02 -3.5596e-01
7.5403e-01 4.1193e-01 -3.5570e-01
1.6138e+00 8.8164e-01 -5.3095e-01
2.4743e+00 1.3517e+00 -4.0295e-01
2.6256e+00 1.4344e+00 5.2950e-01
1.9719e+00 1.0772e+00 1.2047e+00
1.1262e+00 6.1523e-01 1.0786e+00
4.2543e-01 2.3242e-01 7.8439e-01
-1.2868e-01 -7.0298e-02 5.7425e-01
-3.0818e-02 -1.6836e-02 2.7948e-01
7.6437e-01 4.1758e-01 5.0146e-01
1.7540e+00 9.5822e-01 8.5989e-01
2.8698e+00 1.5678e+00 1.0570e+00
3.3839e+00 1.8486e+00 6.2193e-01
2.8161e+00 1.5385e+00 4.1445e-02
1.7370e+00 9.4891e-01 -2.0761e-01
7.8359e-01 4.2808e-01 -3.1363e-01
4.4115e-02 2.4100e-02 -4.0007e-01
2.0941e-06 1.1444e-06 6.4969e-01
-1.4853e-04 -8.1138e-05 9.2419e-01
6.2824e-06 3.4356e-06 1.5043e+00
2.9972e-04 1.6374e-04 1.6236e+00
1.3275e-05 7.2621e-06 3.4306e-01
-2.0449e-04 -1.1171e-04 -9.1073e-01
7.5287e-05 4.1126e-05 -1.1264e+00
1.6702e-04 9.1243e-05 -1.0269e+00
-3.1261e-06 -1.7072e-06 -9.6970e-01
3.0853e-02 1.6855e-02 2.7978e-01
-7.6485e-01 -4.1784e-01 5.0187e-01
-1.7556e+00 -9.5907e-01 8.6080e-01
-2.8716e+00 -1.5687e+00 1.0573e+00
-3.3831e+00 -1.8482e+00 6.2109e-01
-2.8132e+00 -1.5368e+00 4.0942e-02
-1.7346e+00 -9.4762e-01 -2.0777e-01
-7.8264e-01 -4.2756e-01 -3.1389e-01
-4.4143e-02 -2.4115e-02 -4.0029e-01
-7.9656e-02 -4.3516e-02 -3.5547e-01
-7.5440e-01 -4.1213e-01 -3.5512e-01
-1.6149e+00 -8.8225e-01 -5.3075e-01
-2.4751e+00 -1.3522e+00 -4.0207e-01
-2.6249e+00 -1.4340e+00 5.3070e-01
-1.9703e+00 -1.0764e+00 1.2042e+00
-1.1249e+00 -6.1454e-01 1.0773e+00
-4.2490e-01 -2.3212e-01 7.8345e-01
1.2852e-01 7.0210e-02 5.7352e-01
-1.6554e-01 -9.0436e-02 -4.7922e-01
-1.5969e-02 -8.7238e-03 -8.1210e-01
1.5792e-01 8.6274e-02 -1.4606e+00
5.4864e-01 2.9972e-01 -1.7741e+00
1.1068e+00 6.0463e-01 -8.2083e-01
1.2285e+00 6.7115e-01 3.0514e-01
8.8237e-01 4.8204e-01 6.4330e-01
5.1990e-01 2.8402e-01 6.9340e-01
2.5857e-01 1.4126e-01 7.4852e-01
2.1297e-09 -3.8984e-09 -0.0000e+00
6.6881e-01 3.6537e-01 -4.1634e-01
1.5762e+00 8.6105e-01 -9.8118e-01
2.6240e+00 1.4335e+00 -1.6335e+00
3.0671e+00 1.6756e+00 -1.9093e+00
2.5008e+00 1.3662e+00 -1.5568e+00
1.5022e+00 8.2067e-01 -9.3516e-01
6.4817e-01 3.5410e-01 -4.0349e-01
3.5949e-09 -6.5804e-09 -0.0000e+00
-9.8698e-02 1.3680e-01 0.0000e+00
-6.0750e-01 -8.0275e-02 -2.9480e-01
-1.3660e+00 -2.8025e-01 -6.9474e-01
-2.1105e+00 -6.9206e-01 -1.1562e+00
-2.0790e+00 -1.3435e+00 -1.3505e+00
-1.3921e+00 -1.5133e+00 -1.1004e+00
-7.1042e-01 -1.0836e+00 -6.6109e-01
-1.9801e-01 -6.1834e-01 -2.8537e-01
2.0467e-01 -2.8367e-01 0.0000e+00
1.0475e-01 8.3091e-02 -3.3932e-01
-1.8126e-02 4.6982e-02 -5.7476e-01
-1.9518e-01 5.3154e-02 -1.0334e+00
-4.8149e-01 -8.8004e-02 -1.2547e+00
-7.4496e-01 -4.9241e-01 -5.8031e-01
-7.2436e-01 -6.8902e-01 2.1551e-01
-4.9730e-01 -5.2635e-01 4.5486e-01
-2.8329e-01 -3.2363e-01 4.9075e-01
-1.2317e-01 -1.8574e-01 5.2986e-01
2.1347e-01 -1.8600e-01 -2.5177e-01
7.0750e-01 5.8241e-02 -2.5152e-01
1.3739e+00 3.1916e-01 -3.7535e-01
1.9437e+00 7.1433e-01 -2.8486e-01
1.7794e+00 1.1494e+00 3.7447e-01
1.0939e+00 1.1986e+00 8.5175e-01
4.8683e-01 8.7536e-01 7.6256e-01
4.1811e-02 5.2751e-01 5.5464e-01
-3.1156e-01 2.5461e-01 4.0609e-01
1.5440e-01 -2.5644e-01 1.9760e-01
7.4004e-01 2.7391e-02 3.5460e-01
1.5221e+00 3.0680e-01 6.0810e-01
2.2705e+00 8.0612e-01 7.4748e-01
2.2859e+00 1.4916e+00 4.3973e-01
1.6006e+00 1.6587e+00 2.9249e-02
8.3715e-01 1.2308e+00 -1.4684e-01
2.3700e-01 7.5024e-01 -2.2179e-01
-2.3211e-01 3.8245e-01 -2.8286e-01
-1.1031e-04 1.5578e-04 4.5942e-01
-3.7479e-05 3.4237e-04 6.5354e-01
2.5102e-04 5.4827e-04 1.0637e+00
7.3555e-04 1.6169e-04 1.1481e+00
4.9307e-04 -5.4675e-04 2.4255e-01
-1.8524e-04 -5.2026e-04 -6.4400e-01
-3.5647e-04 -2.8261e-05 -7.9651e-01
-2.4769e-04 2.1625e-04 -7.2615e-01
-1.8743e-04 2.5548e-04 -6.8574e-01
-1.5459e-01 2.5677e-01 1.9792e-01
-7.4026e-01 -2.6774e-02 3.5493e-01
-1.5226e+00 -3.0619e-01 6.0862e-01
-2.2703e+00 -8.0683e-01 7.4757e-01
-2.2844e+00 -1.4929e+00 4.3921e-01
-1.5992e+00 -1.6585e+00 2.8989e-02
-8.3680e-01 -1.2298e+00 -1.4691e-01
-2.3719e-01 -7.4947e-01 -2.2198e-01
2.3168e-01 -3.8192e-01 -2.8308e-01
-2.1356e-01 1.8636e-01 -2.5123e-01
-7.0765e-01 -5.7631e-02 -2.5106e-01
-1.3741e+00 -3.1847e-01 -3.7529e-01
-1.9430e+00 -7.1464e-01 -2.8443e-01
-1.7780e+00 -1.1504e+00 3.7524e-01
-1.0933e+00 -1.1989e+00 8.5162e-01
-4.8703e-01 -8.7487e-01 7.6185e-01
-4.2224e-02 -5.2698e-01 5.5396e-01
3.1106e-01 -2.5420e-01 4.0543e-01
-1.0473e-01 -8.2733e-02 -3.3875e-01
1.7952e-02 -4.6499e-02 -5.7421e-01
1.9519e-01 -5.2446e-02 -1.0328e+00
4.8210e-01 8.7812e-02 -1.2546e+00
7.4529e-01 4.9099e-01 -5.8032e-01
7.2379e-01 6.8796e-01 2.1587e-01
4.9646e-01 5.2621e-01 4.5497e-01
2.8262e-01 3.2383e-01 4.9032e-01
1.2266e-01 1.8603e-01 5.2922e-01
9.8553e-02 -1.3660e-01 -0.0000e+00
6.0666e-01 8.0248e-02 -2.9442e-01
1.3643e+00 2.7995e-01 -6.9392e-01
2.1092e+00 6.9046e-01 -1.1552e+00
2.0791e+00 1.3415e+00 -1.3499e+00
1.3923e+00 1.5128e+00 -1.1004e+00
7.0986e-01 1.0839e+00 -6.6096e-01
1.9738e-01 6.1864e-01 -2.8519e-01
-2.0498e-01 2.8410e-01 -0.0000e+00
-1.6252e-01 1.7446e-01 0.0000e+00
-2.7973e-01 3.0016e-01 -3.8383e-05
-5.5097e-01 5.9141e-01 -6.0360e-06
-6.4968e-01 6.9723e-01 -5.6746e-05
-1.2352e-01 1.3174e-01 -3.1611e-04
3.9681e-01 -4.2741e-01 -5.4199e-04
4.4599e-01 -4.8004e-01 -4.8596e-04
3.7169e-01 -3.9969e-01 -2.6278e-04
3.3752e-01 -3.6231e-01 0.0000e+00
-5.6721e-03 6.2321e-03 -2.4849e-04
-4.6482e-02 5.0396e-02 -1.2844e-04
-1.5082e-01 1.6294e-01 2.4245e-05
-2.0256e-01 2.1835e-01 1.4928e-04
-3.5995e-02 3.8428e-02 -4.2711e-05
1.2923e-01 -1.3991e-01 -2.8855e-04
1.3060e-01 -1.4131e-01 -2.0729e-04
9.3185e-02 -1.0065e-01 6.4707e-05
7.5893e-02 -8.1634e-02 2.9074e-04
2.6602e-01 -2.8548e-01 -2.0857e-04
3.5412e-01 -3.7947e-01 -8.4045e-05
5.2634e-01 -5.6377e-01 1.2528e-04
5.3814e-01 -5.7644e-01 4.5867e-05
1.0443e-01 -1.1188e-01 -1.4826e-04
-3.2066e-01 3.4348e-01 -1.2861e-04
-4.0988e-01 4.3920e-01 3.8046e-05
-3.8870e-01 4.1682e-01 1.6689e-04
-3.7450e-01 4.0191e-01 2.4956e-04
2.8774e-01 -3.0885e-01 -7.0947e-05
3.9661e-01 -4.2509e-01 -1.6824e-05
6.1963e-01 -6.6390e-01 -2.3150e-05
6.5071e-01 -6.9735e-01 7.3986e-05
1.2240e-01 -1.3116e-01 8.7409e-05
-3.9453e-01 4.2286e-01 -1.6955e-05
-4.9004e-01 5.2538e-01 -3.6279e-05
-4.5263e-01 4.8559e-01 -4.1775e-07
-4.2960e-01 4.6114e-01 3.3798e-05
2.3011e-07 -2.4635e-07 1.2319e-04
3.7113e-04 3.4529e-04 9.8048e-05
7.6005e-04 7.0930e-04 5.1552e-05
7.5866e-04 7.0747e-04 -2.2125e-08
1.0657e-04 1.0060e-04 -2.0119e-05
-4.9245e-04 -4.5806e-04 -3.4048e-05
-5.0969e-04 -4.7516e-04 -1.7593e-05
-2.4611e-04 -2.3095e-04 -5.3906e-05
1.2880e-06 -1.3832e-06 -1.1636e-04
-2.8771e-01 3.0888e-01 2.6823e-04
-3.9595e-01 4.2571e-01 2.3009e-04
-6.1840e-01 6.6504e-01 1.2299e-04
-6.4956e-01 6.9843e-01 -2.9557e-05
-1.2221e-01 1.3134e-01 -1.2719e-04
3.9389e-01 -4.2347e-01 -4.4808e-05
4.8934e-01 -5.2604e-01 -2.6389e-05
4.5228e-01 -4.8593e-01 -1.2791e-04
4.2958e-01 -4.6116e-01 -1.9536e-04
-2.6591e-01 2.8558e-01 3.7579e-04
-3.5346e-01 3.8008e-01 2.4392e-04
-5.2514e-01 5.6490e-01 4.4016e-05
-5.3696e-01 5.7753e-01 1.2457e-05
-1.0426e-01 1.1204e-01 1.7407e-04
3.1985e-01 -3.4423e-01 6.4987e-05
4.0900e-01 -4.4002e-01 -1.3800e-04
3.8822e-01 -4.1727e-01 -2.5980e-04
3.7440e-01 -4.0202e-01 -3.4586e-04
5.8469e-03 -6.0676e-03 3.6124e-04
4.6979e-02 -4.9931e-02 2.6407e-04
1.5178e-01 -1.6204e-01 9.1827e-05
2.0338e-01 -2.1758e-01 -1.0697e-05
3.5642e-02 -3.8754e-02 9.7338e-05
-1.3052e-01 1.3871e-01 2.8204e-04
-1.3178e-01 1.4022e-01 1.4842e-04
-9.3830e-02 1.0005e-01 -1.5528e-04
-7.6063e-02 8.1471e-02 -3.0650e-04
1.6252e-01 -1.7446e-01 -0.0000e+00
2.7955e-01 -3.0032e-01 9.2098e-05
5.5086e-01 -5.9152e-01 7.9554e-05
6.4937e-01 -6.9752e-01 1.7358e-04
1.2250e-01 -1.3269e-01 4.4335e-04
-3.9834e-01 4.2599e-01 5.9382e-04
-4.4729e-01 4.7883e-01 4.8724e-04
-3.7236e-01 3.9905e-01 2.4378e-04
-3.3752e-01 3.6230e-01 -0.0000e+00
-1.2930e-01 1.0798e-01 0.0000e+00
1.2303e-01 5.9955e-01 2.9448e-01
3.7586e-01 1.3412e+00 6.9400e-01
8.3812e-01 2.0552e+00 1.1552e+00
1.4853e+00 1.9792e+00 1.3500e+00
1.6075e+00 1.2820e+00 1.1005e+00
1.1315e+00 6.3154e-01 6.6103e-01
6.3113e-01 1.5315e-01 2.8522e-01
2.6897e-01 -2.2462e-01 0.0000e+00
-8.9962e-02 -9.8656e-02 3.3887e-01
-4.5125e-02 2.1249e-02 5.7436e-01
-3.8411e-02 1.9845e-01 1.0330e+00
1.2178e-01 4.7478e-01 1.2547e+00
5.4258e-01 7.0881e-01 5.8041e-01
7.3746e-01 6.7343e-01 -2.1584e-01
5.6006e-01 4.5810e-01 -4.5502e-01
3.4310e-01 2.5906e-01 -4.9044e-01
1.9428e-01 1.0921e-01 -5.2933e-01