<?xml version="1.0"?>
<VTKFile type="StructuredGrid" version="0.1">
  <StructuredGrid WholeExtent="0 8 0 8 0 8">
    <Piece Extent="0 8 0 8 0 8">
      <PointData Scalars="temperature" Vectors="velocity">
        <DataArray type="Float32" Name="temperature" format="ascii">
1.000000e+00
9.210957e-01
7.970478e-01
6.791114e-01
5.793905e-01
4.296948e-01
2.982463e-01
1.730034e-01
0.000000e+00
1.000000e+00
9.204944e-01
7.954520e-01
6.728996e-01
5.577362e-01
4.233686e-01
2.967159e-01
1.723584e-01
0.000000e+00
1.000000e+00
9.193876e-01
7.925495e-01
6.611771e-01
5.193778e-01
4.129673e-01
2.940370e-01
1.711755e-01
0.000000e+00
1.000000e+00
9.191975e-01
7.920169e-01
6.588087e-01
5.117761e-01
4.110645e-01
2.935420e-01
1.709567e-01
0.000000e+00
1.000000e+00
9.202062e-01
7.946250e-01
6.691622e-01
5.444592e-01
4.198189e-01
2.958843e-01
1.720028e-01
0.000000e+00
1.000000e+00
9.212137e-01
7.971769e-01
6.787726e-01
5.772825e-01
4.293109e-01
2.982860e-01
1.730533e-01
0.000000e+00
1.000000e+00
9.210256e-01
7.966661e-01
6.766999e-01
5.696277e-01
4.271148e-01
2.977667e-01
1.728339e-01
0.000000e+00
1.000000e+00
9.199240e-01
7.937959e-01
6.653386e-01
5.312084e-01
4.163642e-01
2.950577e-01
1.716539e-01
0.000000e+00
1.000000e+00
9.192529e-01
7.920800e-01
6.583772e-01
5.096205e-01
4.106570e-01
2.935205e-01
1.709530e-01
0.000000e+00
1.000000e+00
9.208270e-01
7.963412e-01
6.763038e-01
5.691475e-01
4.266912e-01
2.975337e-01
1.727013e-01
0.000000e+00
1.000000e+00
9.204122e-01
7.952233e-01
6.718712e-01
5.538631e-01
4.222837e-01
2.964631e-01
1.722538e-01
0.000000e+00
1.000000e+00
9.196289e-01
7.931726e-01
6.636094e-01
5.267289e-01
4.148991e-01
2.945674e-01
1.714166e-01
0.000000e+00
1.000000e+00
9.194944e-01
7.927975e-01
6.619584e-01
5.213465e-01
4.135286e-01
2.942162e-01
1.712617e-01
0.000000e+00
1.000000e+00
9.202081e-01
7.946396e-01
6.692233e-01
5.444781e-01
4.197811e-01
2.958751e-01
1.720012e-01
0.000000e+00
1.000000e+00
9.209200e-01
7.964449e-01
6.760756e-01
5.676693e-01
4.264306e-01
2.975697e-01
1.727441e-01
0.000000e+00
1.000000e+00
9.207872e-01
7.960827e-01
6.745860e-01
5.622629e-01
4.249027e-01
2.972040e-01
1.725892e-01
0.000000e+00
1.000000e+00
9.200089e-01
7.940525e-01
6.665247e-01
5.351045e-01
4.173310e-01
2.952909e-01
1.717557e-01
0.000000e+00
1.000000e+00
9.195239e-01
7.928296e-01
6.616419e-01
5.198099e-01
4.132297e-01
2.941931e-01
1.712516e-01
0.000000e+00
1.000000e+00
9.201765e-01
7.946069e-01
6.692014e-01
5.444520e-01
4.197450e-01
2.958434e-01
1.719747e-01
0.000000e+00
1.000000e+00
9.202119e-01
7.946518e-01
6.692768e-01
5.444952e-01
4.197482e-01
2.958672e-01
1.720032e-01
0.000000e+00
1.000000e+00
9.202095e-01
7.946474e-01
6.692569e-01
5.444890e-01
4.197607e-01
2.958696e-01
1.720011e-01
0.000000e+00
1.000000e+00
9.202088e-01
7.946455e-01
6.692433e-01
5.444864e-01
4.197714e-01
2.958718e-01
1.720008e-01
0.000000e+00
1.000000e+00
9.202099e-01
7.946543e-01
6.692844e-01
5.444969e-01
4.197434e-01
2.958659e-01
1.719995e-01
0.000000e+00
1.000000e+00
9.202089e-01
7.946456e-01
6.692434e-01
5.444865e-01
4.197716e-01
2.958719e-01
1.720008e-01
0.000000e+00
1.000000e+00
9.202095e-01
7.946475e-01
6.692570e-01
5.444891e-01
4.197609e-01
2.958696e-01
1.720012e-01
0.000000e+00
1.000000e+00
9.202119e-01
7.946518e-01
6.692769e-01
5.444953e-01
4.197483e-01
2.958673e-01
1.720033e-01
0.000000e+00
1.000000e+00
9.201766e-01
7.946069e-01
6.692014e-01
5.444519e-01
4.197451e-01
2.958435e-01
1.719748e-01
0.000000e+00
1.000000e+00
9.195239e-01
7.928296e-01
6.616419e-01
5.198100e-01
4.132298e-01
2.941933e-01
1.712517e-01
0.000000e+00
1.000000e+00
9.200089e-01
7.940524e-01
6.665246e-01
5.351045e-01
4.173309e-01
2.952909e-01
1.717557e-01
0.000000e+00
1.000000e+00
9.207871e-01
7.960826e-01
6.745859e-01
5.622627e-01
4.249026e-01
2.972039e-01
1.725892e-01
0.000000e+00
1.000000e+00
9.209200e-01
7.964448e-01
6.760754e-01
5.676691e-01
4.264304e-01
2.975696e-01
1.727441e-01
0.000000e+00
1.000000e+00
9.202081e-01
7.946396e-01
6.692233e-01
5.444781e-01
4.197811e-01
2.958751e-01
1.720012e-01
0.000000e+00
1.000000e+00
9.194944e-01
7.927976e-01
6.619586e-01
5.213466e-01
4.135288e-01
2.942163e-01
1.712617e-01
0.000000e+00
1.000000e+00
9.196290e-01
7.931728e-01
6.636096e-01
5.267291e-01
4.148992e-01
2.945675e-01
1.714167e-01
0.000000e+00
1.000000e+00
9.204122e-01
7.952233e-01
6.718712e-01
5.538631e-01
4.222837e-01
2.964631e-01
1.722538e-01
0.000000e+00
1.000000e+00
9.208270e-01
7.963412e-01
6.763037e-01
5.691475e-01
4.266911e-01
2.975336e-01
1.727012e-01
0.000000e+00
1.000000e+00
9.192530e-01
7.920800e-01
6.583771e-01
5.096205e-01
4.106571e-01
2.935208e-01
1.709532e-01
0.000000e+00
1.000000e+00
9.199240e-01
7.937958e-01
6.653385e-01
5.312083e-01
4.163642e-01
2.950578e-01
1.716540e-01
0.000000e+00
1.000000e+00
9.210256e-01
7.966660e-01
6.766997e-01
5.696275e-01
4.271145e-01
2.977665e-01
1.728338e-01
0.000000e+00
1.000000e+00
9.212136e-01
7.971767e-01
6.787724e-01
5.772822e-01
4.293107e-01
2.982859e-01
1.730532e-01
0.000000e+00
1.000000e+00
9.202062e-01
7.946250e-01
6.691622e-01
5.444592e-01
4.198189e-01
2.958843e-01
1.720028e-01
0.000000e+00
1.000000e+00
9.191975e-01
7.920170e-01
6.588090e-01
5.117764e-01
4.110646e-01
2.935421e-01
1.709568e-01
0.000000e+00
1.000000e+00
9.193876e-01
7.925497e-01
6.611773e-01
5.193780e-01
4.129675e-01
2.940372e-01
1.711756e-01
0.000000e+00
1.000000e+00
9.204944e-01
7.954521e-01
6.728996e-01
5.577362e-01
4.233686e-01
2.967158e-01
1.723583e-01
0.000000e+00
1.000000e+00
9.210957e-01
7.970478e-01
6.791114e-01
5.793905e-01
4.296945e-01
2.982460e-01
1.730032e-01
0.000000e+00
1.000000e+00
9.195239e-01
7.928296e-01
6.616419e-01
5.198100e-01
4.132298e-01
2.941933e-01
1.712517e-01
0.000000e+00
1.000000e+00
9.200089e-01
7.940524e-01
6.665246e-01
5.351045e-01
4.173309e-01
2.952909e-01
1.717557e-01
0.000000e+00
1.000000e+00
9.207871e-01
7.960826e-01
6.745859e-01
5.622627e-01
4.249026e-01
2.972039e-01
1.725892e-01
0.000000e+00
1.000000e+00
9.209200e-01
7.964448e-01
6.760754e-01
5.676691e-01
4.264304e-01
2.975696e-01
1.727441e-01
0.000000e+00
1.000000e+00
9.202081e-01
7.946396e-01
6.692233e-01
5.444781e-01
4.197811e-01
2.958751e-01
1.720012e-01
0.000000e+00
1.000000e+00
9.194944e-01
7.927976e-01
6.619586e-01
5.213466e-01
4.135288e-01
2.942163e-01
1.712617e-01
0.000000e+00
1.000000e+00
9.196290e-01
7.931728e-01
6.636096e-01
5.267291e-01
4.148992e-01
2.945675e-01
1.714167e-01
0.000000e+00
1.000000e+00
9.204122e-01
7.952233e-01
6.718712e-01
5.538631e-01
4.222837e-01
2.964631e-01
1.722538e-01
0.000000e+00
1.000000e+00
9.208270e-01
7.963412e-01
6.763037e-01
5.691475e-01
4.266911e-01
2.975336e-01
1.727012e-01
0.000000e+00
1.000000e+00
9.201765e-01
7.946069e-01
6.692014e-01
5.444520e-01
4.197450e-01
2.958434e-01
1.719747e-01
0.000000e+00
1.000000e+00
9.202119e-01
7.946518e-01
6.692768e-01
5.444952e-01
4.197482e-01
2.958672e-01
1.720032e-01
0.000000e+00
1.000000e+00
9.202095e-01
7.946474e-01
6.692569e-01
5.444890e-01
4.197607e-01
2.958696e-01
1.720011e-01
0.000000e+00
1.000000e+00
9.202088e-01
7.946455e-01
6.692433e-01
5.444864e-01
4.197714e-01
2.958718e-01
1.720008e-01
0.000000e+00
1.000000e+00
9.202099e-01
7.946543e-01
6.692844e-01
5.444969e-01
4.197434e-01
2.958659e-01
1.719995e-01
0.000000e+00
1.000000e+00
9.202089e-01
7.946456e-01
6.692434e-01
5.444865e-01
4.197716e-01
2.958719e-01
1.720008e-01
0.000000e+00
1.000000e+00
9.202095e-01
7.946475e-01
6.692570e-01
5.444891e-01
4.197609e-01
2.958696e-01
1.720012e-01
0.000000e+00
1.000000e+00
9.202119e-01
7.946518e-01
6.692769e-01
5.444953e-01
4.197483e-01
2.958673e-01
1.720033e-01
0.000000e+00
1.000000e+00
9.201766e-01
7.946069e-01
6.692014e-01
5.444519e-01
4.197451e-01
2.958435e-01
1.719748e-01
0.000000e+00
1.000000e+00
9.208270e-01
7.963412e-01
6.763038e-01
5.691475e-01
4.266912e-01
2.975337e-01
1.727013e-01
0.000000e+00
1.000000e+00
9.204122e-01
7.952233e-01
6.718712e-01
5.538631e-01
4.222837e-01
2.964631e-01
1.722538e-01
0.000000e+00
1.000000e+00
9.196289e-01
7.931726e-01
6.636094e-01
5.267289e-01
4.148991e-01
2.945674e-01
1.714166e-01
0.000000e+00
1.000000e+00
9.194944e-01
7.927975e-01
6.619584e-01
5.213465e-01
4.135286e-01
2.942162e-01
1.712617e-01
0.000000e+00
1.000000e+00
9.202081e-01
7.946396e-01
6.692233e-01
5.444781e-01
4.197811e-01
2.958751e-01
1.720012e-01
0.000000e+00
1.000000e+00
9.209200e-01
7.964449e-01
6.760756e-01
5.676693e-01
4.264306e-01
2.975697e-01
1.727441e-01
0.000000e+00
1.000000e+00
9.207872e-01
7.960827e-01
6.745860e-01
5.622629e-01
4.249027e-01
2.972040e-01
1.725892e-01
0.000000e+00
1.000000e+00
9.200089e-01
7.940525e-01
6.665247e-01
5.351045e-01
4.173310e-01
2.952909e-01
1.717557e-01
0.000000e+00
1.000000e+00
9.195239e-01
7.928296e-01
6.616419e-01
5.198099e-01
4.132297e-01
2.941931e-01
1.712516e-01
0.000000e+00
1.000000e+00
9.210957e-01
7.970478e-01
6.791114e-01
5.793905e-01
4.296948e-01
2.982463e-01
1.730034e-01
0.000000e+00
1.000000e+00
9.204944e-01
7.954520e-01
6.728996e-01
5.577362e-01
4.233686e-01
2.967159e-01
1.723584e-01
0.000000e+00
1.000000e+00
9.193876e-01
7.925495e-01
6.611771e-01
5.193778e-01
4.129673e-01
2.940370e-01
1.711755e-01
0.000000e+00
1.000000e+00
9.191975e-01
7.920169e-01
6.588087e-01
5.117761e-01
4.110645e-01
2.935420e-01
1.709567e-01
0.000000e+00
1.000000e+00
9.202062e-01
7.946250e-01
6.691622e-01
5.444592e-01
4.198189e-01
2.958843e-01
1.720028e-01
0.000000e+00
1.000000e+00
9.212137e-01
7.971769e-01
6.787726e-01
5.772825e-01
4.293109e-01
2.982860e-01
1.730533e-01
0.000000e+00
1.000000e+00
9.210256e-01
7.966661e-01
6.766999e-01
5.696277e-01
4.271148e-01
2.977667e-01
1.728339e-01
0.000000e+00
1.000000e+00
9.199240e-01
7.937959e-01
6.653386e-01
5.312084e-01
4.163642e-01
2.950577e-01
1.716539e-01
0.000000e+00
1.000000e+00
9.192529e-01
7.920800e-01
6.583772e-01
5.096205e-01
4.106570e-01
2.935205e-01
1.709530e-01
0.000000e+00
        </DataArray>
        <DataArray type="Float32" Name="velocity" NumberOfComponents="3" format="ascii">
0.000000e+00 0.000000e+00 0.000000e+00
9.795828e-01 0.000000e+00 5.351439e-01
2.118978e+00 0.000000e+00 1.157593e+00
3.260919e+00 0.000000e+00 1.781432e+00
3.723821e+00 0.000000e+00 2.034315e+00
3.166617e+00 0.000000e+00 1.729916e+00
2.053537e+00 0.000000e+00 1.121843e+00
9.400071e-01 0.000000e+00 5.135238e-01
0.000000e+00 0.000000e+00 0.000000e+00
-2.626123e-01 0.000000e+00 6.671681e-01
-3.727216e-02 0.000000e+00 1.017161e+00
2.217237e-01 0.000000e+00 1.580675e+00
6.947831e-01 0.000000e+00 1.728241e+00
1.251758e+00 0.000000e+00 9.063841e-01
1.413653e+00 0.000000e+00 -1.343055e-01
1.130127e+00 0.000000e+00 -6.612721e-01
7.394647e-01 0.000000e+00 -8.768568e-01
3.912261e-01 0.000000e+00 -9.939124e-01
-1.241366e-01 0.000000e+00 4.861659e-01
-1.162830e+00 0.000000e+00 4.147663e-01
-2.280714e+00 0.000000e+00 4.825374e-01
-3.222179e+00 0.000000e+00 2.316068e-01
-3.373939e+00 0.000000e+00 -5.686898e-01
-2.671082e+00 0.000000e+00 -1.183982e+00
-1.638299e+00 0.000000e+00 -1.203645e+00
-6.514086e-01 0.000000e+00 -9.872933e-01
1.922231e-01 0.000000e+00 -7.528182e-01
5.242645e-02 0.000000e+00 -4.172373e-01
-1.181341e+00 0.000000e+00 -6.766206e-01
-2.500954e+00 0.000000e+00 -1.009491e+00
-3.763487e+00 0.000000e+00 -1.114851e+00
-4.275046e+00 0.000000e+00 -7.120943e-01
-3.668030e+00 0.000000e+00 -1.499141e-01
-2.432297e+00 0.000000e+00 2.082721e-01
-1.166057e+00 0.000000e+00 4.192023e-01
-7.032507e-02 0.000000e+00 5.596839e-01
-3.453155e-06 0.000000e+00 -9.400933e-01
-1.422143e-03 0.000000e+00 -1.208920e+00
1.207102e-04 0.000000e+00 -1.666639e+00
2.903960e-03 0.000000e+00 -1.582392e+00
1.116986e-03 0.000000e+00 -4.420013e-01
-3.275947e-04 0.000000e+00 7.594106e-01
1.916915e-03 0.000000e+00 1.236841e+00
2.253826e-03 0.000000e+00 1.333830e+00
4.871415e-06 0.000000e+00 1.326203e+00
-5.195922e-02 0.000000e+00 -4.134942e-01
1.175618e+00 0.000000e+00 -6.715870e-01
2.485749e+00 0.000000e+00 -1.001326e+00
3.749331e+00 0.000000e+00 -1.112512e+00
4.285836e+00 0.000000e+00 -7.191003e-01
3.699882e+00 0.000000e+00 -1.554498e-01
2.459030e+00 0.000000e+00 2.052964e-01
1.177780e+00 0.000000e+00 4.157068e-01
6.994648e-02 0.000000e+00 5.566378e-01
1.256129e-01 0.000000e+00 4.919325e-01
1.158364e+00 0.000000e+00 4.213833e-01
2.269780e+00 0.000000e+00 4.869572e-01
3.215647e+00 0.000000e+00 2.406804e-01
3.382730e+00 0.000000e+00 -5.590398e-01
2.688759e+00 0.000000e+00 -1.188572e+00
1.653087e+00 0.000000e+00 -1.216286e+00
6.577254e-01 0.000000e+00 -9.984404e-01
-1.945360e-01 0.000000e+00 -7.618529e-01
2.648944e-01 0.000000e+00 6.729515e-01
3.312074e-02 0.000000e+00 1.025242e+00
-2.273756e-01 0.000000e+00 1.591042e+00
-6.997230e-01 0.000000e+00 1.734392e+00
-1.258101e+00 0.000000e+00 9.074850e-01
-1.417703e+00 0.000000e+00 -1.329094e-01
-1.130181e+00 0.000000e+00 -6.635617e-01
-7.398673e-01 0.000000e+00 -8.843114e-01
-3.944599e-01 0.000000e+00 -1.002106e+00
0.000000e+00 0.000000e+00 -0.000000e+00
-9.921410e-01 0.000000e+00 5.420139e-01
-2.146577e+00 0.000000e+00 1.172690e+00
-3.291721e+00 0.000000e+00 1.798291e+00
-3.732094e+00 0.000000e+00 2.038870e+00
-3.154766e+00 0.000000e+00 1.723471e+00
-2.043984e+00 0.000000e+00 1.116643e+00
-9.379232e-01 0.000000e+00 5.123942e-01
0.000000e+00 0.000000e+00 -0.000000e+00
2.620125e-02 -2.085172e-01 0.000000e+00
7.291879e-01 -2.420795e-01 3.787577e-01
1.559874e+00 -3.792014e-01 8.196794e-01
2.364911e+00 -3.138276e-01 1.260491e+00
2.630191e+00 1.635169e-01 1.436794e+00
2.175803e+00 5.904542e-01 1.219578e+00
1.376847e+00 6.423912e-01 7.900525e-01
5.990978e-01 5.410862e-01 3.615853e-01
-5.526468e-02 4.398124e-01 0.000000e+00
-1.862410e-01 -4.026258e-03 4.707301e-01
-2.104834e-02 -2.600846e-02 7.189130e-01
1.744834e-01 -1.027966e-01 1.118271e+00
5.109664e-01 -1.050385e-01 1.222565e+00
8.834484e-01 6.169086e-02 6.402639e-01
9.767606e-01 2.114725e-01 -9.632316e-02
7.743174e-01 2.129895e-01 -4.685822e-01
5.043841e-01 1.589979e-01 -6.200435e-01
2.641889e-01 1.132415e-01 -7.018045e-01
-1.379176e-01 3.958113e-01 3.426589e-01
-8.750643e-01 3.915815e-01 2.929138e-01
-1.673337e+00 4.229704e-01 3.414023e-01
-2.325890e+00 2.695896e-01 1.644420e-01
-2.384543e+00 -1.629834e-01 -4.020207e-01
-1.841296e+00 -5.304953e-01 -8.380440e-01
-1.093829e+00 -6.226316e-01 -8.517980e-01
-3.931770e-01 -5.845008e-01 -6.978195e-01
2.014595e-01 -5.152070e-01 -5.312738e-01
-1.701267e-02 4.334203e-01 -2.957120e-01
-8.932435e-01 4.330173e-01 -4.787895e-01
-1.838432e+00 4.926598e-01 -7.134731e-01
-2.717071e+00 3.200854e-01 -7.880315e-01
-3.019353e+00 -2.205493e-01 -5.037978e-01
-2.534440e+00 -6.759476e-01 -1.063978e-01
-1.641612e+00 -7.702694e-01 1.471828e-01
-7.452292e-01 -7.018642e-01 2.966065e-01
2.556452e-02 -6.027445e-01 3.961910e-01
-2.790367e-04 2.201068e-03 -6.647879e-01
1.765919e-03 3.237477e-03 -8.548967e-01
5.058605e-03 2.895996e-03 -1.178561e+00
6.751743e-03 -2.298872e-03 -1.118915e+00
2.229078e-03 -6.441431e-03 -3.125810e-01
-2.695042e-03 -3.532686e-03 5.370299e-01
-2.546211e-03 1.259075e-03 8.746574e-01
-1.005206e-03 3.247209e-03 9.431750e-01
-4.322083e-04 3.467269e-03 9.377964e-01
1.695785e-02 -4.290310e-01 -2.917723e-01
8.944886e-01 -4.265471e-01 -4.746727e-01
1.838521e+00 -4.867410e-01 -7.084231e-01
2.718481e+00 -3.272865e-01 -7.870840e-01
3.028368e+00 2.048603e-01 -5.081445e-01
2.547336e+00 6.710031e-01 -1.095338e-01
1.649857e+00 7.762431e-01 1.453537e-01
7.476869e-01 7.098479e-01 2.938636e-01
-2.687373e-02 6.101061e-01 3.931338e-01
1.390047e-01 -3.917323e-01 3.488641e-01
8.768951e-01 -3.855671e-01 2.982896e-01
1.675245e+00 -4.174484e-01 3.440511e-01
2.330728e+00 -2.755681e-01 1.695524e-01
2.391781e+00 1.489294e-01 -3.955158e-01
1.845853e+00 5.249323e-01 -8.395476e-01
1.094854e+00 6.269760e-01 -8.594042e-01
3.919498e-01 5.912983e-01 -7.062150e-01
-2.044132e-01 5.217248e-01 -5.395523e-01
1.882371e-01 7.610651e-03 4.768867e-01
2.190443e-02 3.103658e-02 7.252634e-01
-1.719219e-01 1.073576e-01 1.124448e+00
-5.085689e-01 1.000675e-01 1.225919e+00
-8.881850e-01 -7.422755e-02 6.423307e-01
-9.869426e-01 -2.181129e-01 -9.274638e-02
-7.831929e-01 -2.110277e-01 -4.682352e-01
-5.102757e-01 -1.540030e-01 -6.252960e-01
-2.679336e-01 -1.078872e-01 -7.095325e-01
-2.656879e-02 2.114421e-01 -0.000000e+00
-7.372142e-01 2.458355e-01 3.828591e-01
-1.575748e+00 3.826152e-01 8.280658e-01
-2.382916e+00 3.058499e-01 1.270816e+00
-2.640382e+00 -1.791882e-01 1.443410e+00
-2.180087e+00 -5.961571e-01 1.222309e+00
-1.382015e+00 -6.384603e-01 7.926000e-01
-6.038352e-01 -5.355887e-01 3.637851e-01
5.455197e-02 -4.341404e-01 -0.000000e+00
7.406677e-02 -2.900690e-01 0.000000e+00
1.154741e-01 -4.571775e-01 -6.682691e-04
1.991331e-01 -7.861406e-01 -8.477141e-04
2.077632e-01 -8.276347e-01 -1.887883e-03
4.776840e-02 -2.191759e-01 -4.338469e-03
-1.215818e-01 4.320103e-01 -5.966170e-03
-1.713542e-01 6.327327e-01 -5.182538e-03
-1.655691e-01 6.277757e-01 -2.790351e-03
-1.540742e-01 6.034035e-01 0.000000e+00
-4.902300e-03 2.443334e-02 -3.289968e-03
1.239967e-02 -3.429119e-02 -2.343164e-03
4.972266e-02 -1.709199e-01 -1.023448e-03
6.189682e-02 -2.255610e-01 -2.868759e-04
1.195017e-02 -5.962641e-02 -1.520205e-03
-4.044471e-02 1.220836e-01 -2.868023e-03
-4.798761e-02 1.531320e-01 -1.512094e-03
-3.713704e-02 1.248322e-01 1.518999e-03
-2.813475e-02 1.043723e-01 3.653209e-03
-1.418869e-01 5.591881e-01 -3.404766e-03
-1.684956e-01 6.791522e-01 -2.178415e-03
-2.111876e-01 8.592335e-01 -5.232168e-04
-1.892179e-01 7.702215e-01 -6.379992e-04
-4.918077e-02 1.961184e-01 -1.688911e-03
9.779959e-02 -4.037583e-01 -7.618093e-04
1.634397e-01 -6.639969e-01 1.288504e-03
1.834918e-01 -7.330977e-01 2.881872e-03
1.878687e-01 -7.397132e-01 3.836843e-03
-1.501695e-01 5.892378e-01 -2.217730e-03
-1.834620e-01 7.381830e-01 -1.785406e-03
-2.421160e-01 9.819557e-01 -1.124072e-03
-2.236568e-01 9.061916e-01 1.429053e-04
-5.663715e-02 2.278146e-01 8.345708e-04
1.192239e-01 -4.825374e-01 4.209794e-04
1.922975e-01 -7.713169e-01 4.461895e-04
2.100951e-01 -8.326984e-01 1.120717e-03
2.114480e-01 -8.289381e-01 1.655416e-03
1.075721e-06 -4.215269e-06 -1.619278e-04
5.556949e-03 1.415450e-03 -2.312449e-04
1.030926e-02 2.632001e-03 -1.733098e-04
9.614396e-03 2.457810e-03 -6.592533e-05
1.642382e-03 4.227077e-04 -6.913931e-06
-5.718906e-03 -1.457560e-03 7.191214e-05
-6.452177e-03 -1.646082e-03 1.702908e-04
-3.331786e-03 -8.522363e-04 1.638020e-04
6.605459e-07 -2.584835e-06 1.395926e-04
1.506751e-01 -5.891174e-01 1.917991e-03
1.929647e-01 -7.357641e-01 1.418138e-03
2.584481e-01 -9.777875e-01 8.187439e-04
2.383473e-01 -9.024360e-01 -2.891438e-04
5.972149e-02 -2.270210e-01 -8.392989e-04
-1.264841e-01 4.806881e-01 -3.033287e-04
-2.009094e-01 7.691215e-01 -2.283774e-04
-2.147979e-01 8.314961e-01 -8.669058e-04
-2.118204e-01 8.288384e-01 -1.412932e-03
1.435325e-01 -5.587760e-01 3.238831e-03
1.777941e-01 -6.767862e-01 1.960832e-03
2.267811e-01 -8.552563e-01 3.633669e-04
2.034036e-01 -7.665985e-01 5.208479e-04
5.118075e-02 -1.956029e-01 1.683033e-03
-1.075067e-01 4.012840e-01 8.276876e-04
-1.747463e-01 6.611139e-01 -1.277604e-03
-1.903255e-01 7.313539e-01 -2.762084e-03
-1.897304e-01 7.392367e-01 -3.689306e-03
7.394787e-03 -2.380412e-02 3.240769e-03
-5.518750e-03 3.604064e-02 2.277905e-03
-3.822481e-02 1.738506e-01 9.651863e-04
-5.370826e-02 2.276509e-01 2.703243e-04
-1.794726e-02 5.809839e-02 1.510343e-03
2.318543e-02 -1.264866e-01 2.886416e-03
3.144858e-02 -1.573510e-01 1.468396e-03
2.740613e-02 -1.273139e-01 -1.535231e-03
2.536315e-02 -1.050781e-01 -3.612720e-03
-7.406529e-02 2.900632e-01 -0.000000e+00
-1.178326e-01 4.565690e-01 6.623730e-04
-2.020949e-01 7.853809e-01 8.226890e-04
-2.144720e-01 8.259219e-01 1.894730e-03
-6.314042e-02 2.152537e-01 4.328356e-03
1.004786e-01 -4.373951e-01 5.931967e-03
1.531024e-01 -6.373887e-01 5.107795e-03
1.557638e-01 -6.302761e-01 2.737711e-03
1.540737e-01 -6.034015e-01 -0.000000e+00
7.805589e-02 -1.982993e-01 0.000000e+00
-5.291195e-01 -5.691738e-01 -3.828577e-01
-1.199442e+00 -1.091254e+00 -8.280704e-01
-1.944594e+00 -1.410874e+00 -1.270811e+00
-2.403126e+00 -1.108554e+00 -1.443406e+00
-2.199007e+00 -5.218630e-01 -1.222252e+00
-1.518844e+00 -1.021730e-01 -7.925245e-01
-7.865751e-01 1.804478e-01 -3.637365e-01
-1.602040e-01 4.069949e-01 0.000000e+00
1.688507e-01 8.358386e-02 -4.769327e-01
3.405769e-02 -1.676290e-02 -7.253204e-01
-9.950366e-02 -1.766921e-01 -1.124514e+00
-3.984429e-01 -3.316616e-01 -1.225958e+00
-8.151787e-01 -3.606909e-01 -6.422900e-01
-9.708218e-01 -2.817427e-01 9.285268e-02
-7.885672e-01 -1.902480e-01 4.682549e-01
-5.216257e-01 -1.095368e-01 6.252519e-01
-2.867981e-01 -3.385280e-02 7.094800e-01
-6.578500e-02 4.104359e-01 -3.490195e-01
5.846305e-01 7.587302e-01 -2.984992e-01
1.269845e+00 1.169412e+00 -3.442446e-01
1.913055e+00 1.359168e+00 -1.696699e-01
2.170118e+00 1.015897e+00 3.954944e-01
1.871291e+00 4.241807e-01 8.396034e-01
1.261214e+00 -2.541660e-02 8.594378e-01
6.273270e-01 -3.310335e-01 7.062731e-01
7.071914e-02 -5.558494e-01 5.396285e-01
-1.907696e-01 3.846517e-01 2.914828e-01
5.804381e-01 8.031371e-01 4.742850e-01
1.379933e+00 1.308517e+00 7.081108e-01
2.228577e+00 1.590410e+00 7.869152e-01
2.755590e+00 1.272042e+00 5.081147e-01
2.556966e+00 6.323279e-01 1.096256e-01
1.819887e+00 1.096461e-01 -1.451644e-01
9.963758e-01 -2.645116e-01 -2.936015e-01
2.688729e-01 -5.482881e-01 -3.928759e-01
8.171368e-04 -2.069255e-03 6.644654e-01
3.105166e-03 -1.998541e-03 8.544462e-01
5.827910e-03 -1.172809e-04 1.178195e+00
4.828596e-03 5.260824e-03 1.118754e+00
-1.143179e-03 6.723103e-03 3.126049e-01
-4.057273e-03 1.811724e-03 -5.368680e-01
-1.642525e-03 -2.328797e-03 -8.743618e-01
6.725606e-04 -3.334172e-03 -9.428300e-01
1.277879e-03 -3.255825e-03 -9.374754e-01
1.928343e-01 -3.885400e-01 2.954206e-01
-5.762413e-01 -8.082299e-01 4.784148e-01
-1.377020e+00 -1.313673e+00 7.131892e-01
-2.230783e+00 -1.583405e+00 7.879036e-01
-2.755212e+00 -1.253946e+00 5.038150e-01
-2.548010e+00 -6.217948e-01 1.065278e-01
-1.809798e+00 -1.109367e-01 -1.469672e-01
-9.903888e-01 2.586828e-01 -2.963355e-01
-2.664966e-01 5.411937e-01 -3.959348e-01
6.869389e-02 -4.135078e-01 -3.428149e-01
-5.801471e-01 -7.631466e-01 -2.931093e-01
-1.265535e+00 -1.173355e+00 -3.415656e-01
-1.911680e+00 -1.351603e+00 -1.645192e-01
-2.170511e+00 -1.000088e+00 4.020395e-01
-1.869945e+00 -4.171022e-01 8.381260e-01
-1.258224e+00 2.210313e-02 8.518476e-01
-6.251343e-01 3.244861e-01 6.978785e-01
-7.018059e-02 5.487152e-01 5.313411e-01
-1.653833e-01 -8.578428e-02 -4.707733e-01
-3.090634e-02 1.274535e-02 -7.189666e-01
1.039184e-01 1.739017e-01 -1.118332e+00
3.981413e-01 3.371630e-01 -1.222603e+00
8.049925e-01 3.694199e-01 -6.402282e-01
9.586976e-01 2.826919e-01 9.641606e-02
7.817170e-01 1.842772e-01 4.685890e-01
5.188530e-01 1.023347e-01 6.199875e-01
2.860853e-01 2.736314e-02 7.017411e-01
-7.697337e-02 1.955492e-01 -0.000000e+00
5.238702e-01 5.620181e-01 -3.787641e-01
1.187130e+00 1.080636e+00 -8.197015e-01
1.924942e+00 1.409232e+00 -1.260515e+00
2.386637e+00 1.117412e+00 -1.436821e+00
2.192486e+00 5.248103e-01 -1.219548e+00
1.516171e+00 9.624465e-02 -7.899936e-01
7.850427e-01 -1.875427e-01 -3.615442e-01
1.622968e-01 -4.123115e-01 -0.000000e+00
1.143905e-09 -2.093905e-09 0.000000e+00
-8.706906e-01 -4.756605e-01 -5.420075e-01
-1.883814e+00 -1.029132e+00 -1.172680e+00
-2.888816e+00 -1.578168e+00 -1.798297e+00
-3.275265e+00 -1.789285e+00 -2.038862e+00
-2.768392e+00 -1.512379e+00 -1.723332e+00
-1.793440e+00 -9.797605e-01 -1.116421e+00
-8.228805e-01 -4.495417e-01 -5.122455e-01
7.351449e-09 -1.345674e-08 0.000000e+00
2.324762e-01 1.270023e-01 -6.729934e-01
2.901308e-02 1.584992e-02 -1.025290e+00
-1.996552e-01 -1.090721e-01 -1.591114e+00
-6.141466e-01 -3.355098e-01 -1.734454e+00
-1.104175e+00 -6.032134e-01 -9.073960e-01
-1.244219e+00 -6.797199e-01 1.331008e-01
-9.917967e-01 -5.418210e-01 6.636418e-01
-6.491635e-01 -3.546397e-01 8.842357e-01
-3.461121e-01 -1.890819e-01 1.001957e+00
1.102648e-01 6.023796e-02 -4.920776e-01
1.016480e+00 5.553054e-01 -4.215805e-01
1.991723e+00 1.088083e+00 -4.871757e-01
2.821736e+00 1.541521e+00 -2.407864e-01
2.968423e+00 1.621657e+00 5.590149e-01
2.359328e+00 1.288907e+00 1.188625e+00
1.450477e+00 7.923991e-01 1.216348e+00
5.770816e-01 3.152611e-01 9.984368e-01
-1.707163e-01 -9.326277e-02 7.618538e-01
-4.556493e-02 -2.489224e-02 4.132144e-01
1.031653e+00 5.635944e-01 6.711825e-01
2.181270e+00 1.191633e+00 1.001015e+00
3.290089e+00 1.797384e+00 1.112332e+00
3.760892e+00 2.054585e+00 7.190589e-01
3.246741e+00 1.773703e+00 1.555278e-01
2.157795e+00 1.178809e+00 -2.051277e-01
1.033459e+00 5.645814e-01 -4.154339e-01
6.135002e-02 3.351567e-02 -5.563645e-01
3.027771e-06 1.657934e-06 9.397720e-01
-1.246505e-03 -6.809607e-04 1.208481e+00
1.050338e-04 5.738761e-05 1.666254e+00
2.556974e-03 1.396886e-03 1.582201e+00
9.705248e-04 5.302067e-04 4.420629e-01
-2.820105e-04 -1.540652e-04 -7.592306e-01
1.666963e-03 9.106565e-04 -1.236591e+00
1.973324e-03 1.078024e-03 -1.333468e+00
-4.274404e-06 -2.333918e-06 -1.325840e+00
4.598013e-02 2.511906e-02 4.169549e-01
-1.036677e+00 -5.663392e-01 6.762351e-01
-2.194620e+00 -1.198926e+00 1.009220e+00
-3.302498e+00 -1.804163e+00 1.114729e+00
-3.751434e+00 -2.049417e+00 7.121199e-01
-3.218770e+00 -1.758422e+00 1.500444e-01
-2.134345e+00 -1.165998e+00 -2.080667e-01
-1.023169e+00 -5.589600e-01 -4.189169e-01
-6.168994e-02 -3.370137e-02 -5.594139e-01
-1.089762e-01 -5.953395e-02 -4.863118e-01
-1.020414e+00 -5.574545e-01 -4.149443e-01
-2.001338e+00 -1.093336e+00 -4.827128e-01
-2.827475e+00 -1.544657e+00 -2.316558e-01
-2.960711e+00 -1.617444e+00 5.687212e-01
-2.343792e+00 -1.280419e+00 1.184073e+00
-1.437486e+00 -7.853024e-01 1.203728e+00
-5.715239e-01 -3.122250e-01 9.872914e-01
1.686948e-01 9.215838e-02 7.528091e-01
-2.304821e-01 -1.259130e-01 -6.672063e-01
-3.267600e-02 -1.785098e-02 -1.017204e+00
1.946645e-01 1.063457e-01 -1.580740e+00
6.097804e-01 3.331246e-01 -1.728300e+00
1.098587e+00 6.001609e-01 -9.063007e-01
1.240660e+00 6.777758e-01 1.344758e-01
9.917493e-01 5.417951e-01 6.613323e-01
6.488176e-01 3.544506e-01 8.767648e-01
3.432842e-01 1.875370e-01 9.937489e-01
1.914615e-09 -3.504679e-09 -0.000000e+00
8.596577e-01 4.696331e-01 -5.351488e-01
1.859569e+00 1.015887e+00 -1.157607e+00
2.861749e+00 1.563381e+00 -1.781479e+00
3.267960e+00 1.785295e+00 -2.034350e+00
2.778755e+00 1.518040e+00 -1.729813e+00
1.801801e+00 9.843285e-01 -1.121646e+00
8.247014e-01 4.505364e-01 -5.133880e-01
6.607723e-09 -1.209536e-08 -0.000000e+00
-1.246894e-01 1.728233e-01 0.000000e+00
-7.648277e-01 -1.377128e-01 -3.828577e-01
-1.566320e+00 -4.196882e-01 -8.280704e-01
-2.237878e+00 -8.740212e-01 -1.270811e+00
-2.231230e+00 -1.423206e+00 -1.443406e+00
-1.627261e+00 -1.568437e+00 -1.222252e+00
-9.066104e-01 -1.222859e+00 -7.925245e-01
-2.731468e-01 -7.593765e-01 -3.637365e-01
2.559158e-01 -3.547073e-01 0.000000e+00
1.615638e-01 9.692244e-02 -4.769327e-01
4.295952e-03 3.771560e-02 -7.253204e-01
-2.024433e-01 1.173772e-02 -1.124514e+00
-4.943633e-01 -1.560806e-01 -1.225958e+00
-7.439539e-01 -4.910671e-01 -6.422900e-01
-7.616156e-01 -6.646922e-01 9.285268e-02
-5.861528e-01 -5.607650e-01 4.682549e-01
-3.740076e-01 -3.797499e-01 6.252519e-01
-1.834438e-01 -2.230416e-01 7.094800e-01
3.098261e-01 -2.771156e-01 -3.490195e-01
9.543267e-01 8.200593e-02 -2.984992e-01
1.670126e+00 4.367015e-01 -3.442446e-01
2.177328e+00 8.754188e-01 -1.696699e-01
2.027368e+00 1.277200e+00 3.954944e-01
1.367998e+00 1.345451e+00 8.396035e-01
6.600494e-01 1.075007e+00 8.594378e-01
6.039113e-02 7.067356e-01 7.062731e-01
-4.295214e-01 3.598348e-01 5.396285e-01
2.206000e-01 -3.683553e-01 2.914828e-01
9.894286e-01 5.448509e-02 4.742850e-01
1.846660e+00 4.541788e-01 7.081108e-01
2.542389e+00 1.015981e+00 7.869152e-01
2.559238e+00 1.631462e+00 5.081147e-01
1.913620e+00 1.809965e+00 1.096256e-01
1.075553e+00 1.472140e+00 -1.451644e-01
3.157653e-01 9.813375e-01 -2.936015e-01
-3.160959e-01 5.224900e-01 -3.928759e-01
-1.299721e-03 1.805626e-03 6.644654e-01
-3.992301e-06 3.692733e-03 8.544462e-01
3.050142e-03 4.967396e-03 1.178195e+00
7.035728e-03 1.220695e-03 1.118754e+00
5.039629e-03 -4.594454e-03 3.126049e-01
-6.676391e-04 -4.392959e-03 -5.368680e-01
-2.847065e-03 -1.238943e-04 -8.743618e-01
-2.442218e-03 2.367393e-03 -9.428300e-01
-2.049243e-03 2.834430e-03 -9.374754e-01
-2.227564e-01 3.721935e-01 2.954206e-01
-9.914465e-01 -4.820183e-02 4.784148e-01
-1.849425e+00 -4.489421e-01 7.131892e-01
-2.537686e+00 -1.021622e+00 7.879036e-01
-2.543806e+00 -1.640921e+00 5.038150e-01
-1.899918e+00 -1.808119e+00 1.065278e-01
-1.071188e+00 -1.462953e+00 -1.469673e-01
-3.174353e-01 -9.731504e-01 -2.963355e-01
3.114101e-01 -5.166574e-01 -3.959348e-01
-3.108393e-01 2.812231e-01 -3.428149e-01
-9.556205e-01 -7.584710e-02 -2.931093e-01
-1.671116e+00 -4.309447e-01 -3.415656e-01
-2.170220e+00 -8.783492e-01 -1.645193e-01
-2.014277e+00 -1.286072e+00 4.020395e-01
-1.361315e+00 -1.348143e+00 8.381260e-01
-6.612223e-01 -1.070702e+00 8.518476e-01
-6.471588e-02 -7.013530e-01 6.978785e-01
4.238092e-01 -3.555270e-01 5.313411e-01
-1.615420e-01 -9.281584e-02 -4.707733e-01
-5.973923e-03 -3.289314e-02 -7.189666e-01
2.024806e-01 -6.515154e-03 -1.118332e+00
4.988296e-01 1.528544e-01 -1.222603e+00
7.457955e-01 4.777794e-01 -6.402282e-01
7.558636e-01 6.539771e-01 9.641603e-02
5.774274e-01 5.582268e-01 4.685890e-01
3.664491e-01 3.813081e-01 6.199875e-01
1.775978e-01 2.259481e-01 7.017411e-01
1.229601e-01 -1.704265e-01 -0.000000e+00
7.559702e-01 1.371619e-01 -3.787641e-01
1.550732e+00 4.150653e-01 -8.197015e-01
2.225879e+00 8.583713e-01 -1.260515e+00
2.229775e+00 1.404545e+00 -1.436821e+00
1.626218e+00 1.561357e+00 -1.219548e+00
9.001781e-01 1.223813e+00 -7.899936e-01
2.663487e-01 7.619204e-01 -3.615442e-01
-2.592588e-01 3.593409e-01 -0.000000e+00
-2.040662e-01 2.190500e-01 0.000000e+00
-3.223107e-01 3.441822e-01 -6.682708e-04
-5.539224e-01 5.923183e-01 -8.477194e-04
-5.841756e-01 6.219996e-01 -1.887886e-03
-1.586208e-01 1.586170e-01 -4.338464e-03
2.978332e-01 -3.357237e-01 -5.966161e-03
4.398431e-01 -4.860565e-01 -5.182534e-03
4.387976e-01 -4.785102e-01 -2.790350e-03
4.244999e-01 -4.556693e-01 0.000000e+00
1.791122e-02 -1.732653e-02 -3.289970e-03
-2.215548e-02 2.896158e-02 -2.343168e-03
-1.169588e-01 1.341886e-01 -1.023452e-03