<?xml version="1.0"?>
<VTKFile type="StructuredGrid" version="0.1">
  <StructuredGrid WholeExtent="0 8 0 8 0 8">
    <Piece Extent="0 8 0 8 0 8">
      <PointData Scalars="temperature" Vectors="velocity">
        <DataArray type="Float32" Name="temperature" format="ascii">
1.000000e+00
8.795896e-01
7.541442e-01
6.302466e-01
5.521709e-01
3.802851e-01
2.542255e-01
1.298382e-01
0.000000e+00
1.000000e+00
8.795335e-01
7.540490e-01
6.294821e-01
5.224583e-01
3.795132e-01
2.541333e-01
1.297853e-01
0.000000e+00
1.000000e+00
8.794287e-01
7.538797e-01
6.280329e-01
4.699827e-01
3.782536e-01
2.539631e-01
1.296876e-01
0.000000e+00
1.000000e+00
8.794104e-01
7.538497e-01
6.277369e-01
4.595433e-01
3.780229e-01
2.539304e-01
1.296693e-01
0.000000e+00
1.000000e+00
8.795048e-01
7.540008e-01
6.290116e-01
5.040422e-01
3.790745e-01
2.540810e-01
1.297552e-01
0.000000e+00
1.000000e+00
8.795991e-01
7.541552e-01
6.301840e-01
5.485566e-01
3.802189e-01
2.542291e-01
1.298412e-01
0.000000e+00
1.000000e+00
8.795808e-01
7.541237e-01
6.299286e-01
5.381113e-01
3.799512e-01
2.541974e-01
1.298228e-01
0.000000e+00
1.000000e+00
8.794766e-01
7.539533e-01
6.285280e-01
4.856297e-01
3.786494e-01
2.540290e-01
1.297255e-01
0.000000e+00
1.000000e+00
8.794120e-01
7.538537e-01
6.276604e-01
4.559256e-01
3.779592e-01
2.539289e-01
1.296670e-01
0.000000e+00
1.000000e+00
8.795636e-01
7.541001e-01
6.298992e-01
5.380730e-01
3.799167e-01
2.541832e-01
1.298131e-01
0.000000e+00
1.000000e+00
8.795252e-01
7.540340e-01
6.293522e-01
5.170660e-01
3.793790e-01
2.541188e-01
1.297766e-01
0.000000e+00
1.000000e+00
8.794510e-01
7.539141e-01
6.283311e-01
4.799591e-01
3.784846e-01
2.539984e-01
1.297074e-01
0.000000e+00
1.000000e+00
8.794380e-01
7.538928e-01
6.281251e-01
4.725766e-01
3.783185e-01
2.539753e-01
1.296944e-01
0.000000e+00
1.000000e+00
8.795048e-01
7.539997e-01
6.290184e-01
5.040442e-01
3.790698e-01
2.540818e-01
1.297552e-01
0.000000e+00
1.000000e+00
8.795715e-01
7.541089e-01
6.298554e-01
5.355185e-01
3.798713e-01
2.541865e-01
1.298160e-01
0.000000e+00
1.000000e+00
8.795585e-01
7.540866e-01
6.296716e-01
5.281333e-01
3.796851e-01
2.541640e-01
1.298030e-01
0.000000e+00
1.000000e+00
8.794850e-01
7.539663e-01
6.286775e-01
4.910243e-01
3.787682e-01
2.540450e-01
1.297342e-01
0.000000e+00
1.000000e+00
8.794380e-01
7.538947e-01
6.280705e-01
4.700173e-01
3.782721e-01
2.539735e-01
1.296921e-01
0.000000e+00
1.000000e+00
8.795008e-01
7.539958e-01
6.290162e-01
5.040421e-01
3.790667e-01
2.540795e-01
1.297526e-01
0.000000e+00
1.000000e+00
8.795051e-01
7.539990e-01
6.290247e-01
5.040463e-01
3.790659e-01
2.540827e-01
1.297554e-01
0.000000e+00
1.000000e+00
8.795048e-01
7.539990e-01
6.290220e-01
5.040454e-01
3.790673e-01
2.540822e-01
1.297552e-01
0.000000e+00
1.000000e+00
8.795048e-01
7.539993e-01
6.290200e-01
5.040451e-01
3.790689e-01
2.540821e-01
1.297552e-01
0.000000e+00
1.000000e+00
8.795048e-01
7.539987e-01
6.290253e-01
5.040462e-01
3.790651e-01
2.540825e-01
1.297552e-01
0.000000e+00
1.000000e+00
8.795048e-01
7.539993e-01
6.290200e-01
5.040451e-01
3.790689e-01
2.540821e-01
1.297552e-01
0.000000e+00
1.000000e+00
8.795048e-01
7.539990e-01
6.290220e-01
5.040454e-01
3.790674e-01
2.540822e-01
1.297552e-01
0.000000e+00
1.000000e+00
8.795051e-01
7.539991e-01
6.290247e-01
5.040463e-01
3.790659e-01
2.540827e-01
1.297554e-01
0.000000e+00
1.000000e+00
8.795008e-01
7.539958e-01
6.290162e-01
5.040421e-01
3.790667e-01
2.540795e-01
1.297526e-01
0.000000e+00
1.000000e+00
8.794380e-01
7.538947e-01
6.280705e-01
4.700173e-01
3.782721e-01
2.539735e-01
1.296921e-01
0.000000e+00
1.000000e+00
8.794849e-01
7.539663e-01
6.286775e-01
4.910243e-01
3.787682e-01
2.540450e-01
1.297342e-01
0.000000e+00
1.000000e+00
8.795585e-01
7.540866e-01
6.296716e-01
5.281333e-01
3.796851e-01
2.541640e-01
1.298030e-01
0.000000e+00
1.000000e+00
8.795715e-01
7.541089e-01
6.298554e-01
5.355185e-01
3.798713e-01
2.541865e-01
1.298160e-01
0.000000e+00
1.000000e+00
8.795048e-01
7.539997e-01
6.290184e-01
5.040442e-01
3.790698e-01
2.540818e-01
1.297552e-01
0.000000e+00
1.000000e+00
8.794380e-01
7.538928e-01
6.281251e-01
4.725766e-01
3.783185e-01
2.539753e-01
1.296944e-01
0.000000e+00
1.000000e+00
8.794510e-01
7.539141e-01
6.283312e-01
4.799591e-01
3.784847e-01
2.539984e-01
1.297074e-01
0.000000e+00
1.000000e+00
8.795252e-01
7.540340e-01
6.293522e-01
5.170660e-01
3.793790e-01
2.541188e-01
1.297766e-01
0.000000e+00
1.000000e+00
8.795636e-01
7.541001e-01
6.298992e-01
5.380730e-01
3.799167e-01
2.541832e-01
1.298131e-01
0.000000e+00
1.000000e+00
8.794120e-01
7.538537e-01
6.276604e-01
4.559256e-01
3.779592e-01
2.539289e-01
1.296670e-01
0.000000e+00
1.000000e+00
8.794766e-01
7.539533e-01
6.285280e-01
4.856297e-01
3.786494e-01
2.540290e-01
1.297255e-01
0.000000e+00
1.000000e+00
8.795808e-01
7.541237e-01
6.299286e-01
5.381113e-01
3.799512e-01
2.541974e-01
1.298228e-01
0.000000e+00
1.000000e+00
8.795991e-01
7.541552e-01
6.301840e-01
5.485566e-01
3.802189e-01
2.542291e-01
1.298412e-01
0.000000e+00
1.000000e+00
8.795048e-01
7.540008e-01
6.290116e-01
5.040422e-01
3.790745e-01
2.540810e-01
1.297552e-01
0.000000e+00
1.000000e+00
8.794104e-01
7.538497e-01
6.277369e-01
4.595433e-01
3.780229e-01
2.539304e-01
1.296693e-01
0.000000e+00
1.000000e+00
8.794287e-01
7.538797e-01
6.280329e-01
4.699828e-01
3.782536e-01
2.539631e-01
1.296876e-01
0.000000e+00
1.000000e+00
8.795335e-01
7.540490e-01
6.294821e-01
5.224583e-01
3.795132e-01
2.541333e-01
1.297853e-01
0.000000e+00
1.000000e+00
8.795896e-01
7.541442e-01
6.302466e-01
5.521709e-01
3.802851e-01
2.542255e-01
1.298382e-01
0.000000e+00
1.000000e+00
8.794380e-01
7.538947e-01
6.280705e-01
4.700173e-01
3.782721e-01
2.539735e-01
1.296921e-01
0.000000e+00
1.000000e+00
8.794849e-01
7.539663e-01
6.286775e-01
4.910243e-01
3.787682e-01
2.540450e-01
1.297342e-01
0.000000e+00
1.000000e+00
8.795585e-01
7.540866e-01
6.296716e-01
5.281333e-01
3.796851e-01
2.541640e-01
1.298030e-01
0.000000e+00
1.000000e+00
8.795715e-01
7.541089e-01
6.298554e-01
5.355185e-01
3.798713e-01
2.541865e-01
1.298160e-01
0.000000e+00
1.000000e+00
8.795048e-01
7.539997e-01
6.290184e-01
5.040442e-01
3.790698e-01
2.540818e-01
1.297552e-01
0.000000e+00
1.000000e+00
8.794380e-01
7.538928e-01
6.281251e-01
4.725766e-01
3.783185e-01
2.539753e-01
1.296944e-01
0.000000e+00
1.000000e+00
8.794510e-01
7.539141e-01
6.283312e-01
4.799591e-01
3.784847e-01
2.539984e-01
1.297074e-01
0.000000e+00
1.000000e+00
8.795252e-01
7.540340e-01
6.293522e-01
5.170660e-01
3.793790e-01
2.541188e-01
1.297766e-01
0.000000e+00
1.000000e+00
8.795636e-01
7.541001e-01
6.298992e-01
5.380730e-01
3.799167e-01
2.541832e-01
1.298131e-01
0.000000e+00
1.000000e+00
8.795008e-01
7.539958e-01
6.290162e-01
5.040421e-01
3.790667e-01
2.540795e-01
1.297526e-01
0.000000e+00
1.000000e+00
8.795051e-01
7.539990e-01
6.290247e-01
5.040463e-01
3.790659e-01
2.540827e-01
1.297554e-01
0.000000e+00
1.000000e+00
8.795048e-01
7.539990e-01
6.290220e-01
5.040454e-01
3.790673e-01
2.540822e-01
1.297552e-01
0.000000e+00
1.000000e+00
8.795048e-01
7.539993e-01
6.290200e-01
5.040451e-01
3.790689e-01
2.540821e-01
1.297552e-01
0.000000e+00
1.000000e+00
8.795048e-01
7.539987e-01
6.290253e-01
5.040462e-01
3.790651e-01
2.540825e-01
1.297552e-01
0.000000e+00
1.000000e+00
8.795048e-01
7.539993e-01
6.290200e-01
5.040451e-01
3.790689e-01
2.540821e-01
1.297552e-01
0.000000e+00
1.000000e+00
8.795048e-01
7.539990e-01
6.290220e-01
5.040454e-01
3.790674e-01
2.540822e-01
1.297552e-01
0.000000e+00
1.000000e+00
8.795051e-01
7.539991e-01
6.290247e-01
5.040463e-01
3.790659e-01
2.540827e-01
1.297554e-01
0.000000e+00
1.000000e+00
8.795008e-01
7.539958e-01
6.290162e-01
5.040421e-01
3.790667e-01
2.540795e-01
1.297526e-01
0.000000e+00
1.000000e+00
8.795636e-01
7.541001e-01
6.298992e-01
5.380730e-01
3.799167e-01
2.541832e-01
1.298131e-01
0.000000e+00
1.000000e+00
8.795252e-01
7.540340e-01
6.293522e-01
5.170660e-01
3.793790e-01
2.541188e-01
1.297766e-01
0.000000e+00
1.000000e+00
8.794510e-01
7.539141e-01
6.283311e-01
4.799591e-01
3.784846e-01
2.539984e-01
1.297074e-01
0.000000e+00
1.000000e+00
8.794380e-01
7.538928e-01
6.281251e-01
4.725766e-01
3.783185e-01
2.539753e-01
1.296944e-01
0.000000e+00
1.000000e+00
8.795048e-01
7.539997e-01
6.290184e-01
5.040442e-01
3.790698e-01
2.540818e-01
1.297552e-01
0.000000e+00
1.000000e+00
8.795715e-01
7.541089e-01
6.298554e-01
5.355185e-01
3.798713e-01
2.541865e-01
1.298160e-01
0.000000e+00
1.000000e+00
8.795585e-01
7.540866e-01
6.296716e-01
5.281333e-01
3.796851e-01
2.541640e-01
1.298030e-01
0.000000e+00
1.000000e+00
8.794850e-01
7.539663e-01
6.286775e-01
4.910243e-01
3.787682e-01
2.540450e-01
1.297342e-01
0.000000e+00
1.000000e+00
8.794380e-01
7.538947e-01
6.280705e-01
4.700173e-01
3.782721e-01
2.539735e-01
1.296921e-01
0.000000e+00
1.000000e+00
8.795896e-01
7.541442e-01
6.302466e-01
5.521709e-01
3.802851e-01
2.542255e-01
1.298382e-01
0.000000e+00
1.000000e+00
8.795335e-01
7.540490e-01
6.294821e-01
5.224583e-01
3.795132e-01
2.541333e-01
1.297853e-01
0.000000e+00
1.000000e+00
8.794287e-01
7.538797e-01
6.280329e-01
4.699827e-01
3.782536e-01
2.539631e-01
1.296876e-01
0.000000e+00
1.000000e+00
8.794104e-01
7.538497e-01
6.277369e-01
4.595433e-01
3.780229e-01
2.539304e-01
1.296693e-01
0.000000e+00
1.000000e+00
8.795048e-01
7.540008e-01
6.290116e-01
5.040422e-01
3.790745e-01
2.540810e-01
1.297552e-01
0.000000e+00
1.000000e+00
8.795991e-01
7.541552e-01
6.301840e-01
5.485566e-01
3.802189e-01
2.542291e-01
1.298412e-01
0.000000e+00
1.000000e+00
8.795808e-01
7.541237e-01
6.299286e-01
5.381113e-01
3.799512e-01
2.541974e-01
1.298228e-01
0.000000e+00
1.000000e+00
8.794766e-01
7.539533e-01
6.285280e-01
4.856297e-01
3.786494e-01
2.540290e-01
1.297255e-01
0.000000e+00
1.000000e+00
8.794120e-01
7.538537e-01
6.276604e-01
4.559256e-01
3.779592e-01
2.539289e-01
1.296670e-01
0.000000e+00
        </DataArray>
        <DataArray type="Float32" Name="velocity" NumberOfComponents="3" format="ascii">
0.000000e+00 0.000000e+00 0.000000e+00
7.622316e-01 0.000000e+00 4.164054e-01
1.796222e+00 0.000000e+00 9.812722e-01
2.990174e+00 0.000000e+00 1.633525e+00
3.495051e+00 0.000000e+00 1.909338e+00
2.849922e+00 0.000000e+00 1.556906e+00
1.712068e+00 0.000000e+00 9.352988e-01
7.387488e-01 0.000000e+00 4.035768e-01
0.000000e+00 0.000000e+00 0.000000e+00
-1.886847e-01 0.000000e+00 4.793547e-01
-1.813581e-02 0.000000e+00 8.122481e-01
1.800265e-01 0.000000e+00 1.460742e+00
6.253050e-01 0.000000e+00 1.774103e+00
1.261249e+00 0.000000e+00 8.209602e-01
1.399971e+00 0.000000e+00 -3.050584e-01
1.005615e+00 0.000000e+00 -6.433396e-01
5.925806e-01 0.000000e+00 -6.935562e-01
2.947127e-01 0.000000e+00 -7.487195e-01
-9.081988e-02 0.000000e+00 3.556849e-01
-8.596663e-01 0.000000e+00 3.553130e-01
-1.840194e+00 0.000000e+00 5.308589e-01
-2.820399e+00 0.000000e+00 4.022059e-01
-2.991070e+00 0.000000e+00 -5.306866e-01
-2.245318e+00 0.000000e+00 -1.204267e+00
-1.281962e+00 0.000000e+00 -1.077400e+00
-4.842075e-01 0.000000e+00 -7.836897e-01
1.465004e-01 0.000000e+00 -5.737510e-01
3.512915e-02 0.000000e+00 -2.795762e-01
-8.715485e-01 0.000000e+00 -5.016621e-01
-2.000460e+00 0.000000e+00 -8.606646e-01
-3.272208e+00 0.000000e+00 -1.057273e+00
-3.855235e+00 0.000000e+00 -6.211232e-01
-3.205749e+00 0.000000e+00 -4.102876e-02
-1.976753e+00 0.000000e+00 2.076863e-01
-8.919703e-01 0.000000e+00 3.138256e-01
-5.028547e-02 0.000000e+00 4.001982e-01
-2.385722e-06 0.000000e+00 -6.494933e-01
-1.766982e-04 0.000000e+00 -9.239296e-01
-1.078564e-06 0.000000e+00 -1.504193e+00
3.323434e-04 0.000000e+00 -1.623648e+00
1.621387e-05 0.000000e+00 -3.431360e-01
-2.235086e-04 0.000000e+00 9.106690e-01
9.814513e-05 0.000000e+00 1.126351e+00
2.017435e-04 0.000000e+00 1.026887e+00
3.562075e-06 0.000000e+00 9.697457e-01
-3.509310e-02 0.000000e+00 -2.792728e-01
8.709953e-01 0.000000e+00 -5.012674e-01
1.998680e+00 0.000000e+00 -8.597881e-01
3.270203e+00 0.000000e+00 -1.057045e+00
3.856091e+00 0.000000e+00 -6.220178e-01
3.209110e+00 0.000000e+00 -4.157741e-02
1.979446e+00 0.000000e+00 2.074990e-01
8.930618e-01 0.000000e+00 3.135520e-01
5.026032e-02 0.000000e+00 3.999743e-01
9.094672e-02 0.000000e+00 3.561708e-01
8.592485e-01 0.000000e+00 3.558781e-01
1.838953e+00 0.000000e+00 5.310279e-01
2.819508e+00 0.000000e+00 4.030406e-01
2.991873e+00 0.000000e+00 -5.295355e-01
2.247068e+00 0.000000e+00 -1.204756e+00
1.283394e+00 0.000000e+00 -1.078656e+00
4.848144e-01 0.000000e+00 -7.846370e-01
-1.466921e-01 0.000000e+00 -5.744840e-01
1.889004e-01 0.000000e+00 4.798922e-01
1.775206e-02 0.000000e+00 8.129406e-01
-1.804615e-01 0.000000e+00 1.461723e+00
-6.256243e-01 0.000000e+00 1.774533e+00
-1.261872e+00 0.000000e+00 8.208253e-01
-1.400376e+00 0.000000e+00 -3.048768e-01
-1.005534e+00 0.000000e+00 -6.434377e-01
-5.925426e-01 0.000000e+00 -6.941884e-01
-2.949852e-01 0.000000e+00 -7.493956e-01
0.000000e+00 0.000000e+00 -0.000000e+00
-7.633834e-01 0.000000e+00 4.170419e-01
-1.799097e+00 0.000000e+00 9.828596e-01
-2.993595e+00 0.000000e+00 1.635423e+00
-3.495695e+00 0.000000e+00 1.909723e+00
-2.848138e+00 0.000000e+00 1.555959e+00
-1.710798e+00 0.000000e+00 9.346213e-01
-7.384840e-01 0.000000e+00 4.034392e-01
0.000000e+00 0.000000e+00 -0.000000e+00
2.100190e-02 -1.671392e-01 0.000000e+00
5.709796e-01 -2.204121e-01 2.944789e-01
1.331674e+00 -4.083857e-01 6.939993e-01
2.182210e+00 -4.051622e-01 1.155240e+00
2.467974e+00 1.804682e-01 1.350021e+00
1.947299e+00 6.600142e-01 1.100458e+00
1.142768e+00 6.108909e-01 6.610281e-01
4.698700e-01 4.483304e-01 2.852217e-01
-4.368923e-02 3.476916e-01 0.000000e+00
-1.316229e-01 -2.239655e-02 3.388735e-01
-6.501053e-03 -4.945187e-02 5.743574e-01
1.462340e-01 -1.395432e-01 1.032954e+00
4.653129e-01 -1.540464e-01 1.254661e+00
8.895973e-01 7.359795e-02 5.804081e-01
9.651276e-01 2.566963e-01 -2.158393e-01
6.880814e-01 2.237582e-01 -4.550227e-01
4.033684e-01 1.487355e-01 -4.904412e-01
1.968653e-01 1.044736e-01 -5.293259e-01
-9.811678e-02 2.659142e-01 2.514254e-01
-6.486673e-01 2.886805e-01 2.512426e-01
-1.358560e+00 3.793058e-01 3.754336e-01
-2.047750e+00 3.043993e-01 2.845287e-01
-2.111881e+00 -1.571417e-01 -3.752151e-01
-1.534254e+00 -5.279559e-01 -8.516660e-01
-8.468474e-01 -5.342723e-01 -7.619353e-01
-2.896770e-01 -4.422661e-01 -5.541234e-01
1.511558e-01 -3.722744e-01 -4.055927e-01
-1.259148e-02 2.994761e-01 -1.977206e-01
-6.624927e-01 3.313742e-01 -3.547205e-01
-1.482994e+00 4.612657e-01 -6.085036e-01
-2.379205e+00 3.804134e-01 -7.475453e-01
-2.720508e+00 -2.149216e-01 -4.392408e-01
-2.198604e+00 -6.887360e-01 -2.905824e-02
-1.324020e+00 -6.780589e-01 1.468407e-01
-5.674858e-01 -5.440523e-01 2.218856e-01
2.025308e-02 -4.463509e-01 2.829544e-01
-2.561188e-05 1.902976e-04 -4.592000e-01
1.253002e-04 3.183951e-04 -6.533086e-01
4.773648e-04 3.580429e-04 -1.063581e+00
7.152235e-04 -2.121479e-04 -1.148127e+00
1.729397e-04 -7.165527e-04 -2.426027e-01
-4.034085e-04 -3.684911e-04 6.439356e-01
-3.200507e-04 1.465435e-04 7.964466e-01
-1.068180e-04 3.114564e-04 7.260847e-01
-3.741713e-05 3.179770e-04 6.856425e-01
1.258259e-02 -2.990931e-01 -1.973990e-01
6.625894e-01 -3.307299e-01 -3.544010e-01
1.482845e+00 -4.604894e-01 -6.079958e-01
2.379081e+00 -3.811595e-01 -7.474877e-01
2.721301e+00 2.130958e-01 -4.398008e-01
2.199912e+00 6.882553e-01 -2.935196e-02
1.324809e+00 6.787597e-01 1.467488e-01
5.676945e-01 5.448292e-01 2.216839e-01
-2.036526e-02 4.470323e-01 2.827279e-01
9.821209e-02 -2.655627e-01 2.519596e-01
6.488373e-01 -2.880789e-01 2.516873e-01
1.358674e+00 -3.785844e-01 3.754746e-01
2.048186e+00 -3.049939e-01 2.849243e-01
2.112605e+00 1.555295e-01 -3.744830e-01
1.534648e+00 5.273973e-01 -8.518168e-01
8.468953e-01 5.347914e-01 -7.626531e-01
2.895634e-01 4.429323e-01 -5.548109e-01
-1.514059e-01 3.728806e-01 -4.062562e-01
1.318149e-01 2.270107e-02 3.394468e-01
6.588307e-03 4.995802e-02 5.748996e-01
-1.458656e-01 1.401563e-01 1.033477e+00
-4.648487e-01 1.535839e-01 1.254797e+00
-8.899735e-01 -7.500501e-02 5.804127e-01
-9.661313e-01 -2.573595e-01 -2.154616e-01
-6.888887e-01 -2.234757e-01 -4.548920e-01
-4.038584e-01 -1.482318e-01 -4.908661e-01
-1.971850e-01 -1.039732e-01 -5.299620e-01
-2.103256e-02 1.673832e-01 -0.000000e+00
-5.717268e-01 2.207927e-01 2.948632e-01
-1.333267e+00 4.089277e-01 6.948383e-01
-2.184041e+00 4.043494e-01 1.156307e+00
-2.468767e+00 -1.822912e-01 1.350598e+00
-1.947381e+00 -6.605331e-01 1.100557e+00
-1.143091e+00 -6.103405e-01 6.611773e-01
-4.702729e-01 -4.477685e-01 2.854068e-01
4.362250e-02 -3.471605e-01 -0.000000e+00
5.898920e-02 -2.310204e-01 0.000000e+00
1.014409e-01 -3.975587e-01 -3.838023e-05
1.999647e-01 -7.831699e-01 -6.029472e-06
2.356774e-01 -9.234075e-01 -5.674079e-05
4.411879e-02 -1.751220e-01 -3.161097e-04
-1.452505e-01 5.648369e-01 -5.419911e-04
-1.629723e-01 6.346556e-01 -4.859636e-04
-1.354996e-01 5.287153e-01 -2.627793e-04
-1.225059e-01 4.797719e-01 0.000000e+00
2.179461e-03 -8.140118e-03 -2.484847e-04
1.729300e-02 -6.634228e-02 -1.284374e-04
5.561525e-02 -2.149493e-01 2.425043e-05
7.428844e-02 -2.884247e-01 1.492824e-04
1.288835e-02 -5.105124e-02 -4.271030e-05
-4.790048e-02 1.843384e-01 -2.885518e-04
-4.834937e-02 1.862483e-01 -2.072917e-04
-3.434826e-02 1.327956e-01 6.470081e-05
-2.768714e-02 1.079691e-01 2.907330e-04
-9.648822e-02 3.780938e-01 -2.085684e-04
-1.279786e-01 5.030064e-01 -8.404224e-05
-1.900149e-01 7.475034e-01 1.252796e-04
-1.942982e-01 7.642753e-01 4.587082e-05
-3.772391e-02 1.483254e-01 -1.482532e-04
1.157722e-01 -4.554051e-01 -1.286095e-04
1.481140e-01 -5.822069e-01 3.803819e-05
1.407249e-01 -5.522879e-01 1.668883e-04
1.358492e-01 -5.322863e-01 2.495540e-04
-1.044247e-01 4.089965e-01 -7.094676e-05
-1.434081e-01 5.634125e-01 -1.681953e-05
-2.238638e-01 8.801023e-01 -2.314334e-05
-2.352218e-01 9.243385e-01 7.398310e-05
-4.423445e-02 1.738622e-01 8.740408e-05
1.426606e-01 -5.604629e-01 -1.695736e-05
1.773257e-01 -6.962196e-01 -3.628213e-05
1.640523e-01 -6.432459e-01 -4.186249e-07
1.559209e-01 -6.106529e-01 3.379533e-05
-8.310117e-08 3.272797e-07 1.231957e-04
4.910723e-04 1.257400e-04 9.805274e-05
1.007506e-03 2.563279e-04 5.155642e-05
1.005215e-03 2.561467e-04 -2.311904e-08
1.422369e-04 3.532519e-05 -2.012790e-05
-6.515200e-04 -1.668884e-04 -3.405401e-05
-6.752290e-04 -1.721586e-04 -1.759231e-05
-3.273116e-04 -8.230645e-05 -5.390362e-05
-4.687777e-07 1.834155e-06 -1.163609e-04
1.044656e-01 -4.089843e-01 2.682301e-04
1.442870e-01 -5.631889e-01 2.300927e-04
2.254943e-01 -8.796887e-01 1.229949e-04
2.367510e-01 -9.239495e-01 -2.954915e-05
4.449247e-02 -1.737989e-01 -1.271817e-04
-1.435180e-01 5.602431e-01 -4.480804e-05
-1.782529e-01 6.959839e-01 -2.638738e-05
-1.645230e-01 6.431289e-01 -1.279124e-04
-1.559499e-01 6.106501e-01 -1.953628e-04
9.663264e-02 -3.780562e-01 3.757923e-04
1.288551e-01 -5.027842e-01 2.439204e-04
1.916113e-01 -7.471005e-01 4.401826e-05
1.958575e-01 -7.638806e-01 1.246030e-05
3.794744e-02 -1.482701e-01 1.740810e-04
-1.168444e-01 4.551309e-01 6.500175e-05
-1.492807e-01 5.819107e-01 -1.379924e-04
-1.413691e-01 5.521276e-01 -2.597928e-04
-1.359979e-01 5.322540e-01 -3.458539e-04
-1.946611e-03 8.198304e-03 3.612444e-04
-1.663224e-02 6.650938e-02 2.640656e-04
-5.434136e-02 2.152708e-01 9.182501e-05
-7.320334e-02 2.886980e-01 -1.069512e-05
-1.335289e-02 5.093095e-02 9.734080e-05
4.620262e-02 -1.847725e-01 2.820535e-04
4.678874e-02 -1.866444e-01 1.484273e-04
3.349027e-02 -1.330105e-01 -1.552727e-04
2.745832e-02 -1.080231e-01 -3.064923e-04
-5.898901e-02 2.310197e-01 -0.000000e+00
-1.016717e-01 3.974972e-01 9.209622e-05
-2.001162e-01 7.831298e-01 7.955289e-05
-2.360855e-01 9.233014e-01 1.735777e-04
-4.546503e-02 1.747752e-01 4.433544e-04
1.432361e-01 -5.653516e-01 5.938185e-04
1.612456e-01 -6.350938e-01 4.872332e-04
1.346004e-01 -5.289416e-01 2.437755e-04
1.225051e-01 -4.797690e-01 -0.000000e+00
6.178507e-02 -1.569637e-01 0.000000e+00
-3.957830e-01 -4.678220e-01 -2.947983e-01
-9.738550e-01 -9.980065e-01 -6.947388e-01
-1.722631e+00 -1.401961e+00 -1.156196e+00
-2.253827e+00 -1.023502e+00 -1.350494e+00
-2.025543e+00 -3.538063e-01 -1.100447e+00
-1.295657e+00 -1.232551e-02 -6.610929e-01
-6.273023e-01 1.674742e-01 -2.853687e-01
-1.281213e-01 3.254896e-01 0.000000e+00
1.265160e-01 4.325132e-02 -3.393250e-01
2.974108e-02 -4.063684e-02 -5.747589e-01
-6.072783e-02 -1.929569e-01 -1.033353e+00
-3.342037e-01 -3.576126e-01 -1.254706e+00
-8.168498e-01 -3.608146e-01 -5.803111e-01
-9.711667e-01 -2.372473e-01 2.155106e-01
-7.116016e-01 -1.340709e-01 4.548555e-01
-4.253830e-01 -6.352226e-02 4.907495e-01
-2.228453e-01 -3.286790e-03 5.298558e-01
-4.117845e-02 2.801288e-01 -2.517707e-01
4.312737e-01 5.638756e-01 -2.515185e-01
1.010856e+00 9.836160e-01 -3.753542e-01
1.651250e+00 1.249571e+00 -2.848568e-01
1.928571e+00 8.763315e-01 3.744744e-01
1.599638e+00 2.728873e-01 8.517462e-01
9.996236e-01 -6.329933e-02 7.625562e-01
4.664780e-01 -2.498336e-01 5.546419e-01
4.590890e-02 -3.997289e-01 4.060936e-01
-1.323623e-01 2.684759e-01 1.976007e-01
4.228946e-01 6.079242e-01 3.546033e-01
1.080551e+00 1.115021e+00 6.080951e-01
1.905092e+00 1.475022e+00 7.474827e-01
2.490272e+00 1.117613e+00 4.397291e-01
2.260509e+00 4.506559e-01 2.924922e-02
1.488017e+00 3.941766e-02 -1.468390e-01
7.593592e-01 -2.059323e-01 -2.217896e-01
1.964150e-01 -4.019532e-01 -2.828561e-01
7.148249e-05 -1.769924e-04 4.594196e-01
2.678410e-04 -2.165149e-04 6.535383e-01
5.969755e-04 -8.500698e-05 1.063662e+00
5.334753e-04 5.315846e-04 1.148087e+00
-1.936762e-04 7.103251e-04 2.425462e-01
-5.378739e-04 1.252288e-04 -6.440020e-01
-2.163846e-04 -2.846967e-04 -7.965102e-01
4.814053e-05 -3.252629e-04 -7.261501e-01
1.137104e-04 -2.957560e-04 -6.857378e-01
1.325404e-01 -2.688140e-01 1.979223e-01
-4.224948e-01 -6.084424e-01 3.549326e-01
-1.080302e+00 -1.115774e+00 6.086250e-01
-1.905546e+00 -1.474425e+00 7.475741e-01
-2.490448e+00 -1.115634e+00 4.392090e-01
-2.259596e+00 -4.496080e-01 2.898924e-02
-1.486993e+00 -3.965627e-02 -1.469101e-01
-7.588113e-01 2.053519e-01 -2.219819e-01
-1.961937e-01 4.013073e-01 -2.830829e-01
4.142781e-02 -2.803928e-01 -2.512330e-01
-4.308377e-01 -5.643252e-01 -2.510630e-01
-1.010415e+00 -9.842028e-01 -3.752914e-01
-1.651154e+00 -1.248847e+00 -2.844282e-01
-1.928707e+00 -8.745720e-01 3.752378e-01
-1.599551e+00 -2.722048e-01 8.516180e-01
-9.993248e-01 6.287163e-02 7.618493e-01
-4.662559e-01 2.492012e-01 5.539582e-01
-4.583530e-02 3.990868e-01 4.054283e-01
-1.262049e-01 -4.342914e-02 -3.387476e-01
-2.942824e-02 4.022984e-02 -5.742142e-01
6.133046e-02 1.925837e-01 -1.032829e+00
3.343717e-01 3.582293e-01 -1.254573e+00
8.158340e-01 3.618620e-01 -5.803155e-01
9.699663e-01 2.373462e-01 2.158732e-01
7.110288e-01 1.334400e-01 4.549731e-01
4.251956e-01 6.285138e-02 4.903178e-01
2.228097e-01 2.702228e-03 5.292163e-01
-6.169421e-02 1.567328e-01 -0.000000e+00
3.953040e-01 4.671244e-01 -2.944204e-01
9.727043e-01 9.967605e-01 -6.939166e-01
1.720617e+00 1.401786e+00 -1.155157e+00
2.252235e+00 1.024706e+00 -1.349949e+00
2.025200e+00 3.542156e-01 -1.100374e+00
1.295621e+00 1.168605e-02 -6.609584e-01
6.272108e-01 -1.681593e-01 -2.851900e-01
1.283159e-01 -3.259838e-01 -0.000000e+00
1.367324e-09 -2.502870e-09 0.000000e+00
-6.698240e-01 -3.659265e-01 -4.169674e-01
-1.578690e+00 -8.624421e-01 -9.827389e-01
-2.627015e+00 -1.435145e+00 -1.635325e+00
-3.067701e+00 -1.675892e+00 -1.909653e+00
-2.499265e+00 -1.365355e+00 -1.555800e+00
-1.501128e+00 -8.200700e-01 -9.344566e-01
-6.479409e-01 -3.539718e-01 -4.033451e-01
4.208878e-09 -7.704299e-09 0.000000e+00
1.657266e-01 9.053688e-02 -4.797606e-01
1.562142e-02 8.534022e-03 -8.127942e-01
-1.583285e-01 -8.649527e-02 -1.461589e+00
-5.489457e-01 -2.998904e-01 -1.774492e+00
-1.107318e+00 -6.049307e-01 -8.206808e-01
-1.228887e+00 -6.713439e-01 3.049782e-01
-8.822991e-01 -4.820022e-01 6.434198e-01
-5.198587e-01 -2.840001e-01 6.940433e-01
-2.587999e-01 -1.413831e-01 7.491978e-01
7.976321e-02 4.357484e-02 -3.559583e-01
7.540329e-01 4.119300e-01 -3.556968e-01
1.613839e+00 8.816443e-01 -5.309508e-01
2.474318e+00 1.351726e+00 -4.029540e-01
2.625588e+00 1.434365e+00 5.295017e-01
1.971883e+00 1.077245e+00 1.204684e+00
1.126174e+00 6.152319e-01 1.078565e+00
4.254343e-01 2.324158e-01 7.843928e-01
-1.286789e-01 -7.029758e-02 5.742536e-01
-3.081793e-02 -1.683591e-02 2.794783e-01
7.643682e-01 4.175762e-01 5.014613e-01
1.754009e+00 9.582193e-01 8.598940e-01
2.869831e+00 1.567796e+00 1.057000e+00
3.383877e+00 1.848621e+00 6.219251e-01
2.816121e+00 1.538454e+00 4.144470e-02
1.736968e+00 9.489099e-01 -2.076103e-01
7.835915e-01 4.280780e-01 -3.136326e-01
4.411542e-02 2.410036e-02 -4.000692e-01
2.094141e-06 1.144388e-06 6.496863e-01
-1.485260e-04 -8.113764e-05 9.241928e-01
6.282414e-06 3.435596e-06 1.504252e+00
2.997190e-04 1.637417e-04 1.623569e+00
1.327463e-05 7.262136e-06 3.430632e-01
-2.044923e-04 -1.117113e-04 -9.107337e-01
7.528706e-05 4.112563e-05 -1.126443e+00
1.670250e-04 9.124287e-05 -1.026910e+00
-3.126112e-06 -1.707249e-06 -9.697037e-01
3.085336e-02 1.685526e-02 2.797830e-01
-7.648455e-01 -4.178370e-01 5.018705e-01
-1.755565e+00 -9.590695e-01 8.608005e-01
-2.871577e+00 -1.568749e+00 1.057277e+00
-3.383126e+00 -1.848210e+00 6.210884e-01
-2.813178e+00 -1.536846e+00 4.094152e-02
-1.734607e+00 -9.476200e-01 -2.077688e-01
-7.826430e-01 -4.275598e-01 -3.138921e-01
-4.414277e-02 -2.411530e-02 -4.002934e-01
-7.965602e-02 -4.351628e-02 -3.554691e-01
-7.544027e-01 -4.121321e-01 -3.551174e-01
-1.614940e+00 -8.822457e-01 -5.307496e-01
-2.475106e+00 -1.352157e+00 -4.020730e-01
-2.624882e+00 -1.433979e+00 5.306968e-01
-1.970334e+00 -1.076398e+00 1.204229e+00
-1.124908e+00 -6.145399e-01 1.077324e+00
-4.248975e-01 -2.321225e-01 7.834510e-01
1.285184e-01 7.020991e-02 5.735199e-01
-1.655422e-01 -9.043613e-02 -4.792164e-01
-1.596887e-02 -8.723839e-03 -8.120978e-01
1.579242e-01 8.627440e-02 -1.460609e+00
5.486398e-01 2.997233e-01 -1.774064e+00
1.106759e+00 6.046250e-01 -8.208258e-01
1.228528e+00 6.711479e-01 3.051357e-01
8.823691e-01 4.820404e-01 6.433030e-01
5.198971e-01 2.840211e-01 6.934023e-01
2.585705e-01 1.412577e-01 7.485173e-01
2.129679e-09 -3.898350e-09 -0.000000e+00
6.688052e-01 3.653699e-01 -4.163405e-01
1.576150e+00 8.610548e-01 -9.811753e-01
2.623990e+00 1.433493e+00 -1.633470e+00
3.067099e+00 1.675564e+00 -1.909311e+00
2.500796e+00 1.366191e+00 -1.556780e+00
1.502229e+00 8.206712e-01 -9.351580e-01
6.481675e-01 3.540955e-01 -4.034932e-01
3.594877e-09 -6.580379e-09 -0.000000e+00
-9.869775e-02 1.367982e-01 0.000000e+00
-6.075011e-01 -8.027460e-02 -2.947983e-01
-1.365970e+00 -2.802456e-01 -6.947388e-01
-2.110451e+00 -6.920611e-01 -1.156196e+00
-2.078995e+00 -1.343530e+00 -1.350494e+00
-1.392123e+00 -1.513273e+00 -1.100447e+00
-7.104179e-01 -1.083598e+00 -6.610929e-01
-1.980082e-01 -6.183434e-01 -2.853687e-01
2.046658e-01 -2.836732e-01 0.000000e+00
1.047516e-01 8.309078e-02 -3.393250e-01
-1.812555e-02 4.698243e-02 -5.747589e-01
-1.951790e-01 5.315436e-02 -1.033353e+00
-4.814917e-01 -8.800378e-02 -1.254706e+00
-7.449609e-01 -4.924065e-01 -5.803111e-01
-7.243603e-01 -6.890234e-01 2.155106e-01
-4.972968e-01 -5.263533e-01 4.548555e-01
-2.832876e-01 -3.236263e-01 4.907495e-01
-1.231695e-01 -1.857420e-01 5.298558e-01
2.134714e-01 -1.860047e-01 -2.517707e-01
7.075031e-01 5.824101e-02 -2.515185e-01
1.373852e+00 3.191556e-01 -3.753542e-01
1.943652e+00 7.143326e-01 -2.848568e-01
1.779419e+00 1.149353e+00 3.744744e-01
1.093915e+00 1.198607e+00 8.517462e-01
4.868344e-01 8.753550e-01 7.625562e-01
4.181141e-02 5.275134e-01 5.546419e-01
-3.115556e-01 2.546054e-01 4.060936e-01
1.543990e-01 -2.564372e-01 1.976007e-01
7.400415e-01 2.739064e-02 3.546032e-01
1.522082e+00 3.068040e-01 6.080951e-01
2.270513e+00 8.061218e-01 7.474827e-01
2.285939e+00 1.491642e+00 4.397291e-01
1.600572e+00 1.658663e+00 2.924922e-02
8.371476e-01 1.230825e+00 -1.468390e-01
2.369974e-01 7.502444e-01 -2.217896e-01
-2.321085e-01 3.824538e-01 -2.828561e-01
-1.103123e-04 1.557805e-04 4.594196e-01
-3.747863e-05 3.423662e-04 6.535383e-01
2.510151e-04 5.482727e-04 1.063662e+00
7.355479e-04 1.616931e-04 1.148087e+00
4.930651e-04 -5.467533e-04 2.425462e-01
-1.852400e-04 -5.202617e-04 -6.440020e-01
-3.564718e-04 -2.826062e-05 -7.965102e-01
-2.476865e-04 2.162469e-04 -7.261501e-01
-1.874332e-04 2.554833e-04 -6.857378e-01
-1.545873e-01 2.567698e-01 1.979223e-01
-7.402616e-01 -2.677425e-02 3.549326e-01
-1.522581e+00 -3.061877e-01 6.086250e-01
-2.270256e+00 -8.068267e-01 7.475741e-01
-2.284368e+00 -1.492860e+00 4.392090e-01
-1.599197e+00 -1.658460e+00 2.898924e-02
-8.367951e-01 -1.229835e+00 -1.469101e-01
-2.371898e-01 -7.494698e-01 -2.219819e-01
2.316846e-01 -3.819186e-01 -2.830829e-01
-2.135589e-01 1.863572e-01 -2.512330e-01
-7.076459e-01 -5.763117e-02 -2.510630e-01
-1.374108e+00 -3.184678e-01 -3.752914e-01
-1.942990e+00 -7.146434e-01 -2.844282e-01
-1.778012e+00 -1.150418e+00 3.752378e-01
-1.093294e+00 -1.198903e+00 8.516180e-01
-4.870328e-01 -8.748726e-01 7.618493e-01
-4.222358e-02 -5.269848e-01 5.539581e-01
3.110550e-01 -2.541966e-01 4.054283e-01
-1.047331e-01 -8.273289e-02 -3.387476e-01
1.795210e-02 -4.649928e-02 -5.742142e-01
1.951906e-01 -5.244562e-02 -1.032829e+00
4.821013e-01 8.781195e-02 -1.254573e+00
7.452934e-01 4.909858e-01 -5.803155e-01
7.237949e-01 6.879598e-01 2.158732e-01
4.964564e-01 5.262121e-01 4.549731e-01
2.826218e-01 3.238310e-01 4.903178e-01
1.226584e-01 1.860278e-01 5.292163e-01
9.855262e-02 -1.365970e-01 -0.000000e+00
6.066553e-01 8.024846e-02 -2.944204e-01
1.364299e+00 2.799504e-01 -6.939166e-01
2.109216e+00 6.904612e-01 -1.155157e+00
2.079148e+00 1.341539e+00 -1.349949e+00
1.392282e+00 1.512763e+00 -1.100374e+00
7.098606e-01 1.083914e+00 -6.609584e-01
1.973823e-01 6.186365e-01 -2.851900e-01
-2.049765e-01 2.841039e-01 -0.000000e+00
-1.625250e-01 1.744586e-01 0.000000e+00
-2.797254e-01 3.001615e-01 -3.838262e-05
-5.509734e-01 5.914130e-01 -6.035984e-06
-6.496836e-01 6.972349e-01 -5.674628e-05
-1.235226e-01 1.317435e-01 -3.161069e-04
3.968147e-01 -4.274067e-01 -5.419855e-04
4.459900e-01 -4.800424e-01 -4.859608e-04
3.716878e-01 -3.996851e-01 -2.627796e-04
3.375239e-01 -3.623070e-01 0.000000e+00
-5.672106e-03 6.232079e-03 -2.484864e-04
-4.648166e-02 5.039644e-02 -1.284424e-04
-1.508246e-01 1.629362e-01 2.424453e-05