<?xml version="1.0"?>
<VTKFile type="StructuredGrid" version="0.1">
  <StructuredGrid WholeExtent="0 8 0 8 0 8">
    <Piece Extent="0 8 0 8 0 8">
      <PointData Scalars="temperature" Vectors="velocity">
        <DataArray type="Float32" Name="temperature" format="ascii">
1.000000e+00
8.885685e-01
7.625150e-01
6.405616e-01
5.567709e-01
3.906827e-01
2.627747e-01
1.392763e-01
0.000000e+00
1.000000e+00
8.884032e-01
7.622013e-01
6.383760e-01
5.292030e-01
3.884732e-01
2.624730e-01
1.391174e-01
0.000000e+00
1.000000e+00
8.880951e-01
7.616400e-01
6.342354e-01
4.804748e-01
3.848634e-01
2.619231e-01
1.388237e-01
0.000000e+00
1.000000e+00
8.880415e-01
7.615392e-01
6.333904e-01
4.707798e-01
3.842021e-01
2.618183e-01
1.387687e-01
0.000000e+00
1.000000e+00
8.883192e-01
7.620403e-01
6.370337e-01
5.121271e-01
3.872186e-01
2.623030e-01
1.390271e-01
0.000000e+00
1.000000e+00
8.885971e-01
7.625467e-01
6.403891e-01
5.535192e-01
3.904992e-01
2.627842e-01
1.392855e-01
0.000000e+00
1.000000e+00
8.885434e-01
7.624435e-01
6.396585e-01
5.438071e-01
3.897326e-01
2.626806e-01
1.392305e-01
0.000000e+00
1.000000e+00
8.882370e-01
7.618811e-01
6.356549e-01
4.950612e-01
3.860021e-01
2.621339e-01
1.389381e-01
0.000000e+00
1.000000e+00
8.880475e-01
7.615504e-01
6.331792e-01
4.675175e-01
3.840239e-01
2.618124e-01
1.387626e-01
0.000000e+00
1.000000e+00
8.884922e-01
7.623710e-01
6.395687e-01
5.436912e-01
3.896288e-01
2.626356e-01
1.392010e-01
0.000000e+00
1.000000e+00
8.883788e-01
7.621525e-01
6.380055e-01
5.242065e-01
3.880896e-01
2.624247e-01
1.390911e-01
0.000000e+00
1.000000e+00
8.881607e-01
7.617554e-01
6.350880e-01
4.897472e-01
3.855266e-01
2.620357e-01
1.388832e-01
0.000000e+00
1.000000e+00
8.881228e-01
7.616841e-01
6.344996e-01
4.828897e-01
3.850502e-01
2.619616e-01
1.388444e-01
0.000000e+00
1.000000e+00
8.883193e-01
7.620385e-01
6.370534e-01
5.121329e-01
3.872052e-01
2.623043e-01
1.390271e-01
0.000000e+00
1.000000e+00
8.885157e-01
7.623964e-01
6.394485e-01
5.413954e-01
3.895029e-01
2.626446e-01
1.392098e-01
0.000000e+00
1.000000e+00
8.884777e-01
7.623235e-01
6.389228e-01
5.345301e-01
3.889696e-01
2.625713e-01
1.391709e-01
0.000000e+00
1.000000e+00
8.882614e-01
7.619261e-01
6.360814e-01
5.000646e-01
3.863423e-01
2.621849e-01
1.389644e-01
0.000000e+00
1.000000e+00
8.881237e-01
7.616890e-01
6.343485e-01
4.805793e-01
3.849204e-01
2.619552e-01
1.388379e-01
0.000000e+00
1.000000e+00
8.883079e-01
7.620272e-01
6.370468e-01
5.121264e-01
3.871958e-01
2.622973e-01
1.390194e-01
0.000000e+00
1.000000e+00
8.883201e-01
7.620375e-01
6.370714e-01
5.121389e-01
3.871942e-01
2.623062e-01
1.390277e-01
0.000000e+00
1.000000e+00
8.883192e-01
7.620371e-01
6.370638e-01
5.121364e-01
3.871982e-01
2.623052e-01
1.390271e-01
0.000000e+00
1.000000e+00
8.883192e-01
7.620376e-01
6.370584e-01
5.121356e-01
3.872025e-01
2.623050e-01
1.390271e-01
0.000000e+00
1.000000e+00
8.883193e-01
7.620367e-01
6.370731e-01
5.121386e-01
3.871918e-01
2.623057e-01
1.390270e-01
0.000000e+00
1.000000e+00
8.883192e-01
7.620376e-01
6.370584e-01
5.121356e-01
3.872025e-01
2.623050e-01
1.390271e-01
0.000000e+00
1.000000e+00
8.883192e-01
7.620371e-01
6.370638e-01
5.121364e-01
3.871982e-01
2.623052e-01
1.390271e-01
0.000000e+00
1.000000e+00
8.883201e-01
7.620375e-01
6.370715e-01
5.121389e-01
3.871942e-01
2.623062e-01
1.390277e-01
0.000000e+00
1.000000e+00
8.883080e-01
7.620272e-01
6.370468e-01
5.121263e-01
3.871958e-01
2.622973e-01
1.390194e-01
0.000000e+00
1.000000e+00
8.881237e-01
7.616890e-01
6.343485e-01
4.805793e-01
3.849204e-01
2.619553e-01
1.388379e-01
0.000000e+00
1.000000e+00
8.882613e-01
7.619261e-01
6.360814e-01
5.000646e-01
3.863423e-01
2.621849e-01
1.389644e-01
0.000000e+00
1.000000e+00
8.884777e-01
7.623235e-01
6.389227e-01
5.345300e-01
3.889696e-01
2.625713e-01
1.391709e-01
0.000000e+00
1.000000e+00
8.885157e-01
7.623964e-01
6.394484e-01
5.413954e-01
3.895029e-01
2.626446e-01
1.392098e-01
0.000000e+00
1.000000e+00
8.883193e-01
7.620385e-01
6.370534e-01
5.121329e-01
3.872052e-01
2.623043e-01
1.390271e-01
0.000000e+00
1.000000e+00
8.881228e-01
7.616841e-01
6.344997e-01
4.828897e-01
3.850502e-01
2.619616e-01
1.388444e-01
0.000000e+00
1.000000e+00
8.881607e-01
7.617554e-01
6.350880e-01
4.897473e-01
3.855266e-01
2.620357e-01
1.388832e-01
0.000000e+00
1.000000e+00
8.883789e-01
7.621526e-01
6.380055e-01
5.242065e-01
3.880896e-01
2.624247e-01
1.390911e-01
0.000000e+00
1.000000e+00
8.884922e-01
7.623710e-01
6.395687e-01
5.436912e-01
3.896288e-01
2.626356e-01
1.392010e-01
0.000000e+00
1.000000e+00
8.880475e-01
7.615504e-01
6.331792e-01
4.675175e-01
3.840240e-01
2.618125e-01
1.387627e-01
0.000000e+00
1.000000e+00
8.882370e-01
7.618811e-01
6.356549e-01
4.950613e-01
3.860021e-01
2.621339e-01
1.389381e-01
0.000000e+00
1.000000e+00
8.885434e-01
7.624435e-01
6.396585e-01
5.438070e-01
3.897326e-01
2.626806e-01
1.392305e-01
0.000000e+00
1.000000e+00
8.885971e-01
7.625467e-01
6.403890e-01
5.535191e-01
3.904991e-01
2.627842e-01
1.392855e-01
0.000000e+00
1.000000e+00
8.883192e-01
7.620403e-01
6.370337e-01
5.121271e-01
3.872186e-01
2.623030e-01
1.390271e-01
0.000000e+00
1.000000e+00
8.880415e-01
7.615392e-01
6.333905e-01
4.707799e-01
3.842021e-01
2.618183e-01
1.387687e-01
0.000000e+00
1.000000e+00
8.880951e-01
7.616400e-01
6.342354e-01
4.804748e-01
3.848634e-01
2.619231e-01
1.388237e-01
0.000000e+00
1.000000e+00
8.884032e-01
7.622013e-01
6.383760e-01
5.292030e-01
3.884732e-01
2.624730e-01
1.391174e-01
0.000000e+00
1.000000e+00
8.885685e-01
7.625150e-01
6.405616e-01
5.567709e-01
3.906827e-01
2.627746e-01
1.392762e-01
0.000000e+00
1.000000e+00
8.881237e-01
7.616890e-01
6.343485e-01
4.805793e-01
3.849204e-01
2.619553e-01
1.388379e-01
0.000000e+00
1.000000e+00
8.882613e-01
7.619261e-01
6.360814e-01
5.000646e-01
3.863423e-01
2.621849e-01
1.389644e-01
0.000000e+00
1.000000e+00
8.884777e-01
7.623235e-01
6.389227e-01
5.345300e-01
3.889696e-01
2.625713e-01
1.391709e-01
0.000000e+00
1.000000e+00
8.885157e-01
7.623964e-01
6.394484e-01
5.413954e-01
3.895029e-01
2.626446e-01
1.392098e-01
0.000000e+00
1.000000e+00
8.883193e-01
7.620385e-01
6.370534e-01
5.121329e-01
3.872052e-01
2.623043e-01
1.390271e-01
0.000000e+00
1.000000e+00
8.881228e-01
7.616841e-01
6.344997e-01
4.828897e-01
3.850502e-01
2.619616e-01
1.388444e-01
0.000000e+00
1.000000e+00
8.881607e-01
7.617554e-01
6.350880e-01
4.897473e-01
3.855266e-01
2.620357e-01
1.388832e-01
0.000000e+00
1.000000e+00
8.883789e-01
7.621526e-01
6.380055e-01
5.242065e-01
3.880896e-01
2.624247e-01
1.390911e-01
0.000000e+00
1.000000e+00
8.884922e-01
7.623710e-01
6.395687e-01
5.436912e-01
3.896288e-01
2.626356e-01
1.392010e-01
0.000000e+00
1.000000e+00
8.883079e-01
7.620272e-01
6.370468e-01
5.121264e-01
3.871958e-01
2.622973e-01
1.390194e-01
0.000000e+00
1.000000e+00
8.883201e-01
7.620375e-01
6.370714e-01
5.121389e-01
3.871942e-01
2.623062e-01
1.390277e-01
0.000000e+00
1.000000e+00
8.883192e-01
7.620371e-01
6.370638e-01
5.121364e-01
3.871982e-01
2.623052e-01
1.390271e-01
0.000000e+00
1.000000e+00
8.883192e-01
7.620376e-01
6.370584e-01
5.121356e-01
3.872025e-01
2.623050e-01
1.390271e-01
0.000000e+00
1.000000e+00
8.883193e-01
7.620367e-01
6.370731e-01
5.121386e-01
3.871918e-01
2.623057e-01
1.390270e-01
0.000000e+00
1.000000e+00
8.883192e-01
7.620376e-01
6.370584e-01
5.121356e-01
3.872025e-01
2.623050e-01
1.390271e-01
0.000000e+00
1.000000e+00
8.883192e-01
7.620371e-01
6.370638e-01
5.121364e-01
3.871982e-01
2.623052e-01
1.390271e-01
0.000000e+00
1.000000e+00
8.883201e-01
7.620375e-01
6.370715e-01
5.121389e-01
3.871942e-01
2.623062e-01
1.390277e-01
0.000000e+00
1.000000e+00
8.883080e-01
7.620272e-01
6.370468e-01
5.121263e-01
3.871958e-01
2.622973e-01
1.390194e-01
0.000000e+00
1.000000e+00
8.884922e-01
7.623710e-01
6.395687e-01
5.436912e-01
3.896288e-01
2.626356e-01
1.392010e-01
0.000000e+00
1.000000e+00
8.883788e-01
7.621525e-01
6.380055e-01
5.242065e-01
3.880896e-01
2.624247e-01
1.390911e-01
0.000000e+00
1.000000e+00
8.881607e-01
7.617554e-01
6.350880e-01
4.897472e-01
3.855266e-01
2.620357e-01
1.388832e-01
0.000000e+00
1.000000e+00
8.881228e-01
7.616841e-01
6.344996e-01
4.828897e-01
3.850502e-01
2.619616e-01
1.388444e-01
0.000000e+00
1.000000e+00
8.883193e-01
7.620385e-01
6.370534e-01
5.121329e-01
3.872052e-01
2.623043e-01
1.390271e-01
0.000000e+00
1.000000e+00
8.885157e-01
7.623964e-01
6.394485e-01
5.413954e-01
3.895029e-01
2.626446e-01
1.392098e-01
0.000000e+00
1.000000e+00
8.884777e-01
7.623235e-01
6.389228e-01
5.345301e-01
3.889696e-01
2.625713e-01
1.391709e-01
0.000000e+00
1.000000e+00
8.882614e-01
7.619261e-01
6.360814e-01
5.000646e-01
3.863423e-01
2.621849e-01
1.389644e-01
0.000000e+00
1.000000e+00
8.881237e-01
7.616890e-01
6.343485e-01
4.805793e-01
3.849204e-01
2.619552e-01
1.388379e-01
0.000000e+00
1.000000e+00
8.885685e-01
7.625150e-01
6.405616e-01
5.567709e-01
3.906827e-01
2.627747e-01
1.392763e-01
0.000000e+00
1.000000e+00
8.884032e-01
7.622013e-01
6.383760e-01
5.292030e-01
3.884732e-01
2.624730e-01
1.391174e-01
0.000000e+00
1.000000e+00
8.880951e-01
7.616400e-01
6.342354e-01
4.804748e-01
3.848634e-01
2.619231e-01
1.388237e-01
0.000000e+00
1.000000e+00
8.880415e-01
7.615392e-01
6.333904e-01
4.707798e-01
3.842021e-01
2.618183e-01
1.387687e-01
0.000000e+00
1.000000e+00
8.883192e-01
7.620403e-01
6.370337e-01
5.121271e-01
3.872186e-01
2.623030e-01
1.390271e-01
0.000000e+00
1.000000e+00
8.885971e-01
7.625467e-01
6.403891e-01
5.535192e-01
3.904992e-01
2.627842e-01
1.392855e-01
0.000000e+00
1.000000e+00
8.885434e-01
7.624435e-01
6.396585e-01
5.438071e-01
3.897326e-01
2.626806e-01
1.392305e-01
0.000000e+00
1.000000e+00
8.882370e-01
7.618811e-01
6.356549e-01
4.950612e-01
3.860021e-01
2.621339e-01
1.389381e-01
0.000000e+00
1.000000e+00
8.880475e-01
7.615504e-01
6.331792e-01
4.675175e-01
3.840239e-01
2.618124e-01
1.387626e-01
0.000000e+00
        </DataArray>
        <DataArray type="Float32" Name="velocity" NumberOfComponents="3" format="ascii">
0.0000e+00 0.0000e+00 0.0000e+00
8.0780e-01 0.0000e+00 4.4130e-01
1.8641e+00 0.0000e+00 1.0183e+00
3.0436e+00 0.0000e+00 1.6627e+00
3.5364e+00 0.0000e+00 1.9320e+00
2.9114e+00 0.0000e+00 1.5905e+00
1.7809e+00 0.0000e+00 9.7292e-01
7.7905e-01 0.0000e+00 4.2560e-01
0.0000e+00 0.0000e+00 0.0000e+00
-2.0360e-01 0.0000e+00 5.1724e-01
-2.0591e-02 0.0000e+00 8.5507e-01
1.9161e-01 0.0000e+00 1.4860e+00
6.4412e-01 0.0000e+00 1.7586e+00
1.2596e+00 0.0000e+00 8.3765e-01
1.4017e+00 0.0000e+00 -2.6609e-01
1.0317e+00 0.0000e+00 -6.4615e-01
6.2245e-01 0.0000e+00 -7.2953e-01
3.1360e-01 0.0000e+00 -7.9671e-01
-9.7686e-02 0.0000e+00 3.8257e-01
-9.1955e-01 0.0000e+00 3.6882e-01
-1.9269e+00 0.0000e+00 5.2244e-01
-2.8942e+00 0.0000e+00 3.6386e-01
-3.0588e+00 0.0000e+00 -5.3656e-01
-2.3251e+00 0.0000e+00 -1.1951e+00
-1.3501e+00 0.0000e+00 -1.1019e+00
-5.1602e-01 0.0000e+00 -8.2410e-01
1.5556e-01 0.0000e+00 -6.0925e-01
3.8439e-02 0.0000e+00 -3.0592e-01
-9.3325e-01 0.0000e+00 -5.3572e-01
-2.1004e+00 0.0000e+00 -8.8947e-01
-3.3664e+00 0.0000e+00 -1.0641e+00
-3.9298e+00 0.0000e+00 -6.3746e-01
-3.2910e+00 0.0000e+00 -6.4335e-02
-2.0649e+00 0.0000e+00 2.0713e-01
-9.4512e-01 0.0000e+00 3.3363e-01
-5.4054e-02 0.0000e+00 4.3019e-01
-2.5941e-06 0.0000e+00 -7.0621e-01
-4.1708e-04 0.0000e+00 -9.8054e-01
1.2472e-04 0.0000e+00 -1.5353e+00
1.0561e-03 0.0000e+00 -1.6059e+00
1.4381e-04 0.0000e+00 -3.6190e-01
-5.6170e-04 0.0000e+00 8.7475e-01
3.1888e-04 0.0000e+00 1.1470e+00
5.8849e-04 0.0000e+00 1.0861e+00
3.8126e-06 0.0000e+00 1.0379e+00
-3.8325e-02 0.0000e+00 -3.0499e-01
9.3179e-01 0.0000e+00 -5.3452e-01
2.0955e+00 0.0000e+00 -8.8695e-01
3.3610e+00 0.0000e+00 -1.0634e+00
3.9324e+00 0.0000e+00 -6.3995e-01
3.3005e+00 0.0000e+00 -6.5859e-02
2.0724e+00 0.0000e+00 2.0661e-01
9.4812e-01 0.0000e+00 3.3282e-01
5.3968e-02 0.0000e+00 4.2948e-01
9.8067e-02 0.0000e+00 3.8405e-01
9.1845e-01 0.0000e+00 3.7049e-01
1.9235e+00 0.0000e+00 5.2300e-01
2.8918e+00 0.0000e+00 3.6629e-01
3.0611e+00 0.0000e+00 -5.3331e-01
2.3301e+00 0.0000e+00 -1.1965e+00
1.3542e+00 0.0000e+00 -1.1055e+00
5.1769e-01 0.0000e+00 -8.2683e-01
-1.5611e-01 0.0000e+00 -6.1136e-01
2.0424e-01 0.0000e+00 5.1886e-01
1.9543e-02 0.0000e+00 8.5712e-01
-1.9283e-01 0.0000e+00 1.4888e+00
-6.4504e-01 0.0000e+00 1.7599e+00
-1.2614e+00 0.0000e+00 8.3730e-01
-1.4029e+00 0.0000e+00 -2.6561e-01
-1.0316e+00 0.0000e+00 -6.4648e-01
-6.2238e-01 0.0000e+00 -7.3140e-01
-3.1440e-01 0.0000e+00 -7.9872e-01
0.0000e+00 0.0000e+00 -0.0000e+00
-8.1117e-01 0.0000e+00 4.4315e-01
-1.8724e+00 0.0000e+00 1.0229e+00
-3.0535e+00 0.0000e+00 1.6681e+00
-3.5385e+00 0.0000e+00 1.9331e+00
-2.9066e+00 0.0000e+00 1.5879e+00
-1.7776e+00 0.0000e+00 9.7111e-01
-7.7846e-01 0.0000e+00 4.2528e-01
0.0000e+00 0.0000e+00 -0.0000e+00
2.2256e-02 -1.7712e-01 0.0000e+00
6.0435e-01 -2.2671e-01 3.1214e-01
1.3799e+00 -4.0352e-01 7.2046e-01
2.2181e+00 -3.8386e-01 1.1761e+00
2.4973e+00 1.7658e-01 1.3657e+00
1.9919e+00 6.4379e-01 1.1235e+00
1.1898e+00 6.1821e-01 6.8700e-01
4.9562e-01 4.6806e-01 3.0052e-01
-4.6120e-02 3.6704e-01 0.0000e+00
-1.4243e-01 -2.0411e-02 3.6547e-01
-8.2325e-03 -4.6363e-02 6.0455e-01
1.5436e-01 -1.3319e-01 1.0510e+00
4.7789e-01 -1.4324e-01 1.2438e+00
8.8861e-01 7.0933e-02 5.9213e-01
9.6674e-01 2.4707e-01 -1.8858e-01
7.0614e-01 2.2270e-01 -4.5716e-01
4.2375e-01 1.5208e-01 -5.1588e-01
2.0988e-01 1.0746e-01 -5.6309e-01
-1.0607e-01 2.9060e-01 2.7026e-01
-6.9338e-01 3.0834e-01 2.6074e-01
-1.4203e+00 3.8724e-01 3.6951e-01
-2.0982e+00 2.9443e-01 2.5759e-01
-2.1601e+00 -1.5821e-01 -3.7933e-01
-1.5922e+00 -5.2593e-01 -8.4533e-01
-8.9424e-01 -5.5068e-01 -7.7941e-01
-3.0940e-01 -4.6925e-01 -5.8267e-01
1.6096e-01 -3.9917e-01 -4.3057e-01
-1.3488e-02 3.2549e-01 -2.1645e-01
-7.0851e-01 3.5139e-01 -3.7887e-01
-1.5539e+00 4.6708e-01 -6.2877e-01
-2.4433e+00 3.6476e-01 -7.5235e-01
-2.7735e+00 -2.1594e-01 -4.5081e-01
-2.2612e+00 -6.8320e-01 -4.5586e-02
-1.3855e+00 -6.9549e-01 1.4639e-01
-6.0197e-01 -5.7459e-01 2.3591e-01
2.1323e-02 -4.7638e-01 3.0430e-01
-6.5993e-05 5.1048e-04 -4.9936e-01
4.0655e-04 8.8535e-04 -6.9337e-01
1.4262e-03 1.0014e-03 -1.0856e+00
2.0816e-03 -5.9919e-04 -1.1356e+00
5.2928e-04 -2.0026e-03 -2.5589e-01
-1.1101e-03 -1.0053e-03 6.1853e-01
-8.7149e-04 4.4584e-04 8.1108e-01
-2.7470e-04 8.7124e-04 7.6800e-01
-1.0660e-04 8.6994e-04 7.3386e-01
1.3482e-02 -3.2447e-01 -2.1548e-01
7.0881e-01 -3.4960e-01 -3.7788e-01
1.5535e+00 -4.6492e-01 -6.2728e-01
2.4430e+00 -3.6686e-01 -7.5214e-01
2.7758e+00 2.1087e-01 -4.5236e-01
2.2649e+00 6.8190e-01 -4.6402e-02
1.3878e+00 6.9750e-01 1.4613e-01
6.0254e-01 5.7673e-01 2.3531e-01
-2.1643e-02 4.7823e-01 3.0359e-01
1.0636e-01 -2.8965e-01 2.7185e-01
6.9389e-01 -3.0666e-01 2.6208e-01
1.4207e+00 -3.8523e-01 3.6971e-01
2.0995e+00 -2.9611e-01 2.5879e-01
2.1622e+00 1.5372e-01 -3.7723e-01
1.5933e+00 5.2440e-01 -8.4577e-01
8.9440e-01 5.5218e-01 -7.8150e-01
3.0908e-01 4.7110e-01 -5.8468e-01
-1.6167e-01 4.0082e-01 -4.3250e-01
1.4300e-01 2.1256e-02 3.6717e-01
8.5020e-03 4.7784e-02 6.0617e-01
-1.5333e-01 1.3490e-01 1.0525e+00
-4.7663e-01 1.4191e-01 1.2443e+00
-8.8974e-01 -7.4885e-02 5.9218e-01
-9.6964e-01 -2.4891e-01 -1.8751e-01
-7.0846e-01 -2.2188e-01 -4.5683e-01
-4.2516e-01 -1.5068e-01 -5.1716e-01
-2.1081e-01 -1.0610e-01 -5.6499e-01
-2.2341e-02 1.7780e-01 -0.0000e+00
-6.0657e-01 2.2778e-01 3.1327e-01
-1.3846e+00 4.0500e-01 7.2291e-01
-2.2234e+00 3.8155e-01 1.1792e+00
-2.4997e+00 -1.8168e-01 1.3673e+00
-1.9923e+00 -6.4525e-01 1.1239e+00
-1.1908e+00 -6.1668e-01 6.8748e-01
-4.9685e-01 -4.6653e-01 3.0109e-01
4.5939e-02 -3.6560e-01 -0.0000e+00
6.2572e-02 -2.4505e-01 0.0000e+00
1.0493e-01 -4.1242e-01 -1.9887e-04
2.0039e-01 -7.8589e-01 -1.4797e-04
2.2912e-01 -8.9985e-01 -3.4172e-04
4.4903e-02 -1.8371e-01 -1.0611e-03
-1.3976e-01 5.3531e-01 -1.6244e-03
-1.6493e-01 6.3553e-01 -1.4052e-03
-1.4185e-01 5.5009e-01 -7.3380e-04
-1.2912e-01 5.0569e-01 0.0000e+00
1.3161e-03 -3.7899e-03 -8.5748e-04
1.6909e-02 -6.2385e-02 -5.6069e-04
5.5069e-02 -2.0802e-01 -7.9057e-05
7.1818e-02 -2.7503e-01 2.6094e-04
1.2776e-02 -5.2889e-02 -2.1432e-04
-4.6289e-02 1.7115e-01 -8.4174e-04
-4.8545e-02 1.8088e-01 -4.8105e-04
-3.5297e-02 1.3294e-01 3.2201e-04
-2.8184e-02 1.0903e-01 8.4847e-04
-1.0516e-01 4.1264e-01 -7.7535e-04
-1.3585e-01 5.3686e-01 -4.5405e-04
-1.9375e-01 7.6825e-01 1.3952e-04
-1.9195e-01 7.6067e-01 2.6462e-05
-3.9854e-02 1.5715e-01 -4.4563e-04
1.1134e-01 -4.4233e-01 -2.4408e-04
1.5083e-01 -5.9723e-01 2.6433e-04
1.4882e-01 -5.8663e-01 6.1956e-04
1.4570e-01 -5.7148e-01 8.4333e-04
-1.1337e-01 4.4418e-01 -4.1151e-04
-1.5141e-01 5.9787e-01 -3.4918e-04
-2.2728e-01 8.9952e-01 -2.0208e-04
-2.3148e-01 9.1525e-01 1.2638e-04
-4.6608e-02 1.8397e-01 3.5269e-04
1.3702e-01 -5.4167e-01 1.0103e-04
1.8006e-01 -7.1037e-01 -1.6628e-06
1.7294e-01 -6.7991e-01 1.7897e-04
1.6659e-01 -6.5257e-01 2.9985e-04
1.0051e-06 -3.9355e-06 6.3275e-05
1.4019e-03 3.5507e-04 1.6134e-05
2.8651e-03 7.3197e-04 6.3855e-06
2.8363e-03 7.2827e-04 2.1065e-05
3.9022e-04 1.0213e-04 1.9110e-05
-1.8348e-03 -4.6463e-04 5.5759e-05
-1.8781e-03 -4.7913e-04 3.6384e-05
-8.8630e-04 -2.2963e-04 -2.8443e-05
7.7569e-07 -3.0386e-06 -5.2686e-05
1.1349e-01 -4.4416e-01 6.0331e-04
1.5383e-01 -5.9726e-01 4.1608e-04
2.3179e-01 -8.9836e-01 2.6535e-04
2.3570e-01 -9.1416e-01 -1.3310e-04
4.7315e-02 -1.8379e-01 -2.5019e-04
-1.3938e-01 5.4107e-01 3.2441e-06
-1.8261e-01 7.0972e-01 -2.3813e-06
-1.7423e-01 6.7958e-01 -2.3054e-04
-1.6667e-01 6.5254e-01 -4.0562e-04
1.0558e-01 -4.1254e-01 9.2733e-04
1.3829e-01 -5.3625e-01 5.3961e-04
1.9821e-01 -7.6712e-01 -1.3786e-05
1.9628e-01 -7.5956e-01 1.5486e-05
4.0455e-02 -1.5699e-01 5.1368e-04
-1.1435e-01 4.4157e-01 2.9115e-04
-1.5407e-01 5.9641e-01 -3.0912e-04
-1.5061e-01 5.8617e-01 -6.7525e-04
-1.4613e-01 5.7137e-01 -9.1319e-04
-6.3483e-04 3.9586e-03 9.2539e-04
-1.5033e-02 6.2859e-02 6.1677e-04
-5.1488e-02 2.0893e-01 1.7799e-04
-6.8830e-02 2.7580e-01 -1.1803e-04
-1.4181e-02 5.2532e-02 2.4667e-04
4.1416e-02 -1.7239e-01 8.0499e-04
4.4111e-02 -1.8201e-01 5.0156e-04
3.2861e-02 -1.3357e-01 -3.7886e-04
2.7504e-02 -1.0920e-01 -9.3360e-04
-6.2571e-02 2.4505e-01 -0.0000e+00
-1.0568e-01 4.1222e-01 2.2274e-04
-2.0098e-01 7.8574e-01 1.8678e-04
-2.3046e-01 8.9950e-01 4.1051e-04
-4.8826e-02 1.8270e-01 1.1509e-03
1.3401e-01 -5.3677e-01 1.6171e-03
1.6002e-01 -6.3678e-01 1.3634e-03
1.3928e-01 -5.5074e-01 7.1309e-04
1.2912e-01 -5.0569e-01 -0.0000e+00
6.5641e-02 -1.6676e-01 0.0000e+00
-4.2309e-01 -4.9066e-01 -3.1325e-01
-1.0208e+00 -1.0192e+00 -7.2284e-01
-1.7682e+00 -1.4008e+00 -1.1791e+00
-2.2807e+00 -1.0389e+00 -1.3672e+00
-2.0577e+00 -3.8874e-01 -1.1238e+00
-1.3406e+00 -2.9603e-02 -6.8737e-01
-6.5955e-01 1.7114e-01 -3.0103e-01
-1.3491e-01 3.4273e-01 0.0000e+00
1.3565e-01 4.9912e-02 -3.6711e-01
3.0339e-02 -3.7897e-02 -6.0609e-01
-6.9838e-02 -1.9190e-01 -1.0524e+00
-3.5024e-01 -3.5299e-01 -1.2442e+00
-8.1668e-01 -3.6081e-01 -5.9208e-01
-9.7023e-01 -2.4641e-01 1.8759e-01
-7.2807e-01 -1.4480e-01 4.5686e-01
-4.4528e-01 -7.1612e-02 5.1707e-01
-2.3577e-01 -8.0481e-03 5.6484e-01
-4.5571e-02 3.0520e-01 -2.7173e-01
4.6186e-01 6.0176e-01 -2.6197e-01
1.0621e+00 1.0191e+00 -3.6961e-01
1.7004e+00 1.2665e+00 -2.5875e-01
1.9712e+00 9.0164e-01 3.7728e-01
1.6496e+00 3.0359e-01 8.4580e-01
1.0496e+00 -5.5708e-02 7.8144e-01
4.9709e-01 -2.6523e-01 5.8458e-01
5.0335e-02 -4.2930e-01 4.3238e-01
-1.4378e-01 2.9128e-01 2.1568e-01
4.5442e-01 6.4659e-01 3.7794e-01
1.1404e+00 1.1527e+00 6.2729e-01
1.9680e+00 1.4931e+00 7.5216e-01
2.5370e+00 1.1457e+00 4.5239e-01
2.3145e+00 4.8737e-01 4.6460e-02
1.5522e+00 5.3218e-02 -1.4612e-01
8.0528e-01 -2.1724e-01 -2.3536e-01
2.1031e-01 -4.3010e-01 -3.0370e-01
1.9268e-04 -4.8449e-04 4.9959e-01
7.8503e-04 -5.8510e-04 6.9339e-01
1.7357e-03 -1.9384e-04 1.0856e+00
1.5455e-03 1.5332e-03 1.1356e+00
-5.0427e-04 2.0117e-03 2.5594e-01
-1.4534e-03 3.5454e-04 -6.1845e-01
-5.6049e-04 -8.1166e-04 -8.1097e-01
1.7882e-04 -9.0072e-04 -7.6802e-01
3.2080e-04 -8.2234e-04 -7.3399e-01
1.4427e-01 -2.9218e-01 2.1665e-01
-4.5330e-01 -6.4803e-01 3.7893e-01
-1.1397e+00 -1.1548e+00 6.2880e-01
-1.9692e+00 -1.4914e+00 7.5240e-01
-2.5374e+00 -1.1402e+00 4.5089e-01
-2.3119e+00 -4.8444e-01 4.5678e-02
-1.5493e+00 -5.3913e-02 -1.4636e-01
-8.0375e-01 2.1562e-01 -2.3596e-01
-2.0971e-01 4.2831e-01 -3.0441e-01
4.6283e-02 -3.0591e-01 -2.7014e-01
-4.6062e-01 -6.0300e-01 -2.6063e-01
-1.0608e+00 -1.0207e+00 -3.6938e-01
-1.7001e+00 -1.2644e+00 -2.5751e-01
-1.9715e+00 -8.9670e-01 3.7942e-01
-1.6493e+00 -3.0169e-01 8.4539e-01
-1.0487e+00 5.4471e-02 7.7935e-01
-4.9646e-01 2.6346e-01 5.8257e-01
-5.0161e-02 4.2751e-01 4.3044e-01
-1.3474e-01 -5.0390e-02 -3.6541e-01
-2.9429e-02 3.6768e-02 -6.0447e-01
7.1553e-02 1.9089e-01 -1.0509e+00
3.5069e-01 3.5475e-01 -1.2437e+00
8.1378e-01 3.6373e-01 -5.9203e-01
9.6680e-01 2.4664e-01 1.8864e-01
7.2643e-01 1.4297e-01 4.5717e-01
4.4472e-01 6.9713e-02 5.1578e-01
2.3561e-01 6.4089e-03 5.6293e-01
-6.5389e-02 1.6612e-01 -0.0000e+00
4.2165e-01 4.8865e-01 -3.1212e-01
1.0174e+00 1.0157e+00 -7.2042e-01
1.7624e+00 1.4002e+00 -1.1761e+00
2.2761e+00 1.0422e+00 -1.3656e+00
2.0566e+00 3.8983e-01 -1.1235e+00
1.3403e+00 2.7753e-02 -6.8691e-01
6.5920e-01 -1.7308e-01 -3.0047e-01
1.3544e-01 -3.4408e-01 -0.0000e+00
1.0372e-09 -1.8985e-09 0.0000e+00
-7.1185e-01 -3.8889e-01 -4.4313e-01
-1.6431e+00 -8.9761e-01 -1.0228e+00
-2.6796e+00 -1.4639e+00 -1.6681e+00
-3.1052e+00 -1.6964e+00 -1.9330e+00
-2.5505e+00 -1.3934e+00 -1.5877e+00
-1.5596e+00 -8.5201e-01 -9.7085e-01
-6.8295e-01 -3.7310e-01 -4.2514e-01
4.4318e-09 -8.1124e-09 0.0000e+00
1.7921e-01 9.7905e-02 -5.1880e-01
1.7108e-02 9.3463e-03 -8.5701e-01
-1.6923e-01 -9.2449e-02 -1.4887e+00
-5.6603e-01 -3.0922e-01 -1.7598e+00
-1.1069e+00 -6.0470e-01 -8.3713e-01
-1.2311e+00 -6.7256e-01 2.6579e-01
-9.0514e-01 -4.9448e-01 6.4650e-01
-5.4599e-01 -2.9828e-01 7.3128e-01
-2.7584e-01 -1.5069e-01 7.9852e-01
8.6039e-02 4.7003e-02 -3.8396e-01
8.0602e-01 4.4033e-01 -3.7036e-01
1.6879e+00 9.2213e-01 -5.2293e-01
2.5377e+00 1.3864e+00 -3.6623e-01
2.6863e+00 1.4675e+00 5.3335e-01
2.0448e+00 1.1171e+00 1.1965e+00
1.1883e+00 6.4916e-01 1.1054e+00
4.5432e-01 2.4820e-01 8.2669e-01
-1.3696e-01 -7.4819e-02 6.1119e-01
-3.3656e-02 -1.8386e-02 3.0521e-01
8.1774e-01 4.4673e-01 5.3457e-01
1.8389e+00 1.0046e+00 8.8692e-01
2.9494e+00 1.6112e+00 1.0635e+00
3.4508e+00 1.8852e+00 6.3992e-01
2.8964e+00 1.5823e+00 6.5882e-02
1.8186e+00 9.9348e-01 -2.0658e-01
8.3205e-01 4.5455e-01 -3.3286e-01
4.7372e-02 2.5879e-02 -4.2960e-01
2.2772e-06 1.2450e-06 7.0655e-01
-3.6446e-04 -1.9910e-04 9.8055e-01
1.1347e-04 6.1994e-05 1.5353e+00
9.3710e-04 5.1194e-04 1.6060e+00
1.1909e-04 6.5068e-05 3.6196e-01
-4.8409e-04 -2.6446e-04 -8.7470e-01
2.6488e-04 1.4470e-04 -1.1468e+00
5.1582e-04 2.8179e-04 -1.0861e+00
-3.3461e-06 -1.8286e-06 -1.0381e+00
3.3760e-02 1.8443e-02 3.0614e-01
-8.1903e-01 -4.4744e-01 5.3579e-01
-1.8432e+00 -1.0069e+00 8.8947e-01
-2.9541e+00 -1.6139e+00 1.0642e+00
-3.4485e+00 -1.8839e+00 6.3750e-01
-2.8880e+00 -1.5777e+00 6.4403e-02
-1.8119e+00 -9.8987e-01 -2.0706e-01
-8.2941e-01 -4.5311e-01 -3.3366e-01
-4.7454e-02 -2.5924e-02 -4.3032e-01
-8.5709e-02 -4.6823e-02 -3.8248e-01
-8.0700e-01 -4.4087e-01 -3.6868e-01
-1.6909e+00 -9.2376e-01 -5.2232e-01
-2.5398e+00 -1.3875e+00 -3.6375e-01
-2.6842e+00 -1.4664e+00 5.3665e-01
-2.0403e+00 -1.1146e+00 1.1952e+00
-1.1847e+00 -6.4722e-01 1.1019e+00
-4.5283e-01 -2.4738e-01 8.2396e-01
1.3648e-01 7.4561e-02 6.0907e-01
-1.7866e-01 -9.7601e-02 -5.1718e-01
-1.8044e-02 -9.8573e-03 -8.5496e-01
1.6814e-01 9.1853e-02 -1.4859e+00
5.6519e-01 3.0876e-01 -1.7586e+00
1.1053e+00 6.0383e-01 -8.3749e-01
1.2301e+00 6.7200e-01 2.6626e-01
9.0530e-01 4.9457e-01 6.4616e-01
5.4606e-01 2.9831e-01 7.2939e-01
2.7514e-01 1.5031e-01 7.9648e-01
1.8471e-09 -3.3811e-09 -0.0000e+00
7.0888e-01 3.8726e-01 -4.4129e-01
1.6358e+00 8.9362e-01 -1.0183e+00
2.6710e+00 1.4592e+00 -1.6627e+00
3.1034e+00 1.6954e+00 -1.9319e+00
2.5547e+00 1.3956e+00 -1.5903e+00
1.5625e+00 8.5361e-01 -9.7269e-01
6.8347e-01 3.7338e-01 -4.2547e-01
3.7321e-09 -6.8316e-09 -0.0000e+00
-1.0486e-01 1.4534e-01 0.0000e+00
-6.4147e-01 -9.0919e-02 -3.1325e-01
-1.4092e+00 -3.0828e-01 -7.2284e-01
-2.1341e+00 -7.3107e-01 -1.1791e+00
-2.1065e+00 -1.3579e+00 -1.3672e+00
-1.4389e+00 -1.5214e+00 -1.1238e+00
-7.4921e-01 -1.1120e+00 -6.8737e-01
-2.1235e-01 -6.4746e-01 -3.0103e-01
2.1551e-01 -2.9870e-01 0.0000e+00
1.1529e-01 8.7177e-02 -3.6711e-01
-1.5497e-02 4.6005e-02 -6.0609e-01
-1.9922e-01 4.4920e-02 -1.0524e+00
-4.8627e-01 -1.0400e-01 -1.2442e+00
-7.4487e-01 -4.9227e-01 -5.9208e-01
-7.3157e-01 -6.8328e-01 1.8759e-01
-5.1522e-01 -5.3441e-01 4.5686e-01
-3.0085e-01 -3.3600e-01 5.1707e-01
-1.3416e-01 -1.9405e-01 5.6484e-01
2.3220e-01 -2.0325e-01 -2.7173e-01
7.5591e-01 6.3512e-02 -2.6197e-01
1.4314e+00 3.4311e-01 -3.6961e-01
1.9844e+00 7.4655e-01 -2.5875e-01
1.8237e+00 1.1715e+00 3.7728e-01
1.1468e+00 1.2241e+00 8.4580e-01
5.2022e-01 9.1330e-01 7.8144e-01
4.5390e-02 5.6159e-01 5.8458e-01
-3.3405e-01 2.7431e-01 4.3238e-01
1.6742e-01 -2.7836e-01 2.1568e-01
7.8961e-01 3.3021e-02 3.7794e-01
1.5862e+00 3.3679e-01 6.2729e-01
2.3197e+00 8.4923e-01 7.5216e-01
2.3348e+00 1.5158e+00 4.5239e-01
1.6607e+00 1.6843e+00 4.6460e-02
8.8344e-01 1.2774e+00 -1.4612e-01
2.5230e-01 7.9499e-01 -2.3536e-01
-2.4829e-01 4.0936e-01 -3.0370e-01
-3.0358e-04 4.2391e-04 4.9959e-01
-6.8196e-05 9.7671e-04 6.9339e-01
7.7471e-04 1.5653e-03 1.0856e+00
2.1252e-03 4.7207e-04 1.1356e+00
1.4203e-03 -1.5113e-03 2.5594e-01
-4.8695e-04 -1.4146e-03 -6.1845e-01
-9.8582e-04 -3.3091e-05 -8.1097e-01
-6.6132e-04 6.3713e-04 -7.6802e-01
-5.1865e-04 7.1426e-04 -7.3399e-01
-1.6792e-01 2.7927e-01 2.1665e-01
-7.9022e-01 -3.1302e-02 3.7893e-01
-1.5875e+00 -3.3508e-01 6.2880e-01
-2.3190e+00 -8.5120e-01 7.5240e-01
-2.3304e+00 -1.5191e+00 4.5089e-01
-1.6567e+00 -1.6836e+00 4.5678e-02
-8.8246e-01 -1.2746e+00 -1.4636e-01
-2.5283e-01 -7.9283e-01 -2.3596e-01
2.4711e-01 -4.0788e-01 -3.0441e-01
-2.3240e-01 2.0423e-01 -2.7014e-01
-7.5628e-01 -6.1794e-02 -2.6063e-01
-1.4321e+00 -3.4118e-01 -3.6938e-01
-1.9825e+00 -7.4743e-01 -2.5751e-01
-1.8197e+00 -1.1745e+00 3.7942e-01
-1.1450e+00 -1.2249e+00 8.4539e-01
-5.2080e-01 -9.1191e-01 7.7935e-01
-4.6544e-02 -5.6011e-01 5.8257e-01
3.3264e-01 -2.7320e-01 4.3044e-01
-1.1520e-01 -8.6158e-02 -3.6541e-01
1.5039e-02 -4.4630e-02 -6.0447e-01
1.9929e-01 -4.2928e-02 -1.0509e+00
4.8799e-01 1.0343e-01 -1.2437e+00
7.4576e-01 4.8824e-01 -5.9203e-01
7.2991e-01 6.8028e-01 1.8864e-01
5.1279e-01 5.3402e-01 4.5717e-01
2.9895e-01 3.3655e-01 5.1578e-01
1.3270e-01 1.9480e-01 5.6293e-01
1.0446e-01 -1.4478e-01 -0.0000e+00
6.3900e-01 9.0787e-02 -3.1212e-01
1.4044e+00 3.0734e-01 -7.2042e-01
2.1305e+00 7.2647e-01 -1.1761e+00
2.1068e+00 1.3522e+00 -1.3656e+00
1.4392e+00 1.5200e+00 -1.1235e+00
7.4754e-01 1.1129e+00 -6.8691e-01
2.1053e-01 6.4821e-01 -3.0047e-01
-2.1636e-01 2.9988e-01 -0.0000e+00
-1.7240e-01 1.8506e-01 0.0000e+00
-2.9034e-01 3.1113e-01 -1.9887e-04
-5.5303e-01 5.9324e-01 -1.4798e-04
-6.3340e-01 6.7899e-01 -3.4173e-04
-1.3032e-01 1.3704e-01 -1.0611e-03
3.7494e-01 -4.0683e-01 -1.6244e-03
4.4566e-01 -4.8216e-01 -1.4052e-03
3.8624e-01 -4.1658e-01 -7.3380e-04
3.5576e-01 -3.8188e-01 0.0000e+00
-2.4780e-03 3.1551e-03 -8.5748e-04
-4.3359e-02 4.7936e-02 -5.6069e-04
-1.4529e-01 1.5873e-01 -7.9062e-05
-1.9263e-01 2.0903e-01 2.6094e-04
-3.7601e-02 3.9327e-02 -2.1432e-04
1.1901e-01 -1.3143e-01 -8.4174e-04
1.2598e-01 -1.3858e-01 -4.8105e-04
9.2798e-02 -1.0153e-01 3.2202e-04
7.6516e-02 -8.2624e-02 8.4848e-04
2.9041e-01 -3.1144e-01 -7.7536e-04
3.7836e-01 -4.0438e-01 -4.5405e-04
5.4178e-01 -5.7813e-01 1.3951e-04
5.3637e-01 -5.7251e-01 2.6457e-05
1.1070e-01 -1.1844e-01 -4.4563e-04
-3.1205e-01 3.3268e-01 -2.4407e-04
-4.2106e-01 4.4960e-01 2.6434e-04
-4.1322e-01 4.4219e-01 6.1957e-04
-4.0216e-01 4.3138e-01 8.4333e-04
3.1252e-01 -3.3539e-01 -4.1151e-04
4.2128e-01 -4.5044e-01 -3.4918e-04
6.3412e-01 -6.7726e-01 -2.0208e-04
6.4509e-01 -6.8929e-01 1.2639e-04
1.2962e-01 -1.3862e-01 3.5270e-04
-3.8177e-01 4.0796e-01 1.0103e-04
-5.0046e-01 5.3533e-01 -1.6601e-06
-4.7869e-01 5.1288e-01 1.7897e-04
-4.5911e-01 4.9277e-01 2.9986e-04
-2.7693e-06 2.9730e-06 6.3269e-05
1.0562e-03 9.8777e-04 1.6129e-05
2.1639e-03 2.0154e-03 6.3808e-06
2.1453e-03 1.9932e-03 2.1066e-05
2.9677e-04 2.7318e-04 1.9119e-05
-1.3823e-03 -1.2929e-03 5.5765e-05
-1.4179e-03 -1.3215e-03 3.6384e-05
-6.7210e-04 -6.2172e-04 -2.8445e-05
-2.1391e-06 2.2959e-06 -5.2687e-05
-3.1243e-01 3.3548e-01 6.0330e-04
-4.1946e-01 4.5215e-01 4.1608e-04
-6.3071e-01 6.8043e-01 2.6534e-04
-6.4189e-01 6.9226e-01 -1.3310e-04
-1.2909e-01 1.3911e-01 -2.5019e-04
3.7999e-01 -4.0963e-01 3.2443e-06
4.9854e-01 -5.3713e-01 -2.3834e-06
4.7771e-01 -5.1378e-01 -2.3054e-04
4.5904e-01 -4.9282e-01 -4.0562e-04
-2.9010e-01 3.1174e-01 9.2733e-04
-3.7652e-01 4.0611e-01 5.3961e-04
-5.3841e-01 5.8127e-01 -1.3787e-05
-5.3310e-01 5.7556e-01 1.5482e-05
-1.1025e-01 1.1887e-01 5.1367e-04
3.0979e-01 -3.3480e-01 2.9113e-04
4.1862e-01 -4.5188e-01 -3.0912e-04
4.1187e-01 -4.4344e-01 -6.7525e-04
4.0183e-01 -4.3168e-01 -9.1319e-04
2.9880e-03 -2.6730e-03 9.2539e-04
4.4771e-02 -4.6613e-02 6.1677e-04
1.4799e-01 -1.5621e-01 1.7799e-04
1.9488e-01 -2.0693e-01 -1.1803e-04
3.6542e-02 -4.0316e-02 2.4667e-04
-1.2269e-01 1.2799e-01 8.0498e-04
-1.2933e-01 1.3546e-01 5.0155e-04
-9.4636e-02 9.9817e-02 -3.7887e-04
-7.7028e-02 8.2144e-02 -9.3361e-04
1.7239e-01 -1.8505e-01 -0.0000e+00
2.8977e-01 -3.1165e-01 2.2274e-04
5.5258e-01 -5.9366e-01 1.8678e-04
6.3239e-01 -6.7993e-01 4.1051e-04
1.2736e-01 -1.3980e-01 1.1509e-03
-3.7928e-01 4.0278e-01 1.6171e-03
-4.4937e-01 4.7870e-01 1.3634e-03
-3.8818e-01 4.1477e-01 7.1310e-04
-3.5576e-01 3.8188e-01 -0.0000e+00
-1.3702e-01 1.1443e-01 0.0000e+00
1.3576e-01 6.3103e-01 3.1214e-01
4.0600e-01 1.3792e+00 7.2046e-01
8.7542e-01 2.0738e+00 1.1761e+00
1.4979e+00 2.0060e+00 1.3657e+00
1.6180e+00 1.3283e+00 1.1235e+00
1.1630e+00 6.6714e-01 6.8700e-01
6.6164e-01 1.6416e-01 3.0052e-01
2.8393e-01 -2.3712e-01 0.0000e+00
-9.4128e-02 -1.0882e-01 3.6547e-01
-4.3461e-02 1.8123e-02 6.0455e-01
-2.8671e-02 2.0185e-01 1.0510e+00
1.3767e-01 4.7952e-01 1.2438e+00
5.3981e-01 7.0941e-01 5.9213e-01
7.3023e-01 6.7999e-01 -1.8858e-01
5.6893e-01 4.7387e-01 -4.5716e-01
3.5692e-01 2.7441e-01 -5.1588e-01
2.0383e-01 1.1855e-01 -5.6309e-01