<?xml version="1.0"?>
<VTKFile type="StructuredGrid" version="0.1">
  <StructuredGrid WholeExtent="0 8 0 8 0 8">
    <Piece Extent="0 8 0 8 0 8">
      <PointData Scalars="temperature" Vectors="velocity">
        <DataArray type="Float32" Name="temperature" format="ascii">
1.000000e+00
9.427691e-01
8.231962e-01
7.062783e-01
5.994207e-01
4.573351e-01
3.252135e-01
1.951068e-01
0.000000e+00
1.000000e+00
9.418105e-01
8.204559e-01
6.981311e-01
5.802585e-01
4.490006e-01
3.225400e-01
1.939904e-01
0.000000e+00
1.000000e+00
9.400583e-01
8.154519e-01
6.828213e-01
5.463037e-01
4.352313e-01
3.179182e-01
1.919622e-01
0.000000e+00
1.000000e+00
9.397609e-01
8.145371e-01
6.797666e-01
5.396307e-01
4.327244e-01
3.170781e-01
1.915925e-01
0.000000e+00
1.000000e+00
9.413715e-01
8.190627e-01
6.933480e-01
5.687122e-01
4.443985e-01
3.211252e-01
1.933949e-01
0.000000e+00
1.000000e+00
9.429731e-01
8.234528e-01
7.060395e-01
5.979912e-01
4.570200e-01
3.253196e-01
1.952137e-01
0.000000e+00
1.000000e+00
9.426828e-01
8.225917e-01
7.033391e-01
5.912437e-01
4.541368e-01
3.244195e-01
1.948396e-01
0.000000e+00
1.000000e+00
9.409419e-01
8.176634e-01
6.884697e-01
5.571948e-01
4.399016e-01
3.197151e-01
1.928087e-01
0.000000e+00
1.000000e+00
9.398897e-01
8.147082e-01
6.794236e-01
5.381162e-01
4.323300e-01
3.170779e-01
1.916141e-01
0.000000e+00
1.000000e+00
9.423531e-01
8.220059e-01
7.026222e-01
5.904094e-01
4.534007e-01
3.239703e-01
1.945881e-01
0.000000e+00
1.000000e+00
9.416890e-01
8.200831e-01
6.968198e-01
5.768983e-01
4.475927e-01
3.220996e-01
1.938116e-01
0.000000e+00
1.000000e+00
9.404495e-01
8.165493e-01
6.860271e-01
5.528733e-01
4.378179e-01
3.188287e-01
1.923764e-01
0.000000e+00
1.000000e+00
9.402391e-01
8.159059e-01
6.838957e-01
5.481445e-01
4.360130e-01
3.182317e-01
1.921145e-01
0.000000e+00
1.000000e+00
9.413788e-01
8.191019e-01
6.934348e-01
5.687396e-01
4.443482e-01
3.210995e-01
1.933884e-01
0.000000e+00
1.000000e+00
9.425103e-01
8.222077e-01
7.024748e-01
5.894177e-01
4.531923e-01
3.240570e-01
1.946748e-01
0.000000e+00
1.000000e+00
9.423052e-01
8.215962e-01
7.005363e-01
5.846549e-01
4.511860e-01
3.234244e-01
1.944110e-01
0.000000e+00
1.000000e+00
9.410749e-01
8.181090e-01
6.899881e-01
5.605888e-01
4.411589e-01
3.201027e-01
1.929762e-01
0.000000e+00
1.000000e+00
9.403172e-01
8.160062e-01
6.836320e-01
5.470552e-01
4.357201e-01
3.182198e-01
1.921187e-01
0.000000e+00
1.000000e+00
9.413409e-01
8.190598e-01
6.934033e-01
5.686961e-01
4.442881e-01
3.210444e-01
1.933462e-01
0.000000e+00
1.000000e+00
9.413877e-01
8.191324e-01
6.935074e-01
5.687604e-01
4.443004e-01
3.210746e-01
1.933881e-01
0.000000e+00
1.000000e+00
9.413841e-01
8.191236e-01
6.934830e-01
5.687543e-01
4.443197e-01
3.210841e-01
1.933864e-01
0.000000e+00
1.000000e+00
9.413824e-01
8.191186e-01
6.934673e-01
5.687511e-01
4.443329e-01
3.210898e-01
1.933862e-01
0.000000e+00
1.000000e+00
9.413862e-01
8.191410e-01
6.935217e-01
5.687670e-01
4.442978e-01
3.210739e-01
1.933819e-01
0.000000e+00
1.000000e+00
9.413825e-01
8.191188e-01
6.934676e-01
5.687514e-01
4.443332e-01
3.210900e-01
1.933862e-01
0.000000e+00
1.000000e+00
9.413842e-01
8.191239e-01
6.934834e-01
5.687547e-01
4.443200e-01
3.210844e-01
1.933865e-01
0.000000e+00
1.000000e+00
9.413878e-01
8.191325e-01
6.935075e-01
5.687606e-01
4.443006e-01
3.210748e-01
1.933882e-01
0.000000e+00
1.000000e+00
9.413409e-01
8.190598e-01
6.934033e-01
5.686961e-01
4.442882e-01
3.210446e-01
1.933463e-01
0.000000e+00
1.000000e+00
9.403172e-01
8.160061e-01
6.836319e-01
5.470552e-01
4.357201e-01
3.182200e-01
1.921188e-01
0.000000e+00
1.000000e+00
9.410748e-01
8.181089e-01
6.899879e-01
5.605887e-01
4.411588e-01
3.201026e-01
1.929761e-01
0.000000e+00
1.000000e+00
9.423051e-01
8.215960e-01
7.005360e-01
5.846545e-01
4.511857e-01
3.234241e-01
1.944108e-01
0.000000e+00
1.000000e+00
9.425102e-01
8.222075e-01
7.024745e-01
5.894173e-01
4.531919e-01
3.240568e-01
1.946747e-01
0.000000e+00
1.000000e+00
9.413788e-01
8.191019e-01
6.934348e-01
5.687396e-01
4.443482e-01
3.210995e-01
1.933884e-01
0.000000e+00
1.000000e+00
9.402392e-01
8.159061e-01
6.838961e-01
5.481449e-01
4.360133e-01
3.182319e-01
1.921146e-01
0.000000e+00
1.000000e+00
9.404496e-01
8.165496e-01
6.860275e-01
5.528737e-01
4.378183e-01
3.188289e-01
1.923766e-01
0.000000e+00
1.000000e+00
9.416891e-01
8.200832e-01
6.968199e-01
5.768985e-01
4.475928e-01
3.220996e-01
1.938116e-01
0.000000e+00
1.000000e+00
9.423532e-01
8.220059e-01
7.026223e-01
5.904094e-01
4.534006e-01
3.239701e-01
1.945879e-01
0.000000e+00
1.000000e+00
9.398897e-01
8.147081e-01
6.794235e-01
5.381162e-01
4.323303e-01
3.170783e-01
1.916144e-01
0.000000e+00
1.000000e+00
9.409418e-01
8.176633e-01
6.884695e-01
5.571947e-01
4.399016e-01
3.197152e-01
1.928088e-01
0.000000e+00
1.000000e+00
9.426827e-01
8.225914e-01
7.033388e-01
5.912433e-01
4.541364e-01
3.244191e-01
1.948394e-01
0.000000e+00
1.000000e+00
9.429729e-01
8.234525e-01
7.060391e-01
5.979908e-01
4.570196e-01
3.253193e-01
1.952135e-01
0.000000e+00
1.000000e+00
9.413714e-01
8.190628e-01
6.933480e-01
5.687122e-01
4.443985e-01
3.211252e-01
1.933949e-01
0.000000e+00
1.000000e+00
9.397610e-01
8.145374e-01
6.797671e-01
5.396311e-01
4.327247e-01
3.170784e-01
1.915927e-01
0.000000e+00
1.000000e+00
9.400585e-01
8.154522e-01
6.828217e-01
5.463041e-01
4.352317e-01
3.179185e-01
1.919624e-01
0.000000e+00
1.000000e+00
9.418106e-01
8.204561e-01
6.981312e-01
5.802586e-01
4.490006e-01
3.225399e-01
1.939903e-01
0.000000e+00
1.000000e+00
9.427691e-01
8.231962e-01
7.062783e-01
5.994207e-01
4.573348e-01
3.252130e-01
1.951065e-01
0.000000e+00
1.000000e+00
9.403172e-01
8.160061e-01
6.836319e-01
5.470552e-01
4.357201e-01
3.182200e-01
1.921188e-01
0.000000e+00
1.000000e+00
9.410748e-01
8.181089e-01
6.899879e-01
5.605887e-01
4.411588e-01
3.201026e-01
1.929761e-01
0.000000e+00
1.000000e+00
9.423051e-01
8.215960e-01
7.005360e-01
5.846545e-01
4.511857e-01
3.234241e-01
1.944108e-01
0.000000e+00
1.000000e+00
9.425102e-01
8.222075e-01
7.024745e-01
5.894173e-01
4.531919e-01
3.240568e-01
1.946747e-01
0.000000e+00
1.000000e+00
9.413788e-01
8.191019e-01
6.934348e-01
5.687396e-01
4.443482e-01
3.210995e-01
1.933884e-01
0.000000e+00
1.000000e+00
9.402392e-01
8.159061e-01
6.838961e-01
5.481449e-01
4.360133e-01
3.182319e-01
1.921146e-01
0.000000e+00
1.000000e+00
9.404496e-01
8.165496e-01
6.860275e-01
5.528737e-01
4.378183e-01
3.188289e-01
1.923766e-01
0.000000e+00
1.000000e+00
9.416891e-01
8.200832e-01
6.968199e-01
5.768985e-01
4.475928e-01
3.220996e-01
1.938116e-01
0.000000e+00
1.000000e+00
9.423532e-01
8.220059e-01
7.026223e-01
5.904094e-01
4.534006e-01
3.239701e-01
1.945879e-01
0.000000e+00
1.000000e+00
9.413409e-01
8.190598e-01
6.934033e-01
5.686961e-01
4.442881e-01
3.210444e-01
1.933462e-01
0.000000e+00
1.000000e+00
9.413877e-01
8.191324e-01
6.935074e-01
5.687604e-01
4.443004e-01
3.210746e-01
1.933881e-01
0.000000e+00
1.000000e+00
9.413841e-01
8.191236e-01
6.934830e-01
5.687543e-01
4.443197e-01
3.210841e-01
1.933864e-01
0.000000e+00
1.000000e+00
9.413824e-01
8.191186e-01
6.934673e-01
5.687511e-01
4.443329e-01
3.210898e-01
1.933862e-01
0.000000e+00
1.000000e+00
9.413862e-01
8.191410e-01
6.935217e-01
5.687670e-01
4.442978e-01
3.210739e-01
1.933819e-01
0.000000e+00
1.000000e+00
9.413825e-01
8.191188e-01
6.934676e-01
5.687514e-01
4.443332e-01
3.210900e-01
1.933862e-01
0.000000e+00
1.000000e+00
9.413842e-01
8.191239e-01
6.934834e-01
5.687547e-01
4.443200e-01
3.210844e-01
1.933865e-01
0.000000e+00
1.000000e+00
9.413878e-01
8.191325e-01
6.935075e-01
5.687606e-01
4.443006e-01
3.210748e-01
1.933882e-01
0.000000e+00
1.000000e+00
9.413409e-01
8.190598e-01
6.934033e-01
5.686961e-01
4.442882e-01
3.210446e-01
1.933463e-01
0.000000e+00
1.000000e+00
9.423531e-01
8.220059e-01
7.026222e-01
5.904094e-01
4.534007e-01
3.239703e-01
1.945881e-01
0.000000e+00
1.000000e+00
9.416890e-01
8.200831e-01
6.968198e-01
5.768983e-01
4.475927e-01
3.220996e-01
1.938116e-01
0.000000e+00
1.000000e+00
9.404495e-01
8.165493e-01
6.860271e-01
5.528733e-01
4.378179e-01
3.188287e-01
1.923764e-01
0.000000e+00
1.000000e+00
9.402391e-01
8.159059e-01
6.838957e-01
5.481445e-01
4.360130e-01
3.182317e-01
1.921145e-01
0.000000e+00
1.000000e+00
9.413788e-01
8.191019e-01
6.934348e-01
5.687396e-01
4.443482e-01
3.210995e-01
1.933884e-01
0.000000e+00
1.000000e+00
9.425103e-01
8.222077e-01
7.024748e-01
5.894177e-01
4.531923e-01
3.240570e-01
1.946748e-01
0.000000e+00
1.000000e+00
9.423052e-01
8.215962e-01
7.005363e-01
5.846549e-01
4.511860e-01
3.234244e-01
1.944110e-01
0.000000e+00
1.000000e+00
9.410749e-01
8.181090e-01
6.899881e-01
5.605888e-01
4.411589e-01
3.201027e-01
1.929762e-01
0.000000e+00
1.000000e+00
9.403172e-01
8.160062e-01
6.836320e-01
5.470552e-01
4.357201e-01
3.182198e-01
1.921187e-01
0.000000e+00
1.000000e+00
9.427691e-01
8.231962e-01
7.062783e-01
5.994207e-01
4.573351e-01
3.252135e-01
1.951068e-01
0.000000e+00
1.000000e+00
9.418105e-01
8.204559e-01
6.981311e-01
5.802585e-01
4.490006e-01
3.225400e-01
1.939904e-01
0.000000e+00
1.000000e+00
9.400583e-01
8.154519e-01
6.828213e-01
5.463037e-01
4.352313e-01
3.179182e-01
1.919622e-01
0.000000e+00
1.000000e+00
9.397609e-01
8.145371e-01
6.797666e-01
5.396307e-01
4.327244e-01
3.170781e-01
1.915925e-01
0.000000e+00
1.000000e+00
9.413715e-01
8.190627e-01
6.933480e-01
5.687122e-01
4.443985e-01
3.211252e-01
1.933949e-01
0.000000e+00
1.000000e+00
9.429731e-01
8.234528e-01
7.060395e-01
5.979912e-01
4.570200e-01
3.253196e-01
1.952137e-01
0.000000e+00
1.000000e+00
9.426828e-01
8.225917e-01
7.033391e-01
5.912437e-01
4.541368e-01
3.244195e-01
1.948396e-01
0.000000e+00
1.000000e+00
9.409419e-01
8.176634e-01
6.884697e-01
5.571948e-01
4.399016e-01
3.197151e-01
1.928087e-01
0.000000e+00
1.000000e+00
9.398897e-01
8.147082e-01
6.794236e-01
5.381162e-01
4.323300e-01
3.170779e-01
1.916141e-01
0.000000e+00
        </DataArray>
        <DataArray type="Float32" Name="velocity" NumberOfComponents="3" format="ascii">
0.000000e+00 0.000000e+00 0.000000e+00
1.096070e+00 0.000000e+00 5.987806e-01
2.293840e+00 0.000000e+00 1.253119e+00
3.426379e+00 0.000000e+00 1.871823e+00
3.884231e+00 0.000000e+00 2.121946e+00
3.368511e+00 0.000000e+00 1.840210e+00
2.258629e+00 0.000000e+00 1.233884e+00
1.061876e+00 0.000000e+00 5.801004e-01
0.000000e+00 0.000000e+00 0.000000e+00
-3.062018e-01 0.000000e+00 7.779075e-01
-6.046283e-02 0.000000e+00 1.129928e+00
2.226037e-01 0.000000e+00 1.648507e+00
7.051565e-01 0.000000e+00 1.731397e+00
1.238174e+00 0.000000e+00 9.596279e-01
1.421710e+00 0.000000e+00 -5.590336e-02
1.196796e+00 0.000000e+00 -6.793949e-01
8.250402e-01 0.000000e+00 -9.941022e-01
4.526144e-01 0.000000e+00 -1.149870e+00
-1.426414e-01 0.000000e+00 5.586374e-01
-1.353795e+00 0.000000e+00 4.397581e-01
-2.565001e+00 0.000000e+00 4.470605e-01
-3.513354e+00 0.000000e+00 1.463611e-01
-3.666153e+00 0.000000e+00 -6.031992e-01
-2.970836e+00 0.000000e+00 -1.199822e+00
-1.880179e+00 0.000000e+00 -1.287191e+00
-7.659725e-01 0.000000e+00 -1.113666e+00
2.203293e-01 0.000000e+00 -8.628926e-01
6.403950e-02 0.000000e+00 -5.096600e-01
-1.372173e+00 0.000000e+00 -7.912035e-01
-2.812105e+00 0.000000e+00 -1.110915e+00
-4.094578e+00 0.000000e+00 -1.177684e+00
-4.590852e+00 0.000000e+00 -7.795996e-01
-3.997873e+00 0.000000e+00 -2.093615e-01
-2.734249e+00 0.000000e+00 2.144256e-01
-1.346071e+00 0.000000e+00 4.934293e-01
-8.425327e-02 0.000000e+00 6.705318e-01
-4.136234e-06 0.000000e+00 -1.126056e+00
-2.038789e-03 0.000000e+00 -1.388069e+00
4.862730e-05 0.000000e+00 -1.781175e+00
3.972345e-03 0.000000e+00 -1.609768e+00
2.622474e-03 0.000000e+00 -5.097841e-01
1.384061e-03 0.000000e+00 6.967206e-01
3.978267e-03 0.000000e+00 1.316949e+00
3.760428e-03 0.000000e+00 1.537743e+00
5.750209e-06 0.000000e+00 1.565447e+00
-6.323682e-02 0.000000e+00 -5.032420e-01
1.363216e+00 0.000000e+00 -7.826205e-01
2.791365e+00 0.000000e+00 -1.098911e+00
4.078254e+00 0.000000e+00 -1.173943e+00
4.609411e+00 0.000000e+00 -7.886567e-01
4.045310e+00 0.000000e+00 -2.180321e-01
2.775393e+00 0.000000e+00 2.085098e-01
1.365187e+00 0.000000e+00 4.870684e-01
8.356446e-02 0.000000e+00 6.650104e-01
1.450713e-01 0.000000e+00 5.681365e-01
1.346562e+00 0.000000e+00 4.509342e-01
2.549510e+00 0.000000e+00 4.564124e-01
3.505377e+00 0.000000e+00 1.610012e-01
3.680149e+00 0.000000e+00 -5.899239e-01
2.997970e+00 0.000000e+00 -1.206616e+00
1.903344e+00 0.000000e+00 -1.306723e+00
7.759533e-01 0.000000e+00 -1.132674e+00
-2.244140e-01 0.000000e+00 -8.788630e-01
3.097450e-01 0.000000e+00 7.868921e-01
5.365568e-02 0.000000e+00 1.143185e+00
-2.325539e-01 0.000000e+00 1.665178e+00
-7.143385e-01 0.000000e+00 1.742964e+00
-1.248204e+00 0.000000e+00 9.639120e-01
-1.428156e+00 0.000000e+00 -5.377403e-02
-1.197921e+00 0.000000e+00 -6.840580e-01
-8.266347e-01 0.000000e+00 -1.006712e+00
-4.581535e-01 0.000000e+00 -1.163917e+00
0.000000e+00 0.000000e+00 -0.000000e+00
-1.115649e+00 0.000000e+00 6.094870e-01
-2.334191e+00 0.000000e+00 1.275186e+00
-3.470133e+00 0.000000e+00 1.895759e+00
-3.898578e+00 0.000000e+00 2.129821e+00
-3.355866e+00 0.000000e+00 1.833334e+00
-2.246938e+00 0.000000e+00 1.227519e+00
-1.059073e+00 0.000000e+00 5.785791e-01
0.000000e+00 0.000000e+00 -0.000000e+00
2.763985e-02 -2.199659e-01 0.000000e+00
8.126178e-01 -2.414408e-01 4.240231e-01
1.682145e+00 -3.556825e-01 8.875565e-01
2.477479e+00 -2.726284e-01 1.324312e+00
2.743591e+00 1.558076e-01 1.497735e+00
2.320260e+00 5.590445e-01 1.295739e+00
1.518431e+00 6.552329e-01 8.676708e-01
6.781758e-01 5.889277e-01 4.077068e-01
-6.135937e-02 4.883156e-01 0.000000e+00
-2.201073e-01 2.026042e-02 5.484039e-01
-3.971826e-02 4.038393e-04 7.983799e-01
1.730574e-01 -7.334292e-02 1.166230e+00
5.159512e-01 -7.883002e-02 1.224757e+00
8.736679e-01 5.582916e-02 6.773499e-01
9.835907e-01 1.856476e-01 -4.159211e-02
8.210632e-01 1.984317e-01 -4.819395e-01
5.644214e-01 1.549486e-01 -7.028036e-01
3.082556e-01 1.083477e-01 -8.113329e-01
-1.620839e-01 4.846119e-01 3.932060e-01
-1.018262e+00 4.621482e-01 3.102247e-01
-1.877872e+00 4.581714e-01 3.162781e-01
-2.531133e+00 2.652158e-01 1.041315e-01
-2.592604e+00 -1.670288e-01 -4.265262e-01
-2.055066e+00 -5.466438e-01 -8.496940e-01
-1.260360e+00 -6.874220e-01 -9.109613e-01
-4.639286e-01 -6.835572e-01 -7.868117e-01
2.339064e-01 -6.154401e-01 -6.084153e-01
-1.958249e-02 5.202403e-01 -3.615647e-01
-1.035560e+00 4.983458e-01 -5.600507e-01
-2.060379e+00 5.180600e-01 -7.852735e-01
-2.948687e+00 3.028648e-01 -8.324061e-01
-3.244214e+00 -2.246608e-01 -5.517290e-01
-2.770630e+00 -6.847759e-01 -1.484555e-01
-1.851146e+00 -8.352296e-01 1.515477e-01
-8.616739e-01 -8.070816e-01 3.492631e-01
2.879554e-02 -7.079489e-01 4.750641e-01
-4.733405e-04 3.743518e-03 -7.963492e-01
3.102895e-03 5.005756e-03 -9.816235e-01
7.890733e-03 3.825555e-03 -1.259534e+00
1.001271e-02 -3.617987e-03 -1.138425e+00
4.035700e-03 -9.223268e-03 -3.604079e-01
-2.699254e-03 -5.343368e-03 4.927270e-01
-3.171414e-03 1.639240e-03 9.313257e-01
-1.473466e-03 5.148526e-03 1.087426e+00
-7.149883e-04 5.722697e-03 1.106938e+00
1.949793e-02 -5.127762e-01 -3.548053e-01
1.037866e+00 -4.884514e-01 -5.529542e-01
2.062229e+00 -5.105770e-01 -7.775065e-01
2.953500e+00 -3.135351e-01 -8.305286e-01
3.259228e+00 2.028289e-01 -5.573076e-01
2.790476e+00 6.769746e-01 -1.535765e-01
1.864341e+00 8.432882e-01 1.476273e-01
8.659541e-01 8.196639e-01 3.441365e-01
-3.101730e-02 7.200613e-01 4.695105e-01
1.638528e-01 -4.777008e-01 4.034416e-01
1.021131e+00 -4.530357e-01 3.194710e-01
1.881402e+00 -4.512378e-01 3.225417e-01
2.538932e+00 -2.742924e-01 1.131225e-01
2.603677e+00 1.473047e-01 -4.171796e-01
2.062591e+00 5.380306e-01 -8.520446e-01
1.262411e+00 6.931210e-01 -9.231122e-01
4.618755e-01 6.941798e-01 -8.014013e-01
-2.390287e-01 6.261113e-01 -6.230901e-01
2.231768e-01 -1.424576e-02 5.580342e-01
4.082687e-02 7.126430e-03 8.088743e-01
-1.703915e-01 7.889020e-02 1.176841e+00
-5.144274e-01 7.102878e-02 1.232142e+00
-8.819436e-01 -7.366245e-02 6.826846e-01
-9.994902e-01 -1.959154e-01 -3.604521e-02
-8.356502e-01 -1.963965e-01 -4.822725e-01
-5.746465e-01 -1.473362e-01 -7.118876e-01
-3.146211e-01 -9.965043e-02 -8.246057e-01
-2.826124e-02 2.249112e-01 -0.000000e+00
-8.249834e-01 2.470056e-01 4.303542e-01
-1.705848e+00 3.592202e-01 9.001791e-01
-2.504535e+00 2.607205e-01 1.339813e+00
-2.761267e+00 -1.776012e-01 1.508827e+00
-2.330119e+00 -5.682600e-01 1.301733e+00
-1.528233e+00 -6.507370e-01 8.726927e-01
-6.860753e-01 -5.805715e-01 4.114267e-01
6.020045e-02 -4.790926e-01 -0.000000e+00
7.843219e-02 -3.071653e-01 0.000000e+00
1.187480e-01 -4.723897e-01 -9.913565e-04
1.951088e-01 -7.760650e-01 -1.616043e-03
1.949659e-01 -7.898695e-01 -3.557456e-03
4.942686e-02 -2.466650e-01 -7.175950e-03
-1.110716e-01 3.649314e-01 -9.469105e-03
-1.748789e-01 6.238556e-01 -8.247995e-03
-1.812128e-01 6.763253e-01 -4.509012e-03
-1.705031e-01 6.677441e-01 0.000000e+00
-1.366912e-02 6.179949e-02 -5.195983e-03
4.638912e-03 3.688781e-03 -3.951214e-03
4.189589e-02 -1.308612e-01 -2.347651e-03
5.331407e-02 -1.885611e-01 -1.621799e-03
1.044944e-02 -6.332326e-02 -3.198338e-03
-3.653480e-02 8.663537e-02 -4.482951e-03
-4.575905e-02 1.234947e-01 -2.009442e-03
-3.582746e-02 1.060005e-01 2.811389e-03
-2.490487e-02 8.751852e-02 6.295897e-03
-1.727539e-01 6.823720e-01 -5.632481e-03
-1.960012e-01 7.981125e-01 -3.845346e-03
-2.282562e-01 9.423496e-01 -1.754517e-03
-1.941578e-01 8.024836e-01 -1.775400e-03
-5.751172e-02 2.305602e-01 -2.743497e-03
9.137738e-02 -3.876193e-01 -1.014733e-03
1.759073e-01 -7.251745e-01 2.457158e-03
2.133322e-01 -8.588398e-01 5.223072e-03
2.241420e-01 -8.848581e-01 6.827915e-03
-1.796865e-01 7.056451e-01 -3.811064e-03
-2.087823e-01 8.498843e-01 -3.106908e-03
-2.558224e-01 1.054606e+00 -2.018299e-03
-2.246686e-01 9.261813e-01 -1.514515e-04
-6.499626e-02 2.655346e-01 1.027884e-03
1.101050e-01 -4.520573e-01 8.854733e-04
2.039667e-01 -8.253236e-01 1.155624e-03
2.410172e-01 -9.591489e-01 2.174035e-03
2.487828e-01 -9.758523e-01 3.032101e-03
1.422661e-06 -5.576997e-06 -3.640763e-04
9.153429e-03 2.333181e-03 -3.602006e-04
1.605015e-02 4.098500e-03 -2.505324e-04
1.452733e-02 3.715062e-03 -1.500723e-04
2.987696e-03 7.651083e-04 6.540493e-06
-7.825390e-03 -1.994269e-03 1.542820e-04
-9.557661e-03 -2.440948e-03 2.501504e-04
-5.232909e-03 -1.338767e-03 2.784677e-04
1.628629e-07 -6.332581e-07 3.074523e-04
1.805537e-01 -7.054351e-01 3.288708e-03
2.242885e-01 -8.459334e-01 2.506647e-03
2.812849e-01 -1.048105e+00 1.520996e-03
2.471611e-01 -9.204285e-01 -1.241461e-04
7.060681e-02 -2.640986e-01 -1.057479e-03
-1.197990e-01 4.495898e-01 -6.733942e-04
-2.165171e-01 8.221193e-01 -7.609604e-04
-2.482690e-01 9.572933e-01 -1.714788e-03
-2.494628e-01 9.756783e-01 -2.553826e-03
1.754710e-01 -6.816888e-01 5.339829e-03
2.107259e-01 -7.943618e-01 3.476019e-03
2.517261e-01 -9.363607e-01 1.430000e-03
2.146855e-01 -7.972371e-01 1.579648e-03
6.047233e-02 -2.298018e-01 2.687000e-03
-1.052813e-01 3.840772e-01 1.087607e-03
-1.930305e-01 7.208046e-01 -2.307590e-03
-2.243796e-01 8.560176e-01 -4.948530e-03
-2.274532e-01 8.840145e-01 -6.554161e-03
1.759043e-02 -6.080664e-02 5.080358e-03
5.905296e-03 -1.004664e-03 3.780738e-03
-2.579445e-02 1.349678e-01 2.203911e-03
-4.338075e-02 1.910994e-01 1.582189e-03
-2.095668e-02 6.064300e-02 3.184619e-03
9.725995e-03 -9.347348e-02 4.478226e-03
1.929420e-02 -1.302492e-01 1.983889e-03
1.955259e-02 -1.101552e-01 -2.751316e-03
2.013570e-02 -8.873269e-02 -6.206545e-03
-7.843066e-02 3.071594e-01 -0.000000e+00
-1.222112e-01 4.714992e-01 9.621602e-04
-2.007366e-01 7.746251e-01 1.557462e-03
-2.074792e-01 7.866764e-01 3.497641e-03
-7.478693e-02 2.401935e-01 7.122293e-03
7.762790e-02 -3.734644e-01 9.386617e-03
1.457851e-01 -6.312812e-01 8.155525e-03
1.653230e-01 -6.803808e-01 4.449907e-03
1.705023e-01 -6.677409e-01 -0.000000e+00
8.303490e-02 -2.109484e-01 0.000000e+00
-6.056130e-01 -6.123158e-01 -4.303744e-01
-1.324887e+00 -1.133121e+00 -9.002160e-01
-2.073098e+00 -1.429605e+00 -1.339882e+00
-2.508534e+00 -1.167932e+00 -1.508869e+00
-2.317379e+00 -6.183141e-01 -1.301724e+00
-1.653076e+00 -1.615132e-01 -8.726331e-01
-8.803230e-01 1.804738e-01 -4.113866e-01
-1.767895e-01 4.491300e-01 0.000000e+00
1.890710e-01 1.194778e-01 -5.581325e-01
3.917882e-02 1.327460e-02 -8.090268e-01
-1.118693e-01 -1.509822e-01 -1.177013e+00
-4.176297e-01 -3.090063e-01 -1.232245e+00
-8.095402e-01 -3.582254e-01 -6.826505e-01
-9.712882e-01 -3.072926e-01 3.618209e-02
-8.276450e-01 -2.282941e-01 4.823279e-01
-5.749519e-01 -1.462749e-01 7.118994e-01
-3.238347e-01 -6.347149e-02 8.245939e-01
-8.514764e-02 4.977642e-01 -4.037269e-01
6.788314e-01 8.870566e-01 -3.198378e-01
1.434473e+00 1.297919e+00 -3.229002e-01
2.096261e+00 1.457917e+00 -1.133599e-01
2.355216e+00 1.118874e+00 4.171406e-01
2.067698e+00 5.164510e-01 8.521628e-01
1.439858e+00 -3.178160e-03 9.232424e-01
7.379601e-01 -3.877977e-01 8.015961e-01
9.035921e-02 -6.640799e-01 6.233082e-01
-2.286560e-01 4.593672e-01 3.542542e-01
6.765706e-01 9.261831e-01 5.523373e-01
1.564770e+00 1.436681e+00 7.770211e-01
2.441293e+00 1.691122e+00 8.302641e-01
2.957185e+00 1.384439e+00 5.572585e-01
2.773155e+00 7.434951e-01 1.537247e-01
2.040165e+00 1.536452e-01 -1.472704e-01
1.152751e+00 -3.041769e-01 -3.436702e-01
3.179324e-01 -6.468030e-01 -4.690149e-01
1.387514e-03 -3.516972e-03 7.956439e-01
5.128318e-03 -2.908825e-03 9.808943e-01
8.761497e-03 4.265638e-04 1.259031e+00
7.051514e-03 7.983331e-03 1.138228e+00
-8.838426e-04 1.003088e-02 3.604045e-01
-4.936648e-03 3.398783e-03 -4.925289e-01
-2.002985e-03 -2.960631e-03 -9.308249e-01
1.170513e-03 -5.228647e-03 -1.086820e+00
2.108383e-03 -5.367397e-03 -1.106308e+00
2.321701e-01 -4.659700e-01 3.610097e-01
-6.697979e-01 -9.337703e-01 5.594466e-01
-1.559557e+00 -1.442363e+00 7.848191e-01
-2.442184e+00 -1.679437e+00 8.321879e-01
-2.954475e+00 -1.358077e+00 5.517297e-01
-2.759481e+00 -7.271230e-01 1.486451e-01
-2.024724e+00 -1.543893e-01 -1.511643e-01
-1.142963e+00 2.951844e-01 -3.487851e-01
-3.140827e-01 6.351080e-01 -4.745686e-01
9.001251e-02 -5.029964e-01 -3.934916e-01
-6.719496e-01 -8.936931e-01 -3.105752e-01
-1.428061e+00 -1.302322e+00 -3.166031e-01
-2.093779e+00 -1.446211e+00 -1.043231e-01
-2.354956e+00 -1.096253e+00 4.265281e-01
-2.065215e+00 -5.052700e-01 8.498432e-01
-1.435315e+00 -8.308403e-04 9.111089e-01
-7.346581e-01 3.774964e-01 7.870092e-01
-8.973296e-02 6.522669e-01 6.086265e-01
-1.834978e-01 -1.232981e-01 -5.485007e-01
-3.460713e-02 -1.936795e-02 -7.985293e-01
1.168474e-01 1.473758e-01 -1.166397e+00
4.152009e-01 3.165751e-01 -1.224856e+00
7.937095e-01 3.699036e-01 -6.773236e-01
9.524050e-01 3.086879e-01 4.171655e-02
8.158201e-01 2.195204e-01 4.819803e-01
5.696329e-01 1.346964e-01 7.028013e-01
3.224253e-01 5.279595e-02 8.113106e-01
-8.120629e-02 2.063029e-01 -0.000000e+00
5.974204e-01 6.014915e-01 -4.240514e-01
1.305762e+00 1.118640e+00 -8.876119e-01
2.043614e+00 1.427075e+00 -1.324411e+00
2.482539e+00 1.178574e+00 -1.497811e+00
2.304278e+00 6.216719e-01 -1.295759e+00
1.646610e+00 1.528666e-01 -8.676309e-01
8.773860e-01 -1.915954e-01 -4.076754e-01
1.801926e-01 -4.577755e-01 -0.000000e+00
-4.433135e-09 8.114799e-09 0.000000e+00
-9.791125e-01 -5.348916e-01 -6.095004e-01
-2.048514e+00 -1.119108e+00 -1.275206e+00
-3.045522e+00 -1.663776e+00 -1.895847e+00
-3.421450e+00 -1.869147e+00 -2.129863e+00
-2.944952e+00 -1.608835e+00 -1.833241e+00
-1.971577e+00 -1.077077e+00 -1.227312e+00
-9.292193e-01 -5.076348e-01 -5.784417e-01
1.540968e-08 -2.820723e-08 0.000000e+00
2.718488e-01 1.485117e-01 -7.869727e-01
4.701091e-02 2.568220e-02 -1.143319e+00
-2.042177e-01 -1.115646e-01 -1.665377e+00
-6.270763e-01 -3.425733e-01 -1.743128e+00
-1.095617e+00 -5.985386e-01 -9.638323e-01
-1.253490e+00 -6.847845e-01 5.404922e-02
-1.051284e+00 -5.743191e-01 6.841906e-01
-7.253555e-01 -3.962636e-01 1.006671e+00
-4.020185e-01 -2.196237e-01 1.163800e+00
1.273704e-01 6.958278e-02 -5.684144e-01
1.181599e+00 6.455104e-01 -4.512940e-01
2.237138e+00 1.222154e+00 -4.567956e-01
3.075971e+00 1.680411e+00 -1.612667e-01
3.229359e+00 1.764207e+00 5.899148e-01
2.630580e+00 1.437093e+00 1.206789e+00
1.669979e+00 9.123139e-01 1.306839e+00
6.807816e-01 3.719126e-01 1.132789e+00
-1.969716e-01 -1.076060e-01 8.790226e-01
-5.542817e-02 -3.028053e-02 5.026610e-01
1.196240e+00 6.535091e-01 7.819905e-01
2.449406e+00 1.338116e+00 1.098446e+00
3.578720e+00 1.955064e+00 1.173703e+00
4.044886e+00 2.209731e+00 7.886028e-01
3.549770e+00 1.939248e+00 2.181289e-01
2.435321e+00 1.330422e+00 -2.081825e-01
1.197841e+00 6.543835e-01 -4.865918e-01
7.327381e-02 4.002967e-02 -6.644976e-01
3.620946e-06 1.994154e-06 1.125373e+00
-1.785876e-03 -9.755933e-04 1.387331e+00
4.467490e-05 2.441212e-05 1.780671e+00
3.489515e-03 1.906387e-03 1.609673e+00
2.300191e-03 1.256542e-03 5.097643e-01
1.211645e-03 6.619463e-04 -6.966329e-01
3.483931e-03 1.903257e-03 -1.316447e+00
3.291593e-03 1.798149e-03 -1.537088e+00
-5.047571e-06 -2.749491e-06 -1.564801e+00
5.613859e-02 3.066866e-02 5.090734e-01
-1.204101e+00 -6.578033e-01 7.905921e-01
-2.467608e+00 -1.348060e+00 1.110494e+00
-3.593038e+00 -1.962886e+00 1.177510e+00
-4.028595e+00 -2.200832e+00 7.796160e-01
-3.508134e+00 -1.916503e+00 2.095162e-01
-2.399213e+00 -1.310696e+00 -2.140617e-01
-1.181068e+00 -6.452204e-01 -4.929360e-01
-7.388702e-02 -4.036466e-02 -6.700188e-01
-1.252459e-01 -6.842214e-02 -5.589163e-01
-1.187959e+00 -6.489850e-01 -4.400948e-01
-2.250750e+00 -1.229590e+00 -4.473952e-01
-3.082982e+00 -1.684240e+00 -1.465618e-01
-3.217074e+00 -1.757496e+00 6.032470e-01
-2.606750e+00 -1.424074e+00 1.200038e+00
-1.649631e+00 -9.011974e-01 1.287331e+00
-6.720075e-01 -3.671194e-01 1.113787e+00
1.933970e-01 1.056533e-01 8.630439e-01
-2.687502e-01 -1.468189e-01 -7.779860e-01
-5.300655e-02 -2.895759e-02 -1.130057e+00
1.954527e-01 1.067763e-01 -1.648698e+00
6.189853e-01 3.381532e-01 -1.731556e+00
1.086791e+00 5.937168e-01 -9.595593e-01
1.247828e+00 6.816918e-01 5.616021e-02
1.050301e+00 5.737819e-01 6.795059e-01
7.239651e-01 3.955039e-01 9.940416e-01
3.971701e-01 2.169750e-01 1.149740e+00
-3.633538e-09 6.651146e-09 -0.000000e+00
9.619153e-01 5.254967e-01 -5.988055e-01
2.013074e+00 1.099747e+00 -1.253166e+00
3.007085e+00 1.642778e+00 -1.871952e+00
3.408814e+00 1.862244e+00 -2.122034e+00
2.956011e+00 1.614876e+00 -1.840158e+00
1.981814e+00 1.082670e+00 -1.233706e+00
9.316685e-01 5.089728e-01 -5.799765e-01
1.484825e-08 -2.717955e-08 -0.000000e+00
-1.326430e-01 1.838474e-01 0.000000e+00
-8.424600e-01 -1.787701e-01 -4.303744e-01
-1.669328e+00 -5.026264e-01 -9.002160e-01
-2.323071e+00 -9.720331e-01 -1.339882e+00
-2.338147e+00 -1.479822e+00 -1.508869e+00
-1.772378e+00 -1.615930e+00 -1.301724e+00
-1.029070e+00 -1.303750e+00 -8.726331e-01
-3.237770e-01 -8.382767e-01 -4.113865e-01
2.824101e-01 -3.914292e-01 0.000000e+00
2.026926e-01 9.454366e-02 -5.581325e-01
3.233857e-02 2.579557e-02 -8.090268e-01
-1.874904e-01 -1.255873e-02 -1.177013e+00
-4.856660e-01 -1.844664e-01 -1.232245e+00
-7.388327e-01 -4.876546e-01 -6.826504e-01
-7.833670e-01 -6.512799e-01 3.618206e-02
-6.392813e-01 -5.730915e-01 4.823279e-01
-4.337339e-01 -4.047728e-01 7.118994e-01
-2.283781e-01 -2.382038e-01 8.245939e-01
3.728487e-01 -3.405924e-01 -4.037269e-01
1.113207e+00 9.193825e-02 -3.198378e-01
1.867211e+00 5.057987e-01 -3.229002e-01
2.359410e+00 9.762270e-01 -1.133599e-01
2.214028e+00 1.377315e+00 4.171406e-01
1.551760e+00 1.460868e+00 8.521628e-01
7.752842e-01 1.213316e+00 9.232425e-01
7.240101e-02 8.305000e-01 8.015962e-01
-5.099827e-01 4.348386e-01 6.233082e-01
2.630008e-01 -4.406045e-01 3.542542e-01
1.144909e+00 6.889582e-02 5.523373e-01
2.054374e+00 5.404662e-01 7.770211e-01
2.742066e+00 1.140560e+00 8.302641e-01
2.762739e+00 1.740369e+00 5.572585e-01
2.123971e+00 1.931817e+00 1.537247e-01
1.231594e+00 1.633724e+00 -1.472705e-01
3.668779e-01 1.134354e+00 -3.436702e-01
-3.724864e-01 6.170001e-01 -4.690149e-01
-2.209762e-03 3.067795e-03 7.956439e-01
3.231453e-04 5.887035e-03 9.808943e-01
5.092771e-03 7.142070e-03 1.259031e+00
1.052772e-02 1.620338e-03 1.138228e+00
7.963058e-03 -6.163592e-03 3.604045e-01
1.927781e-04 -5.990311e-03 -4.925289e-01
-3.573552e-03 -8.590956e-05 -9.308249e-01
-3.767258e-03 3.809983e-03 -1.086820e+00
-3.377372e-03 4.674198e-03 -1.106308e+00
-2.666582e-01 4.471291e-01 3.610097e-01
-1.147634e+00 -5.909719e-02 5.594466e-01
-2.056339e+00 -5.330101e-01 7.848191e-01
-2.732715e+00 -1.147623e+00 8.321879e-01
-2.739092e+00 -1.752333e+00 5.517297e-01
-2.102807e+00 -1.929157e+00 1.486451e-01
-1.223877e+00 -1.620330e+00 -1.511643e-01
-3.691566e-01 -1.121259e+00 -3.487851e-01
3.647253e-01 -6.074417e-01 -4.745686e-01
-3.746229e-01 3.475131e-01 -3.934917e-01
-1.115073e+00 -8.256166e-02 -3.105752e-01
-1.867451e+00 -4.980240e-01 -3.166031e-01
-2.348218e+00 -9.804625e-01 -1.043231e-01
-2.194853e+00 -1.389319e+00 4.265280e-01
-1.541011e+00 -1.464820e+00 8.498432e-01
-7.762032e-01 -1.207327e+00 9.111089e-01
-7.928518e-02 -8.221556e-01 7.870092e-01
5.003807e-01 -4.279289e-01 6.086265e-01
-2.028961e-01 -8.778979e-02 -5.485007e-01
-3.499590e-02 -1.865632e-02 -7.985293e-01
1.871454e-01 1.869626e-02 -1.166397e+00
4.907228e-01 1.783334e-01 -1.224856e+00
7.401062e-01 4.680237e-01 -6.773237e-01
7.743385e-01 6.346364e-01 4.171655e-02
6.255095e-01 5.678815e-01 4.819803e-01
4.211171e-01 4.065528e-01 7.028013e-01
2.186334e-01 2.427857e-01 8.113106e-01
1.297219e-01 -1.797986e-01 -0.000000e+00
8.289253e-01 1.777247e-01 -4.240514e-01
1.646809e+00 4.943568e-01 -8.876119e-01
2.305011e+00 9.485904e-01 -1.324411e+00
2.333058e+00 1.452199e+00 -1.497811e+00
1.768126e+00 1.603092e+00 -1.295759e+00
1.018300e+00 1.302980e+00 -8.676309e-01
3.128318e-01 8.418142e-01 -4.076754e-01
-2.878463e-01 3.989640e-01 -0.000000e+00
-2.160936e-01 2.319606e-01 0.000000e+00
-3.333424e-01 3.551562e-01 -9.913589e-04
-5.476184e-01 5.834881e-01 -1.616047e-03
-5.593117e-01 5.908265e-01 -3.557456e-03
-1.808560e-01 1.748649e-01 -7.175940e-03
2.470669e-01 -2.906368e-01 -9.469091e-03
4.304690e-01 -4.842262e-01 -8.247989e-03
4.711985e-01 -5.179054e-01 -4.509008e-03
4.697641e-01 -5.042571e-01 0.000000e+00
4.461699e-02 -4.489256e-02 -5.195975e-03
5.610402e-03 1.910478e-03 -3.951218e-03
-8.747950e-02 1.059588e-01 -2.347640e-03