<?xml version="1.0"?>
<VTKFile type="StructuredGrid" version="0.1">
  <StructuredGrid WholeExtent="0 8 0 8 0 8">
    <Piece Extent="0 8 0 8 0 8">
      <PointData Scalars="temperature" Vectors="velocity">
        <DataArray type="Float32" Name="temperature" format="ascii">
1.000000e+00
9.495876e-01
8.318567e-01
7.151347e-01
6.065000e-01
4.663690e-01
3.341546e-01
2.020090e-01
0.000000e+00
1.000000e+00
9.485046e-01
8.287291e-01
7.064648e-01
5.879141e-01
4.574879e-01
3.310797e-01
2.007124e-01
0.000000e+00
1.000000e+00
9.465284e-01
8.230142e-01
6.901998e-01
5.549850e-01
4.427926e-01
3.257778e-01
1.983639e-01
0.000000e+00
1.000000e+00
9.461944e-01
8.219728e-01
6.869714e-01
5.485387e-01
4.401234e-01
3.248192e-01
1.979382e-01
0.000000e+00
1.000000e+00
9.480161e-01
8.271537e-01
7.014257e-01
5.768032e-01
4.526176e-01
3.294676e-01
2.000290e-01
0.000000e+00
1.000000e+00
9.498246e-01
8.321709e-01
7.149648e-01
6.052826e-01
4.661109e-01
3.342966e-01
2.021423e-01
0.000000e+00
1.000000e+00
9.495002e-01
8.311946e-01
7.121009e-01
5.987553e-01
4.630449e-01
3.332644e-01
2.017101e-01
0.000000e+00
1.000000e+00
9.475386e-01
8.255717e-01
6.962916e-01
5.657203e-01
4.478508e-01
3.278588e-01
1.993553e-01
0.000000e+00
1.000000e+00
9.463553e-01
8.221987e-01
6.866966e-01
5.472219e-01
4.397624e-01
3.248368e-01
1.979743e-01
0.000000e+00
1.000000e+00
9.491223e-01
8.305063e-01
7.112561e-01
5.977833e-01
4.621866e-01
3.327266e-01
2.014081e-01
0.000000e+00
1.000000e+00
9.483711e-01
8.283111e-01
7.050854e-01
5.846832e-01
4.559970e-01
3.305748e-01
2.005056e-01
0.000000e+00
1.000000e+00
9.469732e-01
8.242758e-01
6.936182e-01
5.613820e-01
4.455654e-01
3.268226e-01
1.988440e-01
0.000000e+00
1.000000e+00
9.467370e-01
8.235436e-01
6.913649e-01
5.568126e-01
4.436439e-01
3.261411e-01
1.985423e-01
0.000000e+00
1.000000e+00
9.480262e-01
8.272024e-01
7.015208e-01
5.768333e-01
4.525634e-01
3.294354e-01
2.000200e-01
0.000000e+00
1.000000e+00
9.493038e-01
8.307518e-01
7.111610e-01
5.969438e-01
4.620196e-01
3.328400e-01
2.015148e-01
0.000000e+00
1.000000e+00
9.490745e-01
8.300582e-01
7.091058e-01
5.923373e-01
4.598859e-01
3.321147e-01
2.012100e-01
0.000000e+00
1.000000e+00
9.476881e-01
8.260792e-01
6.978918e-01
5.689886e-01
4.491828e-01
3.282980e-01
1.995462e-01
0.000000e+00
1.000000e+00
9.468368e-01
8.236797e-01
6.911459e-01
5.558611e-01
4.433736e-01
3.261407e-01
1.985556e-01
0.000000e+00
1.000000e+00
9.479877e-01
8.271583e-01
7.014863e-01
5.767834e-01
4.524944e-01
3.293715e-01
1.999720e-01
0.000000e+00
1.000000e+00
9.480375e-01
8.272398e-01
7.015988e-01
5.768544e-01
4.525104e-01
3.294035e-01
2.000179e-01
0.000000e+00
1.000000e+00
9.480333e-01
8.272294e-01
7.015735e-01
5.768489e-01
4.525323e-01
3.294161e-01
2.000169e-01
0.000000e+00
1.000000e+00
9.480312e-01
8.272234e-01
7.015576e-01
5.768456e-01
4.525462e-01
3.294231e-01
2.000168e-01
0.000000e+00
1.000000e+00
9.480364e-01
8.272511e-01
7.016160e-01
5.768633e-01
4.525093e-01
3.294032e-01
2.000110e-01
0.000000e+00
1.000000e+00
9.480314e-01
8.272237e-01
7.015580e-01
5.768460e-01
4.525465e-01
3.294233e-01
2.000169e-01
0.000000e+00
1.000000e+00
9.480335e-01
8.272298e-01
7.015740e-01
5.768494e-01
4.525327e-01
3.294164e-01
2.000170e-01
0.000000e+00
1.000000e+00
9.480376e-01
8.272400e-01
7.015990e-01
5.768546e-01
4.525106e-01
3.294037e-01
2.000181e-01
0.000000e+00
1.000000e+00
9.479877e-01
8.271584e-01
7.014863e-01
5.767834e-01
4.524945e-01
3.293717e-01
1.999721e-01
0.000000e+00
1.000000e+00
9.468368e-01
8.236796e-01
6.911458e-01
5.558610e-01
4.433736e-01
3.261408e-01
1.985557e-01
0.000000e+00
1.000000e+00
9.476880e-01
8.260790e-01
6.978915e-01
5.689884e-01
4.491827e-01
3.282979e-01
1.995462e-01
0.000000e+00
1.000000e+00
9.490743e-01
8.300579e-01
7.091054e-01
5.923368e-01
4.598854e-01
3.321144e-01
2.012098e-01
0.000000e+00
1.000000e+00
9.493037e-01
8.307515e-01
7.111606e-01
5.969434e-01
4.620192e-01
3.328397e-01
2.015147e-01
0.000000e+00
1.000000e+00
9.480262e-01
8.272024e-01
7.015208e-01
5.768333e-01
4.525634e-01
3.294354e-01
2.000200e-01
0.000000e+00
1.000000e+00
9.467372e-01
8.235439e-01
6.913653e-01
5.568131e-01
4.436443e-01
3.261414e-01
1.985425e-01
0.000000e+00
1.000000e+00
9.469734e-01
8.242761e-01
6.936187e-01
5.613825e-01
4.455658e-01
3.268230e-01
1.988442e-01
0.000000e+00
1.000000e+00
9.483712e-01
8.283113e-01
7.050856e-01
5.846834e-01
4.559972e-01
3.305749e-01
2.005056e-01
0.000000e+00
1.000000e+00
9.491223e-01
8.305064e-01
7.112561e-01
5.977833e-01
4.621865e-01
3.327265e-01
2.014080e-01
0.000000e+00
1.000000e+00
9.463552e-01
8.221986e-01
6.866964e-01
5.472219e-01
4.397626e-01
3.248373e-01
1.979747e-01
0.000000e+00
1.000000e+00
9.475385e-01
8.255715e-01
6.962914e-01
5.657201e-01
4.478508e-01
3.278589e-01
1.993554e-01
0.000000e+00
1.000000e+00
9.495001e-01
8.311942e-01
7.121004e-01
5.987548e-01
4.630444e-01
3.332640e-01
2.017099e-01
0.000000e+00
1.000000e+00
9.498245e-01
8.321706e-01
7.149644e-01
6.052821e-01
4.661105e-01
3.342963e-01
2.021421e-01
0.000000e+00
1.000000e+00
9.480161e-01
8.271537e-01
7.014257e-01
5.768032e-01
4.526176e-01
3.294676e-01
2.000290e-01
0.000000e+00
1.000000e+00
9.461945e-01
8.219732e-01
6.869719e-01
5.485392e-01
4.401238e-01
3.248195e-01
1.979384e-01
0.000000e+00
1.000000e+00
9.465286e-01
8.230146e-01
6.902003e-01
5.549855e-01
4.427930e-01
3.257782e-01
1.983641e-01
0.000000e+00
1.000000e+00
9.485047e-01
8.287293e-01
7.064650e-01
5.879143e-01
4.574879e-01
3.310796e-01
2.007122e-01
0.000000e+00
1.000000e+00
9.495876e-01
8.318567e-01
7.151348e-01
6.065000e-01
4.663686e-01
3.341541e-01
2.020086e-01
0.000000e+00
1.000000e+00
9.468368e-01
8.236796e-01
6.911458e-01
5.558610e-01
4.433736e-01
3.261408e-01
1.985557e-01
0.000000e+00
1.000000e+00
9.476880e-01
8.260790e-01
6.978915e-01
5.689884e-01
4.491827e-01
3.282979e-01
1.995462e-01
0.000000e+00
1.000000e+00
9.490743e-01
8.300579e-01
7.091054e-01
5.923368e-01
4.598854e-01
3.321144e-01
2.012098e-01
0.000000e+00
1.000000e+00
9.493037e-01
8.307515e-01
7.111606e-01
5.969434e-01
4.620192e-01
3.328397e-01
2.015147e-01
0.000000e+00
1.000000e+00
9.480262e-01
8.272024e-01
7.015208e-01
5.768333e-01
4.525634e-01
3.294354e-01
2.000200e-01
0.000000e+00
1.000000e+00
9.467372e-01
8.235439e-01
6.913653e-01
5.568131e-01
4.436443e-01
3.261414e-01
1.985425e-01
0.000000e+00
1.000000e+00
9.469734e-01
8.242761e-01
6.936187e-01
5.613825e-01
4.455658e-01
3.268230e-01
1.988442e-01
0.000000e+00
1.000000e+00
9.483712e-01
8.283113e-01
7.050856e-01
5.846834e-01
4.559972e-01
3.305749e-01
2.005056e-01
0.000000e+00
1.000000e+00
9.491223e-01
8.305064e-01
7.112561e-01
5.977833e-01
4.621865e-01
3.327265e-01
2.014080e-01
0.000000e+00
1.000000e+00
9.479877e-01
8.271583e-01
7.014863e-01
5.767834e-01
4.524944e-01
3.293715e-01
1.999720e-01
0.000000e+00
1.000000e+00
9.480375e-01
8.272398e-01
7.015988e-01
5.768544e-01
4.525104e-01
3.294035e-01
2.000179e-01
0.000000e+00
1.000000e+00
9.480333e-01
8.272294e-01
7.015735e-01
5.768489e-01
4.525323e-01
3.294161e-01
2.000169e-01
0.000000e+00
1.000000e+00
9.480312e-01
8.272234e-01
7.015576e-01
5.768456e-01
4.525462e-01
3.294231e-01
2.000168e-01
0.000000e+00
1.000000e+00
9.480364e-01
8.272511e-01
7.016160e-01
5.768633e-01
4.525093e-01
3.294032e-01
2.000110e-01
0.000000e+00
1.000000e+00
9.480314e-01
8.272237e-01
7.015580e-01
5.768460e-01
4.525465e-01
3.294233e-01
2.000169e-01
0.000000e+00
1.000000e+00
9.480335e-01
8.272298e-01
7.015740e-01
5.768494e-01
4.525327e-01
3.294164e-01
2.000170e-01
0.000000e+00
1.000000e+00
9.480376e-01
8.272400e-01
7.015990e-01
5.768546e-01
4.525106e-01
3.294037e-01
2.000181e-01
0.000000e+00
1.000000e+00
9.479877e-01
8.271584e-01
7.014863e-01
5.767834e-01
4.524945e-01
3.293717e-01
1.999721e-01
0.000000e+00
1.000000e+00
9.491223e-01
8.305063e-01
7.112561e-01
5.977833e-01
4.621866e-01
3.327266e-01
2.014081e-01
0.000000e+00
1.000000e+00
9.483711e-01
8.283111e-01
7.050854e-01
5.846832e-01
4.559970e-01
3.305748e-01
2.005056e-01
0.000000e+00
1.000000e+00
9.469732e-01
8.242758e-01
6.936182e-01
5.613820e-01
4.455654e-01
3.268226e-01
1.988440e-01
0.000000e+00
1.000000e+00
9.467370e-01
8.235436e-01
6.913649e-01
5.568126e-01
4.436439e-01
3.261411e-01
1.985423e-01
0.000000e+00
1.000000e+00
9.480262e-01
8.272024e-01
7.015208e-01
5.768333e-01
4.525634e-01
3.294354e-01
2.000200e-01
0.000000e+00
1.000000e+00
9.493038e-01
8.307518e-01
7.111610e-01
5.969438e-01
4.620196e-01
3.328400e-01
2.015148e-01
0.000000e+00
1.000000e+00
9.490745e-01
8.300582e-01
7.091058e-01
5.923373e-01
4.598859e-01
3.321147e-01
2.012100e-01
0.000000e+00
1.000000e+00
9.476881e-01
8.260792e-01
6.978918e-01
5.689886e-01
4.491828e-01
3.282980e-01
1.995462e-01
0.000000e+00
1.000000e+00
9.468368e-01
8.236797e-01
6.911459e-01
5.558611e-01
4.433736e-01
3.261407e-01
1.985556e-01
0.000000e+00
1.000000e+00
9.495876e-01
8.318567e-01
7.151347e-01
6.065000e-01
4.663690e-01
3.341546e-01
2.020090e-01
0.000000e+00
1.000000e+00
9.485046e-01
8.287291e-01
7.064648e-01
5.879141e-01
4.574879e-01
3.310797e-01
2.007124e-01
0.000000e+00
1.000000e+00
9.465284e-01
8.230142e-01
6.901998e-01
5.549850e-01
4.427926e-01
3.257778e-01
1.983639e-01
0.000000e+00
1.000000e+00
9.461944e-01
8.219728e-01
6.869714e-01
5.485387e-01
4.401234e-01
3.248192e-01
1.979382e-01
0.000000e+00
1.000000e+00
9.480161e-01
8.271537e-01
7.014257e-01
5.768032e-01
4.526176e-01
3.294676e-01
2.000290e-01
0.000000e+00
1.000000e+00
9.498246e-01
8.321709e-01
7.149648e-01
6.052826e-01
4.661109e-01
3.342966e-01
2.021423e-01
0.000000e+00
1.000000e+00
9.495002e-01
8.311946e-01
7.121009e-01
5.987553e-01
4.630449e-01
3.332644e-01
2.017101e-01
0.000000e+00
1.000000e+00
9.475386e-01
8.255717e-01
6.962916e-01
5.657203e-01
4.478508e-01
3.278588e-01
1.993553e-01
0.000000e+00
1.000000e+00
9.463553e-01
8.221987e-01
6.866966e-01
5.472219e-01
4.397624e-01
3.248368e-01
1.979743e-01
0.000000e+00
        </DataArray>
        <DataArray type="Float32" Name="velocity" NumberOfComponents="3" format="ascii">
0.000000e+00 0.000000e+00 0.000000e+00
1.132173e+00 0.000000e+00 6.185035e-01
2.348717e+00 0.000000e+00 1.283099e+00
3.481341e+00 0.000000e+00 1.901848e+00
3.940546e+00 0.000000e+00 2.152711e+00
3.437478e+00 0.000000e+00 1.877886e+00
2.327454e+00 0.000000e+00 1.271483e+00
1.102683e+00 0.000000e+00 6.023935e-01
0.000000e+00 0.000000e+00 0.000000e+00
-3.204841e-01 0.000000e+00 8.141918e-01
-7.075989e-02 0.000000e+00 1.165798e+00
2.180346e-01 0.000000e+00 1.670791e+00
7.029570e-01 0.000000e+00 1.736317e+00
1.230972e+00 0.000000e+00 9.775476e-01
1.423322e+00 0.000000e+00 -3.299342e-02
1.217331e+00 0.000000e+00 -6.871527e-01
8.532430e-01 0.000000e+00 -1.034806e+00
4.737669e-01 0.000000e+00 -1.203608e+00
-1.484622e-01 0.000000e+00 5.814341e-01
-1.419332e+00 0.000000e+00 4.461669e-01
-2.664533e+00 0.000000e+00 4.342769e-01
-3.620037e+00 0.000000e+00 1.194269e-01
-3.775054e+00 0.000000e+00 -6.166916e-01
-3.079968e+00 0.000000e+00 -1.209334e+00
-1.966867e+00 0.000000e+00 -1.316823e+00
-8.073284e-01 0.000000e+00 -1.156859e+00
2.298539e-01 0.000000e+00 -9.001945e-01
6.814726e-02 0.000000e+00 -5.423517e-01
-1.436808e+00 0.000000e+00 -8.315182e-01
-2.918726e+00 0.000000e+00 -1.147666e+00
-4.212298e+00 0.000000e+00 -1.203316e+00
-4.707550e+00 0.000000e+00 -8.047042e-01
-4.117771e+00 0.000000e+00 -2.287369e-01
-2.841297e+00 0.000000e+00 2.175666e-01
-1.409443e+00 0.000000e+00 5.204442e-01
-8.930010e-02 0.000000e+00 7.106972e-01
-4.371563e-06 0.000000e+00 -1.190122e+00
-2.195730e-03 0.000000e+00 -1.449909e+00
7.348223e-05 0.000000e+00 -1.823474e+00
4.362247e-03 0.000000e+00 -1.626942e+00
3.306942e-03 0.000000e+00 -5.343152e-01
2.228346e-03 0.000000e+00 6.792543e-01
4.840201e-03 0.000000e+00 1.346629e+00
4.328624e-03 0.000000e+00 1.609995e+00
6.061801e-06 0.000000e+00 1.650276e+00
-6.721732e-02 0.000000e+00 -5.349191e-01
1.426836e+00 0.000000e+00 -8.216300e-01
2.896561e+00 0.000000e+00 -1.134388e+00
4.195928e+00 0.000000e+00 -1.199043e+00
4.729005e+00 0.000000e+00 -8.142570e-01
4.170319e+00 0.000000e+00 -2.384756e-01
2.887275e+00 0.000000e+00 2.104778e-01
1.431145e+00 0.000000e+00 5.129372e-01
8.848571e-02 0.000000e+00 7.041740e-01
1.512380e-01 0.000000e+00 5.922871e-01
1.411181e+00 0.000000e+00 4.590472e-01
2.647728e+00 0.000000e+00 4.456092e-01
3.611847e+00 0.000000e+00 1.360711e-01
3.790888e+00 0.000000e+00 -6.023083e-01
3.110270e+00 0.000000e+00 -1.216857e+00
1.992870e+00 0.000000e+00 -1.338734e+00
8.185393e-01 0.000000e+00 -1.178797e+00
-2.346218e-01 0.000000e+00 -9.188392e-01
3.244590e-01 0.000000e+00 8.242725e-01
6.302942e-02 0.000000e+00 1.180895e+00
-2.295359e-01 0.000000e+00 1.689727e+00
-7.137294e-01 0.000000e+00 1.750017e+00
-1.242318e+00 0.000000e+00 9.832443e-01
-1.430674e+00 0.000000e+00 -3.056287e-02
-1.219007e+00 0.000000e+00 -6.927475e-01
-8.554186e-01 0.000000e+00 -1.049346e+00
-4.801821e-01 0.000000e+00 -1.219879e+00
0.000000e+00 0.000000e+00 -0.000000e+00
-1.154083e+00 0.000000e+00 6.304841e-01
-2.393082e+00 0.000000e+00 1.307358e+00
-3.529136e+00 0.000000e+00 1.927993e+00
-3.957247e+00 0.000000e+00 2.161873e+00
-3.425336e+00 0.000000e+00 1.871286e+00
-2.315547e+00 0.000000e+00 1.265000e+00
-1.099787e+00 0.000000e+00 6.008215e-01
0.000000e+00 0.000000e+00 -0.000000e+00
2.776168e-02 -2.209355e-01 0.000000e+00
8.381009e-01 -2.386958e-01 4.380228e-01
1.720268e+00 -3.467144e-01 9.088314e-01
2.514993e+00 -2.604124e-01 1.345479e+00
2.783245e+00 1.535611e-01 1.519076e+00
2.369634e+00 5.496232e-01 1.321860e+00
1.565939e+00 6.584916e-01 8.936436e-01
7.049569e-01 6.033975e-01 4.232087e-01
-6.319687e-02 5.029390e-01 0.000000e+00
-2.315584e-01 3.104847e-02 5.738514e-01
-4.804592e-02 1.170740e-02 8.236512e-01
1.688898e-01 -6.207027e-02 1.181956e+00
5.134727e-01 -7.002276e-02 1.228085e+00
8.685120e-01 5.397704e-02 6.898669e-01
9.849810e-01 1.769055e-01 -2.570368e-02
8.357698e-01 1.919656e-01 -4.875332e-01
5.842693e-01 1.514184e-01 -7.315693e-01
3.237132e-01 1.045604e-01 -8.490970e-01
-1.701613e-01 5.163833e-01 4.090801e-01
-1.067629e+00 4.875829e-01 3.146012e-01
-1.949751e+00 4.721016e-01 3.071565e-01
-2.606770e+00 2.663528e-01 8.508323e-02
-2.670261e+00 -1.683068e-01 -4.362227e-01
-2.132462e+00 -5.544103e-01 -8.564703e-01
-1.319970e+00 -7.115797e-01 -9.319793e-01
-4.892920e-01 -7.196381e-01 -8.172145e-01
2.452162e-01 -6.521382e-01 -6.344443e-01
-2.041580e-02 5.503794e-01 -3.848894e-01
-1.083834e+00 5.212447e-01 -5.886574e-01
-2.136690e+00 5.281511e-01 -8.112754e-01
-3.031569e+00 2.999912e-01 -8.506020e-01
-3.327247e+00 -2.260803e-01 -5.694528e-01
-2.856137e+00 -6.901754e-01 -1.622372e-01
-1.925202e+00 -8.590556e-01 1.538150e-01
-9.026501e-01 -8.446339e-01 3.684723e-01
2.991548e-02 -7.455709e-01 5.035501e-01
-5.417499e-04 4.286606e-03 -8.416280e-01
3.610245e-03 5.583570e-03 -1.025361e+00
8.889205e-03 4.073352e-03 -1.289486e+00
1.111950e-02 -4.055911e-03 -1.150523e+00
4.773414e-03 -1.006557e-02 -3.778258e-01
-2.493736e-03 -5.926525e-03 4.804395e-01
-3.249566e-03 1.744148e-03 9.522873e-01
-1.595075e-03 5.804077e-03 1.138482e+00
-8.146657e-04 6.517728e-03 1.166996e+00
2.033017e-02 -5.418340e-01 -3.770642e-01
1.086574e+00 -5.102512e-01 -5.804434e-01
2.139382e+00 -5.203056e-01 -8.025437e-01
3.037854e+00 -3.117522e-01 -8.483193e-01
3.344473e+00 2.024650e-01 -5.753159e-01
2.878371e+00 6.814263e-01 -1.680635e-01
1.940150e+00 8.676977e-01 1.490276e-01
9.076103e-01 8.587758e-01 3.623734e-01
-3.247337e-02 7.593454e-01 4.969898e-01
1.721812e-01 -5.084806e-01 4.207747e-01
1.070852e+00 -4.774908e-01 3.253213e-01
1.953890e+00 -4.648593e-01 3.149404e-01
2.615595e+00 -2.764329e-01 9.557883e-02
2.682641e+00 1.469083e-01 -4.259298e-01
2.141042e+00 5.447939e-01 -8.591200e-01
1.322425e+00 7.176313e-01 -9.457671e-01
4.869344e-01 7.315436e-01 -8.341636e-01
-2.511580e-01 6.642513e-01 -6.515986e-01
2.349945e-01 -2.419068e-02 5.846722e-01
4.919780e-02 -3.399261e-03 8.356404e-01
-1.663521e-01 6.779443e-02 1.194256e+00
-5.125109e-01 6.127568e-02 1.237159e+00
-8.781309e-01 -7.342155e-02 6.966047e-01
-1.002897e+00 -1.883836e-01 -1.943992e-02
-8.524364e-01 -1.900155e-01 -4.882060e-01
-5.961339e-01 -1.429594e-01 -7.421234e-01
-3.310612e-01 -9.471480e-02 -8.644819e-01
-2.847127e-02 2.265826e-01 -0.000000e+00
-8.519105e-01 2.448070e-01 4.450997e-01
-1.746530e+00 3.501272e-01 9.228498e-01
-2.545099e+00 2.472514e-01 1.362717e+00
-2.803752e+00 -1.771640e-01 1.531826e+00
-2.381837e+00 -5.600529e-01 1.329208e+00
-1.577605e+00 -6.539864e-01 8.996761e-01
-7.140432e-01 -5.941298e-01 4.275100e-01
6.188464e-02 -4.924959e-01 -0.000000e+00
7.891328e-02 -3.090495e-01 0.000000e+00
1.188187e-01 -4.734975e-01 -1.103683e-03
1.931731e-01 -7.707486e-01 -1.922114e-03
1.910366e-01 -7.792300e-01 -4.199299e-03
4.988829e-02 -2.560922e-01 -8.205856e-03
-1.079776e-01 3.438082e-01 -1.068629e-02
-1.758051e-01 6.194999e-01 -9.326945e-03
-1.859606e-01 6.903993e-01 -5.119890e-03
-1.754815e-01 6.872414e-01 0.000000e+00
-1.753644e-02 7.796439e-02 -5.836629e-03
1.085057e-03 2.003214e-02 -4.541211e-03
3.846780e-02 -1.146775e-01 -2.928469e-03
5.013055e-02 -1.756735e-01 -2.277358e-03
9.706110e-03 -6.409013e-02 -3.923779e-03
-3.523584e-02 7.463048e-02 -5.067054e-03
-4.460814e-02 1.116738e-01 -2.126528e-03
-3.478041e-02 9.685099e-02 3.312938e-03
-2.304764e-02 7.867449e-02 7.283023e-03
-1.837537e-01 7.262818e-01 -6.437686e-03
-2.059315e-01 8.407772e-01 -4.500509e-03
-2.349030e-01 9.736388e-01 -2.298098e-03
-1.971263e-01 8.180462e-01 -2.296860e-03
-6.063520e-02 2.432566e-01 -3.146989e-03
8.982601e-02 -3.842829e-01 -1.082520e-03
1.808081e-01 -7.483080e-01 2.894821e-03
2.242329e-01 -9.046693e-01 6.107237e-03
2.373379e-01 -9.377109e-01 7.964747e-03
-1.899268e-01 7.460574e-01 -4.417984e-03
-2.176136e-01 8.887516e-01 -3.607242e-03
-2.610878e-01 1.081636e+00 -2.362895e-03
-2.262084e-01 9.375691e-01 -3.098602e-04
-6.802259e-02 2.793620e-01 1.053020e-03
1.077530e-01 -4.440890e-01 1.060592e-03
2.084790e-01 -8.454251e-01 1.430539e-03
2.520804e-01 -1.004283e+00 2.575798e-03
2.621379e-01 -1.028419e+00 3.551654e-03
1.175389e-06 -4.608873e-06 -3.824304e-04
1.041955e-02 2.656010e-03 -4.002824e-04
1.800553e-02 4.597133e-03 -2.954974e-04
1.617204e-02 4.132338e-03 -1.754515e-04
3.539373e-03 9.070052e-04 -1.336399e-05
-8.387226e-03 -2.138917e-03 1.519055e-04
-1.051973e-02 -2.684422e-03 2.531653e-04
-5.860001e-03 -1.496721e-03 2.888592e-04
1.940139e-07 -7.550638e-07 3.203542e-04
1.909295e-01 -7.458112e-01 3.799000e-03
2.352003e-01 -8.842711e-01 2.937497e-03
2.896373e-01 -1.074348e+00 1.831522e-03
2.513093e-01 -9.311559e-01 -3.363751e-06
7.464827e-02 -2.776651e-01 -1.105386e-03
-1.180330e-01 4.414689e-01 -8.395370e-04
-2.222026e-01 8.419252e-01 -1.046559e-03
-2.601562e-01 1.002221e+00 -2.111115e-03
-2.629408e-01 1.028213e+00 -3.045113e-03
1.868577e-01 -7.254989e-01 6.099170e-03
2.224622e-01 -8.365675e-01 4.064521e-03
2.608909e-01 -9.670085e-01 1.947211e-03
2.195912e-01 -8.123103e-01 2.063718e-03
6.392565e-02 -2.424127e-01 3.067991e-03
-1.050109e-01 3.804105e-01 1.151629e-03
-1.998190e-01 7.434591e-01 -2.763744e-03
-2.367491e-01 9.014760e-01 -5.851876e-03
-2.412143e-01 9.367222e-01 -7.702195e-03
2.194845e-02 -7.684701e-02 5.725855e-03
1.062436e-02 -1.705250e-02 4.342651e-03
-2.106763e-02 1.191142e-01 2.735918e-03
-3.996580e-02 1.782677e-01 2.172528e-03
-2.191113e-02 6.097719e-02 3.853093e-03
5.136433e-03 -8.231106e-02 5.026283e-03
1.465708e-02 -1.193163e-01 2.119183e-03
1.612044e-02 -1.016117e-01 -3.258866e-03
1.751591e-02 -8.008383e-02 -7.219124e-03
-7.891131e-02 3.090417e-01 -0.000000e+00
-1.226671e-01 4.725066e-01 1.067303e-03
-1.998617e-01 7.690367e-01 1.849653e-03
-2.057996e-01 7.754611e-01 4.124411e-03
-7.884895e-02 2.487014e-01 8.122505e-03
7.022153e-02 -3.534436e-01 1.060100e-02
1.429170e-01 -6.278925e-01 9.215674e-03
1.679182e-01 -6.950021e-01 5.052373e-03
1.754807e-01 -6.872380e-01 -0.000000e+00
8.364736e-02 -2.125044e-01 0.000000e+00
-6.303219e-01 -6.232925e-01 -4.451312e-01
-1.364986e+00 -1.144670e+00 -9.229106e-01
-2.115176e+00 -1.437231e+00 -1.362798e+00
-2.545641e+00 -1.188700e+00 -1.531888e+00
-2.358836e+00 -6.503283e-01 -1.329204e+00
-1.697997e+00 -1.823263e-01 -8.996321e-01
-9.113714e-01 1.789734e-01 -4.274697e-01
-1.817365e-01 4.616977e-01 0.000000e+00
1.946656e-01 1.338903e-01 -5.847691e-01
4.146396e-02 2.652353e-02 -8.358271e-01
-1.136471e-01 -1.393250e-01 -1.194477e+00
-4.206410e-01 -2.995477e-01 -1.237306e+00
-8.061236e-01 -3.566247e-01 -6.966179e-01
-9.706735e-01 -3.155494e-01 1.953636e-02
-8.393496e-01 -2.419205e-01 4.882674e-01
-5.917388e-01 -1.604105e-01 7.421296e-01
-3.358836e-01 -7.568789e-02 8.644445e-01
-9.259036e-02 5.287885e-01 -4.211071e-01
7.107222e-01 9.323495e-01 -3.257474e-01
1.491553e+00 1.344590e+00 -3.153327e-01
2.162481e+00 1.496516e+00 -9.584968e-02
2.424266e+00 1.157050e+00 4.258788e-01
2.139760e+00 5.481232e-01 8.592340e-01
1.504252e+00 4.111223e-03 9.458803e-01
7.778239e-01 -4.085794e-01 8.343451e-01
9.800391e-02 -7.033706e-01 6.518103e-01
-2.418485e-01 4.852725e-01 3.764375e-01
7.088355e-01 9.686426e-01 5.797440e-01
1.627783e+00 1.482184e+00 8.020129e-01
2.516162e+00 1.729969e+00 8.480205e-01
3.031791e+00 1.425619e+00 5.752416e-01
2.852418e+00 7.817279e-01 1.682148e-01
2.118357e+00 1.685780e-01 -1.486741e-01
1.208041e+00 -3.185377e-01 -3.618940e-01
3.354912e-01 -6.819923e-01 -4.964695e-01
1.588169e-03 -4.026278e-03 8.408682e-01
5.848311e-03 -3.174044e-03 1.024550e+00
9.755314e-03 6.877975e-04 1.288891e+00
7.812786e-03 8.894892e-03 1.150262e+00
-6.408181e-04 1.112617e-02 3.777861e-01
-5.032138e-03 4.008236e-03 -4.802410e-01
-2.028238e-03 -3.092077e-03 -9.517689e-01
1.378412e-03 -5.860677e-03 -1.137863e+00
2.402120e-03 -6.114232e-03 -1.166354e+00
2.458811e-01 -4.928257e-01 3.842602e-01
-7.011600e-01 -9.769900e-01 5.879744e-01
-1.621657e+00 -1.487779e+00 8.107768e-01
-2.516287e+00 -1.716629e+00 8.503512e-01
-3.027994e+00 -1.396626e+00 5.694293e-01
-2.837099e+00 -7.633822e-01 1.624326e-01
-2.101108e+00 -1.689959e-01 -1.534316e-01
-1.196909e+00 3.085057e-01 -3.679808e-01
-3.311393e-01 6.686757e-01 -5.030293e-01
9.815141e-02 -5.347721e-01 -4.094122e-01
-7.030643e-01 -9.396793e-01 -3.150101e-01
-1.484458e+00 -1.348971e+00 -3.075146e-01
-2.159582e+00 -1.483443e+00 -8.530748e-02
-2.423660e+00 -1.132327e+00 4.362130e-01
-2.136834e+00 -5.355597e-01 8.566158e-01
-1.499191e+00 -8.236269e-03 9.321122e-01
-7.741738e-01 3.970100e-01 8.173997e-01
-9.740465e-02 6.898980e-01 6.346487e-01
-1.883652e-01 -1.382763e-01 -5.739441e-01
-3.648277e-02 -3.328160e-02 -8.238327e-01
1.185966e-01 1.355023e-01 -1.182172e+00
4.172615e-01 3.076730e-01 -1.228228e+00
7.883404e-01 3.690768e-01 -6.898862e-01
9.494392e-01 3.170380e-01 2.578737e-02
8.256544e-01 2.322251e-01 4.875820e-01
5.853878e-01 1.473071e-01 7.315621e-01
3.341631e-01 6.353269e-02 8.490485e-01
-8.155865e-02 2.071980e-01 -0.000000e+00
6.211238e-01 6.112940e-01 -4.380623e-01
1.343555e+00 1.129071e+00 -9.089110e-01
2.082412e+00 1.434337e+00 -1.345587e+00
2.516291e+00 1.199574e+00 -1.519170e+00
2.343098e+00 6.536280e-01 -1.321887e+00
1.689892e+00 1.727779e-01 -8.936175e-01
9.078300e-01 -1.914600e-01 -4.231785e-01
1.855897e-01 -4.714866e-01 -0.000000e+00
-4.636700e-09 8.487423e-09 0.000000e+00
-1.012867e+00 -5.533319e-01 -6.305129e-01
-2.100252e+00 -1.147373e+00 -1.307413e+00
-3.097314e+00 -1.692070e+00 -1.928087e+00
-3.472952e+00 -1.897282e+00 -2.161923e+00
-3.005933e+00 -1.642149e+00 -1.871202e+00
-2.031807e+00 -1.109981e+00 -1.264806e+00
-9.649361e-01 -5.271471e-01 -6.006756e-01
3.669920e-09 -6.717744e-09 0.000000e+00
2.847616e-01 1.555660e-01 -8.243541e-01
5.521486e-02 3.016404e-02 -1.181068e+00
-2.016063e-01 -1.101380e-01 -1.689976e+00
-6.265547e-01 -3.422883e-01 -1.750204e+00
-1.090475e+00 -5.957295e-01 -9.832021e-01
-1.255696e+00 -6.859899e-01 3.079290e-02
-1.069809e+00 -5.844394e-01 6.928742e-01
-7.506249e-01 -4.100683e-01 1.049300e+00
-4.213411e-01 -2.301797e-01 1.219737e+00
1.327928e-01 7.254503e-02 -5.926127e-01
1.238269e+00 6.764696e-01 -4.594585e-01
2.323300e+00 1.269224e+00 -4.460332e-01
3.169377e+00 1.731439e+00 -1.363658e-01
3.326525e+00 1.817289e+00 6.022976e-01
2.729113e+00 1.490921e+00 1.217026e+00
1.748527e+00 9.552245e-01 1.338835e+00
7.181184e-01 3.923099e-01 1.178906e+00
-2.059290e-01 -1.124995e-01 9.189969e-01
-5.891521e-02 -3.218551e-02 5.342839e-01
1.252037e+00 6.839910e-01 8.209059e-01
2.541670e+00 1.388521e+00 1.133867e+00
3.681986e+00 2.011478e+00 1.198772e+00
4.149847e+00 2.267072e+00 8.141756e-01
3.659473e+00 1.999179e+00 2.385707e-01
2.533443e+00 1.384026e+00 -2.101458e-01
1.255731e+00 6.860088e-01 -5.124393e-01
7.758995e-02 4.238760e-02 -7.036394e-01
3.826676e-06 2.107870e-06 1.189367e+00
-1.926188e-03 -1.052253e-03 1.449088e+00
6.508577e-05 3.556956e-05 1.822875e+00
3.830155e-03 2.092451e-03 1.626771e+00
2.901171e-03 1.584896e-03 5.342625e-01
1.954972e-03 1.068027e-03 -6.791613e-01
4.230570e-03 2.311131e-03 -1.346098e+00
3.792901e-03 2.072049e-03 -1.609334e+00
-5.327966e-06 -2.886165e-06 -1.649631e+00
5.973797e-02 3.263501e-02 5.417131e-01
-1.260794e+00 -6.887747e-01 8.308170e-01
-2.561122e+00 -1.399147e+00 1.147191e+00
-3.696349e+00 -2.019324e+00 1.203113e+00
-4.131012e+00 -2.256782e+00 8.046944e-01
-3.613352e+00 -1.973983e+00 2.288930e-01
-2.493110e+00 -1.361992e+00 -2.171926e-01
-1.236684e+00 -6.756034e-01 -5.199298e-01
-7.831394e-02 -4.278308e-02 -7.101628e-01
-1.303650e-01 -7.121869e-02 -5.817604e-01
-1.245441e+00 -6.803873e-01 -4.465538e-01
-2.338063e+00 -1.277290e+00 -4.346520e-01
-3.176580e+00 -1.735374e+00 -1.196559e-01
-3.312624e+00 -1.809695e+00 6.167387e-01
-2.702509e+00 -1.476387e+00 1.209546e+00
-1.725698e+00 -9.427529e-01 1.316951e+00
-7.082609e-01 -3.869247e-01 1.156973e+00
2.017554e-01 1.102195e-01 9.003437e-01
-2.812836e-01 -1.536659e-01 -8.142680e-01
-6.202296e-02 -3.388328e-02 -1.165964e+00
1.914799e-01 1.046060e-01 -1.671032e+00
6.170610e-01 3.371020e-01 -1.736500e+00
1.080496e+00 5.902776e-01 -9.775137e-01
1.249236e+00 6.824606e-01 3.320514e-02
1.068336e+00 5.836348e-01 6.872610e-01
7.487280e-01 4.090319e-01 1.034741e+00
4.157242e-01 2.271112e-01 1.203451e+00
-3.864429e-09 7.073789e-09 -0.000000e+00
9.936226e-01 5.428185e-01 -6.185438e-01
2.061288e+00 1.126087e+00 -1.283180e+00
3.055325e+00 1.669131e+00 -1.901982e+00
3.458247e+00 1.889249e+00 -2.152807e+00
3.016553e+00 1.647950e+00 -1.877846e+00
2.042227e+00 1.115674e+00 -1.271314e+00
9.674700e-01 5.285312e-01 -6.022634e-01
2.912513e-09 -5.331319e-09 -0.000000e+00
-1.336214e-01 1.852035e-01 0.000000e+00
-8.650470e-01 -1.936312e-01 -4.451312e-01
-1.700712e+00 -5.301288e-01 -9.229106e-01
-2.352223e+00 -1.003320e+00 -1.362798e+00
-2.375672e+00 -1.499826e+00 -1.531888e+00
-1.821717e+00 -1.633518e+00 -1.329204e+00
-1.070854e+00 -1.330304e+00 -8.996321e-01
-3.418150e-01 -8.635923e-01 -4.274697e-01
2.903126e-01 -4.023823e-01 0.000000e+00
2.178430e-01 9.146431e-02 -5.847691e-01
4.472183e-02 2.056003e-02 -8.358271e-01
-1.786418e-01 -2.035308e-02 -1.194477e+00
-4.793341e-01 -1.921109e-01 -1.237306e+00
-7.356398e-01 -4.856445e-01 -6.966179e-01
-7.899828e-01 -6.463015e-01 1.953636e-02
-6.570716e-01 -5.755782e-01 4.882674e-01
-4.546985e-01 -4.112609e-01 7.421296e-01
-2.451679e-01 -2.417420e-01 8.644445e-01
3.949333e-01 -3.636177e-01 -4.211071e-01
1.168550e+00 9.430154e-02 -3.257474e-01
1.937323e+00 5.286133e-01 -3.153327e-01
2.427668e+00 1.011094e+00 -9.584968e-02
2.283460e+00 1.414793e+00 4.258788e-01
1.617347e+00 1.504393e+00 8.592340e-01
8.162106e-01 1.263563e+00 9.458804e-01
7.645229e-02 8.752726e-01 8.343451e-01
-5.389142e-01 4.625002e-01 6.518103e-01
2.776714e-01 -4.657024e-01 3.764375e-01
1.198070e+00 7.310466e-02 5.797440e-01
2.126709e+00 5.689045e-01 8.020129e-01
2.815207e+00 1.182571e+00 8.480205e-01
2.837701e+00 1.780898e+00 5.752416e-01
2.198969e+00 1.977858e+00 1.682148e-01
1.286407e+00 1.691453e+00 -1.486741e-01
3.846669e-01 1.188638e+00 -3.618940e-01
-3.926101e-01 6.507882e-01 -4.964695e-01
-2.529921e-03 3.511829e-03 8.408682e-01
4.889594e-04 6.636163e-03 1.024550e+00
5.849587e-03 7.837221e-03 1.288891e+00
1.170601e-02 1.768334e-03 1.150262e+00
9.016185e-03 -6.550739e-03 3.777861e-01
6.538654e-04 -6.400048e-03 -4.802410e-01
-3.697675e-03 -3.607071e-05 -9.517689e-01
-4.186824e-03 4.326376e-03 -1.137863e+00
-3.847105e-03 5.324885e-03 -1.166354e+00
-2.818485e-01 4.731767e-01 3.842602e-01
-1.200947e+00 -6.213583e-02 5.879744e-01
-2.128108e+00 -5.607266e-01 8.107768e-01
-2.804049e+00 -1.189884e+00 8.503512e-01
-2.811253e+00 -1.793369e+00 5.694293e-01
-2.175255e+00 -1.974880e+00 1.624326e-01
-1.277438e+00 -1.676712e+00 -1.534316e-01
-3.870940e-01 -1.173851e+00 -3.679808e-01
3.837559e-01 -6.399311e-01 -5.030293e-01
-3.969638e-01 3.715302e-01 -4.094122e-01
-1.170580e+00 -8.389727e-02 -3.150101e-01
-1.937176e+00 -5.202755e-01 -3.075147e-01
-2.415101e+00 -1.015718e+00 -8.530748e-02
-2.262330e+00 -1.427640e+00 4.362130e-01
-1.605194e+00 -1.508720e+00 8.566158e-01
-8.169471e-01 -1.257076e+00 9.321122e-01
-8.421544e-02 -8.659503e-01 8.173997e-01
5.279012e-01 -4.547167e-01 6.346487e-01
-2.181297e-01 -8.379283e-02 -5.739442e-01
-4.771724e-02 -1.271704e-02 -8.238327e-01
1.780992e-01 2.658343e-02 -1.182172e+00
4.843452e-01 1.848771e-01 -1.228228e+00
7.365096e-01 4.639525e-01 -6.898863e-01
7.797625e-01 6.276292e-01 2.578734e-02
6.415137e-01 5.692924e-01 4.875820e-01
4.402411e-01 4.129964e-01 7.315621e-01
2.340100e-01 2.468617e-01 8.490485e-01
1.302848e-01 -1.805788e-01 -0.000000e+00
8.499808e-01 1.923741e-01 -4.380623e-01
1.676006e+00 5.205230e-01 -9.089110e-01
2.332085e+00 9.773140e-01 -1.345587e+00
2.368964e+00 1.469253e+00 -1.519170e+00
1.815990e+00 1.618492e+00 -1.321887e+00
1.058440e+00 1.328643e+00 -8.936175e-01
3.293946e-01 8.673589e-01 -4.231785e-01
-2.964678e-01 4.109136e-01 -0.000000e+00
-2.174191e-01 2.333834e-01 0.000000e+00
-3.342365e-01 3.558143e-01 -1.103683e-03
-5.441908e-01 5.789869e-01 -1.922113e-03
-5.524819e-01 5.817716e-01 -4.199298e-03
-1.885394e-01 1.803468e-01 -8.205843e-03
2.309641e-01 -2.766203e-01 -1.068628e-02
4.263034e-01 -4.826522e-01 -9.326936e-03
4.804761e-01 -5.295048e-01 -5.119887e-03
4.834806e-01 -5.189807e-01 0.000000e+00
5.612978e-02 -5.688073e-02 -5.836629e-03
1.744270e-02 -9.910337e-03 -4.541212e-03
-7.571352e-02 9.433006e-02 -2.928467e-03