<?xml version="1.0"?>
<VTKFile type="StructuredGrid" version="0.1">
  <StructuredGrid WholeExtent="0 8 0 8 0 8">
    <Piece Extent="0 8 0 8 0 8">
      <PointData Scalars="temperature" Vectors="velocity">
        <DataArray type="Float32" Name="temperature" format="ascii">
1.000000e+00
8.750000e-01
7.500000e-01
6.250000e-01
5.500000e-01
3.750000e-01
2.500000e-01
1.250000e-01
0.000000e+00
1.000000e+00
8.750000e-01
7.500000e-01
6.250000e-01
5.191342e-01
3.750000e-01
2.500000e-01
1.250000e-01
0.000000e+00
1.000000e+00
8.750000e-01
7.500000e-01
6.250000e-01
4.646447e-01
3.750000e-01
2.500000e-01
1.250000e-01
0.000000e+00
1.000000e+00
8.750000e-01
7.500000e-01
6.250000e-01
4.538060e-01
3.750000e-01
2.500000e-01
1.250000e-01
0.000000e+00
1.000000e+00
8.750000e-01
7.500000e-01
6.250000e-01
5.000000e-01
3.750000e-01
2.500000e-01
1.250000e-01
0.000000e+00
1.000000e+00
8.750000e-01
7.500000e-01
6.250000e-01
5.461940e-01
3.750000e-01
2.500000e-01
1.250000e-01
0.000000e+00
1.000000e+00
8.750000e-01
7.500000e-01
6.250000e-01
5.353553e-01
3.750000e-01
2.500000e-01
1.250000e-01
0.000000e+00
1.000000e+00
8.750000e-01
7.500000e-01
6.250000e-01
4.808658e-01
3.750000e-01
2.500000e-01
1.250000e-01
0.000000e+00
1.000000e+00
8.750000e-01
7.500000e-01
6.250000e-01
4.500000e-01
3.750000e-01
2.500000e-01
1.250000e-01
0.000000e+00
1.000000e+00
8.750000e-01
7.500000e-01
6.250000e-01
5.353553e-01
3.750000e-01
2.500000e-01
1.250000e-01
0.000000e+00
1.000000e+00
8.750000e-01
7.500000e-01
6.250000e-01
5.135299e-01
3.750000e-01
2.500000e-01
1.250000e-01
0.000000e+00
1.000000e+00
8.750000e-01
7.500000e-01
6.250000e-01
4.750000e-01
3.750000e-01
2.500000e-01
1.250000e-01
0.000000e+00
1.000000e+00
8.750000e-01
7.500000e-01
6.250000e-01
4.673359e-01
3.750000e-01
2.500000e-01
1.250000e-01
0.000000e+00
1.000000e+00
8.750000e-01
7.500000e-01
6.250000e-01
5.000000e-01
3.750000e-01
2.500000e-01
1.250000e-01
0.000000e+00
1.000000e+00
8.750000e-01
7.500000e-01
6.250000e-01
5.326641e-01
3.750000e-01
2.500000e-01
1.250000e-01
0.000000e+00
1.000000e+00
8.750000e-01
7.500000e-01
6.250000e-01
5.250000e-01
3.750000e-01
2.500000e-01
1.250000e-01
0.000000e+00
1.000000e+00
8.750000e-01
7.500000e-01
6.250000e-01
4.864701e-01
3.750000e-01
2.500000e-01
1.250000e-01
0.000000e+00
1.000000e+00
8.750000e-01
7.500000e-01
6.250000e-01
4.646447e-01
3.750000e-01
2.500000e-01
1.250000e-01
0.000000e+00
1.000000e+00
8.750000e-01
7.500000e-01
6.250000e-01
5.000000e-01
3.750000e-01
2.500000e-01
1.250000e-01
0.000000e+00
1.000000e+00
8.750000e-01
7.500000e-01
6.250000e-01
5.000000e-01
3.750000e-01
2.500000e-01
1.250000e-01
0.000000e+00
1.000000e+00
8.750000e-01
7.500000e-01
6.250000e-01
5.000000e-01
3.750000e-01
2.500000e-01
1.250000e-01
0.000000e+00
1.000000e+00
8.750000e-01
7.500000e-01
6.250000e-01
5.000000e-01
3.750000e-01
2.500000e-01
1.250000e-01
0.000000e+00
1.000000e+00
8.750000e-01
7.500000e-01
6.250000e-01
5.000000e-01
3.750000e-01
2.500000e-01
1.250000e-01
0.000000e+00
1.000000e+00
8.750000e-01
7.500000e-01
6.250000e-01
5.000000e-01
3.750000e-01
2.500000e-01
1.250000e-01
0.000000e+00
1.000000e+00
8.750000e-01
7.500000e-01
6.250000e-01
5.000000e-01
3.750000e-01
2.500000e-01
1.250000e-01
0.000000e+00
1.000000e+00
8.750000e-01
7.500000e-01
6.250000e-01
5.000000e-01
3.750000e-01
2.500000e-01
1.250000e-01
0.000000e+00
1.000000e+00
8.750000e-01
7.500000e-01
6.250000e-01
5.000000e-01
3.750000e-01
2.500000e-01
1.250000e-01
0.000000e+00
1.000000e+00
8.750000e-01
7.500000e-01
6.250000e-01
4.646447e-01
3.750000e-01
2.500000e-01
1.250000e-01
0.000000e+00
1.000000e+00
8.750000e-01
7.500000e-01
6.250000e-01
4.864701e-01
3.750000e-01
2.500000e-01
1.250000e-01
0.000000e+00
1.000000e+00
8.750000e-01
7.500000e-01
6.250000e-01
5.250000e-01
3.750000e-01
2.500000e-01
1.250000e-01
0.000000e+00
1.000000e+00
8.750000e-01
7.500000e-01
6.250000e-01
5.326641e-01
3.750000e-01
2.500000e-01
1.250000e-01
0.000000e+00
1.000000e+00
8.750000e-01
7.500000e-01
6.250000e-01
5.000000e-01
3.750000e-01
2.500000e-01
1.250000e-01
0.000000e+00
1.000000e+00
8.750000e-01
7.500000e-01
6.250000e-01
4.673359e-01
3.750000e-01
2.500000e-01
1.250000e-01
0.000000e+00
1.000000e+00
8.750000e-01
7.500000e-01
6.250000e-01
4.750000e-01
3.750000e-01
2.500000e-01
1.250000e-01
0.000000e+00
1.000000e+00
8.750000e-01
7.500000e-01
6.250000e-01
5.135299e-01
3.750000e-01
2.500000e-01
1.250000e-01
0.000000e+00
1.000000e+00
8.750000e-01
7.500000e-01
6.250000e-01
5.353553e-01
3.750000e-01
2.500000e-01
1.250000e-01
0.000000e+00
1.000000e+00
8.750000e-01
7.500000e-01
6.250000e-01
4.500000e-01
3.750000e-01
2.500000e-01
1.250000e-01
0.000000e+00
1.000000e+00
8.750000e-01
7.500000e-01
6.250000e-01
4.808658e-01
3.750000e-01
2.500000e-01
1.250000e-01
0.000000e+00
1.000000e+00
8.750000e-01
7.500000e-01
6.250000e-01
5.353553e-01
3.750000e-01
2.500000e-01
1.250000e-01
0.000000e+00
1.000000e+00
8.750000e-01
7.500000e-01
6.250000e-01
5.461940e-01
3.750000e-01
2.500000e-01
1.250000e-01
0.000000e+00
1.000000e+00
8.750000e-01
7.500000e-01
6.250000e-01
5.000000e-01
3.750000e-01
2.500000e-01
1.250000e-01
0.000000e+00
1.000000e+00
8.750000e-01
7.500000e-01
6.250000e-01
4.538060e-01
3.750000e-01
2.500000e-01
1.250000e-01
0.000000e+00
1.000000e+00
8.750000e-01
7.500000e-01
6.250000e-01
4.646447e-01
3.750000e-01
2.500000e-01
1.250000e-01
0.000000e+00
1.000000e+00
8.750000e-01
7.500000e-01
6.250000e-01
5.191342e-01
3.750000e-01
2.500000e-01
1.250000e-01
0.000000e+00
1.000000e+00
8.750000e-01
7.500000e-01
6.250000e-01
5.500000e-01
3.750000e-01
2.500000e-01
1.250000e-01
0.000000e+00
1.000000e+00
8.750000e-01
7.500000e-01
6.250000e-01
4.646447e-01
3.750000e-01
2.500000e-01
1.250000e-01
0.000000e+00
1.000000e+00
8.750000e-01
7.500000e-01
6.250000e-01
4.864701e-01
3.750000e-01
2.500000e-01
1.250000e-01
0.000000e+00
1.000000e+00
8.750000e-01
7.500000e-01
6.250000e-01
5.250000e-01
3.750000e-01
2.500000e-01
1.250000e-01
0.000000e+00
1.000000e+00
8.750000e-01
7.500000e-01
6.250000e-01
5.326641e-01
3.750000e-01
2.500000e-01
1.250000e-01
0.000000e+00
1.000000e+00
8.750000e-01
7.500000e-01
6.250000e-01
5.000000e-01
3.750000e-01
2.500000e-01
1.250000e-01
0.000000e+00
1.000000e+00
8.750000e-01
7.500000e-01
6.250000e-01
4.673359e-01
3.750000e-01
2.500000e-01
1.250000e-01
0.000000e+00
1.000000e+00
8.750000e-01
7.500000e-01
6.250000e-01
4.750000e-01
3.750000e-01
2.500000e-01
1.250000e-01
0.000000e+00
1.000000e+00
8.750000e-01
7.500000e-01
6.250000e-01
5.135299e-01
3.750000e-01
2.500000e-01
1.250000e-01
0.000000e+00
1.000000e+00
8.750000e-01
7.500000e-01
6.250000e-01
5.353553e-01
3.750000e-01
2.500000e-01
1.250000e-01
0.000000e+00
1.000000e+00
8.750000e-01
7.500000e-01
6.250000e-01
5.000000e-01
3.750000e-01
2.500000e-01
1.250000e-01
0.000000e+00
1.000000e+00
8.750000e-01
7.500000e-01
6.250000e-01
5.000000e-01
3.750000e-01
2.500000e-01
1.250000e-01
0.000000e+00
1.000000e+00
8.750000e-01
7.500000e-01
6.250000e-01
5.000000e-01
3.750000e-01
2.500000e-01
1.250000e-01
0.000000e+00
1.000000e+00
8.750000e-01
7.500000e-01
6.250000e-01
5.000000e-01
3.750000e-01
2.500000e-01
1.250000e-01
0.000000e+00
1.000000e+00
8.750000e-01
7.500000e-01
6.250000e-01
5.000000e-01
3.750000e-01
2.500000e-01
1.250000e-01
0.000000e+00
1.000000e+00
8.750000e-01
7.500000e-01
6.250000e-01
5.000000e-01
3.750000e-01
2.500000e-01
1.250000e-01
0.000000e+00
1.000000e+00
8.750000e-01
7.500000e-01
6.250000e-01
5.000000e-01
3.750000e-01
2.500000e-01
1.250000e-01
0.000000e+00
1.000000e+00
8.750000e-01
7.500000e-01
6.250000e-01
5.000000e-01
3.750000e-01
2.500000e-01
1.250000e-01
0.000000e+00
1.000000e+00
8.750000e-01
7.500000e-01
6.250000e-01
5.000000e-01
3.750000e-01
2.500000e-01
1.250000e-01
0.000000e+00
1.000000e+00
8.750000e-01
7.500000e-01
6.250000e-01
5.353553e-01
3.750000e-01
2.500000e-01
1.250000e-01
0.000000e+00
1.000000e+00
8.750000e-01
7.500000e-01
6.250000e-01
5.135299e-01
3.750000e-01
2.500000e-01
1.250000e-01
0.000000e+00
1.000000e+00
8.750000e-01
7.500000e-01
6.250000e-01
4.750000e-01
3.750000e-01
2.500000e-01
1.250000e-01
0.000000e+00
1.000000e+00
8.750000e-01
7.500000e-01
6.250000e-01
4.673359e-01
3.750000e-01
2.500000e-01
1.250000e-01
0.000000e+00
1.000000e+00
8.750000e-01
7.500000e-01
6.250000e-01
5.000000e-01
3.750000e-01
2.500000e-01
1.250000e-01
0.000000e+00
1.000000e+00
8.750000e-01
7.500000e-01
6.250000e-01
5.326641e-01
3.750000e-01
2.500000e-01
1.250000e-01
0.000000e+00
1.000000e+00
8.750000e-01
7.500000e-01
6.250000e-01
5.250000e-01
3.750000e-01
2.500000e-01
1.250000e-01
0.000000e+00
1.000000e+00
8.750000e-01
7.500000e-01
6.250000e-01
4.864701e-01
3.750000e-01
2.500000e-01
1.250000e-01
0.000000e+00
1.000000e+00
8.750000e-01
7.500000e-01
6.250000e-01
4.646447e-01
3.750000e-01
2.500000e-01
1.250000e-01
0.000000e+00
1.000000e+00
8.750000e-01
7.500000e-01
6.250000e-01
5.500000e-01
3.750000e-01
2.500000e-01
1.250000e-01
0.000000e+00
1.000000e+00
8.750000e-01
7.500000e-01
6.250000e-01
5.191342e-01
3.750000e-01
2.500000e-01
1.250000e-01
0.000000e+00
1.000000e+00
8.750000e-01
7.500000e-01
6.250000e-01
4.646447e-01
3.750000e-01
2.500000e-01
1.250000e-01
0.000000e+00
1.000000e+00
8.750000e-01
7.500000e-01
6.250000e-01
4.538060e-01
3.750000e-01
2.500000e-01
1.250000e-01
0.000000e+00
1.000000e+00
8.750000e-01
7.500000e-01
6.250000e-01
5.000000e-01
3.750000e-01
2.500000e-01
1.250000e-01
0.000000e+00
1.000000e+00
8.750000e-01
7.500000e-01
6.250000e-01
5.461940e-01
3.750000e-01
2.500000e-01
1.250000e-01
0.000000e+00
1.000000e+00
8.750000e-01
7.500000e-01
6.250000e-01
5.353553e-01
3.750000e-01
2.500000e-01
1.250000e-01
0.000000e+00
1.000000e+00
8.750000e-01
7.500000e-01
6.250000e-01
4.808658e-01
3.750000e-01
2.500000e-01
1.250000e-01
0.000000e+00
1.000000e+00
8.750000e-01
7.500000e-01
6.250000e-01
4.500000e-01
3.750000e-01
2.500000e-01
1.250000e-01
0.000000e+00
        </DataArray>
        <DataArray type="Float32" Name="velocity" NumberOfComponents="3" format="ascii">
0.0000e+00 0.0000e+00 0.0000e+00
7.3908e-01 0.0000e+00 4.0376e-01
1.7616e+00 0.0000e+00 9.6235e-01
2.9632e+00 0.0000e+00 1.6188e+00
3.4748e+00 0.0000e+00 1.8983e+00
2.8187e+00 0.0000e+00 1.5399e+00
1.6773e+00 0.0000e+00 9.1632e-01
7.1856e-01 0.0000e+00 3.9255e-01
0.0000e+00 0.0000e+00 0.0000e+00
-1.8113e-01 0.0000e+00 4.6017e-01
-1.7059e-02 0.0000e+00 7.9036e-01
1.7388e-01 0.0000e+00 1.4475e+00
6.1510e-01 0.0000e+00 1.7828e+00
1.2620e+00 0.0000e+00 8.1249e-01
1.3993e+00 0.0000e+00 -3.2520e-01
9.9204e-01 0.0000e+00 -6.4177e-01
5.7742e-01 0.0000e+00 -6.7550e-01
2.8522e-01 0.0000e+00 -7.2460e-01
-8.7286e-02 0.0000e+00 3.4185e-01
-8.2957e-01 0.0000e+00 3.4809e-01
-1.7967e+00 0.0000e+00 5.3482e-01
-2.7840e+00 0.0000e+00 4.2202e-01
-2.9581e+00 0.0000e+00 -5.2778e-01
-2.2059e+00 0.0000e+00 -1.2095e+00
-1.2480e+00 0.0000e+00 -1.0651e+00
-4.6845e-01 0.0000e+00 -7.6325e-01
1.4190e-01 0.0000e+00 -5.5572e-01
3.3506e-02 0.0000e+00 -2.6666e-01
-8.4046e-01 0.0000e+00 -4.8481e-01
-1.9501e+00 0.0000e+00 -8.4636e-01
-3.2252e+00 0.0000e+00 -1.0544e+00
-3.8189e+00 0.0000e+00 -6.1313e-01
-3.1637e+00 0.0000e+00 -2.9034e-02
-1.9327e+00 0.0000e+00 2.0802e-01
-8.6525e-01 0.0000e+00 3.0390e-01
-4.8399e-02 0.0000e+00 3.8518e-01
-2.2819e-06 0.0000e+00 -6.2122e-01
-4.1390e-06 0.0000e+00 -8.9569e-01
-6.5813e-06 0.0000e+00 -1.4887e+00
-7.0251e-06 0.0000e+00 -1.6338e+00
-2.4666e-06 0.0000e+00 -3.3375e-01
2.0431e-06 0.0000e+00 9.2958e-01
4.7101e-06 0.0000e+00 1.1160e+00
2.1880e-06 0.0000e+00 9.9709e-01
3.4358e-06 0.0000e+00 9.3537e-01
-3.3508e-02 0.0000e+00 -2.6666e-01
8.4045e-01 0.0000e+00 -4.8482e-01
1.9500e+00 0.0000e+00 -8.4638e-01
3.2252e+00 0.0000e+00 -1.0544e+00
3.8189e+00 0.0000e+00 -6.1316e-01
3.1637e+00 0.0000e+00 -2.9058e-02
1.9327e+00 0.0000e+00 2.0800e-01
8.6525e-01 0.0000e+00 3.0390e-01
4.8402e-02 0.0000e+00 3.8518e-01
8.7288e-02 0.0000e+00 3.4184e-01
8.2957e-01 0.0000e+00 3.4808e-01
1.7967e+00 0.0000e+00 5.3480e-01
2.7840e+00 0.0000e+00 4.2200e-01
2.9581e+00 0.0000e+00 -5.2780e-01
2.2059e+00 0.0000e+00 -1.2095e+00
1.2480e+00 0.0000e+00 -1.0651e+00
4.6845e-01 0.0000e+00 -7.6325e-01
-1.4190e-01 0.0000e+00 -5.5572e-01
1.8113e-01 0.0000e+00 4.6016e-01
1.7066e-02 0.0000e+00 7.9036e-01
-1.7387e-01 0.0000e+00 1.4475e+00
-6.1508e-01 0.0000e+00 1.7828e+00
-1.2620e+00 0.0000e+00 8.1250e-01
-1.3993e+00 0.0000e+00 -3.2519e-01
-9.9204e-01 0.0000e+00 -6.4177e-01
-5.7742e-01 0.0000e+00 -6.7549e-01
-2.8522e-01 0.0000e+00 -7.2459e-01
0.0000e+00 0.0000e+00 -0.0000e+00
-7.3907e-01 0.0000e+00 4.0376e-01
-1.7616e+00 0.0000e+00 9.6236e-01
-2.9632e+00 0.0000e+00 1.6188e+00
-3.4748e+00 0.0000e+00 1.8983e+00
-2.8187e+00 0.0000e+00 1.5399e+00
-1.6773e+00 0.0000e+00 9.1633e-01
-7.1855e-01 0.0000e+00 3.9255e-01
0.0000e+00 0.0000e+00 -0.0000e+00
2.0360e-02 -1.6203e-01 0.0000e+00
5.5395e-01 -2.1711e-01 2.8547e-01
1.3070e+00 -4.1060e-01 6.8046e-01
2.1642e+00 -4.1646e-01 1.1447e+00
2.4534e+00 1.8273e-01 1.3423e+00
1.9249e+00 6.6860e-01 1.0889e+00
1.1189e+00 6.0694e-01 6.4785e-01
4.5681e-01 4.3833e-01 2.7746e-01
-4.2469e-02 3.3798e-01 0.0000e+00
-1.2615e-01 -2.3318e-02 3.2538e-01
-5.8312e-03 -5.0797e-02 5.5879e-01
1.4174e-01 -1.4274e-01 1.0236e+00
4.5842e-01 -1.5956e-01 1.2606e+00
8.8995e-01 7.4952e-02 5.7458e-01
9.6425e-01 2.6170e-01 -2.3003e-01
6.7880e-01 2.2416e-01 -4.5392e-01
3.9301e-01 1.4684e-01 -4.7760e-01
1.9031e-01 1.0281e-01 -5.1227e-01
-9.4065e-02 2.5367e-01 2.4166e-01
-6.2624e-01 2.7887e-01 2.4610e-01
-1.3277e+00 3.7543e-01 3.7815e-01
-2.0231e+00 3.0972e-01 2.9846e-01
-2.0885e+00 -1.5657e-01 -3.7323e-01
-1.5056e+00 -5.2934e-01 -8.5526e-01
-8.2327e-01 -5.2629e-01 -7.5310e-01
-2.7992e-01 -4.2902e-01 -5.3969e-01
1.4624e-01 -3.5904e-01 -3.9297e-01
-1.2112e-02 2.8647e-01 -1.8860e-01
-6.3933e-01 3.2136e-01 -3.4283e-01
-1.4473e+00 4.5836e-01 -5.9852e-01
-2.3473e+00 3.8883e-01 -7.4552e-01
-2.6946e+00 -2.1444e-01 -4.3353e-01
-2.1677e+00 -6.9201e-01 -2.0499e-02
-1.2933e+00 -6.6953e-01 1.4710e-01
-5.5025e-01 -5.2897e-01 2.1487e-01
1.9722e-02 -4.3148e-01 2.7239e-01
-1.7191e-06 7.3796e-07 -4.3930e-01
-3.4209e-06 8.5903e-09 -6.3338e-01
-4.4267e-06 4.1933e-08 -1.0527e+00
-4.3789e-06 9.6911e-08 -1.1553e+00
-2.9966e-06 1.8209e-09 -2.3594e-01
2.4356e-06 -2.4950e-07 6.5731e-01
3.3668e-06 5.1551e-07 7.8912e-01
1.1245e-06 -4.3675e-07 7.0507e-01
2.5787e-06 -1.0344e-06 6.6145e-01
1.2110e-02 -2.8647e-01 -1.8860e-01
6.3933e-01 -3.2136e-01 -3.4284e-01
1.4473e+00 -4.5836e-01 -5.9853e-01
2.3473e+00 -3.8883e-01 -7.4554e-01
2.6946e+00 2.1444e-01 -4.3355e-01
2.1677e+00 6.9201e-01 -2.0516e-02
1.2933e+00 6.6953e-01 1.4709e-01
5.5025e-01 5.2897e-01 2.1487e-01
-1.9720e-02 4.3148e-01 2.7239e-01
9.4067e-02 -2.5367e-01 2.4166e-01
6.2624e-01 -2.7887e-01 2.4610e-01
1.3277e+00 -3.7543e-01 3.7813e-01
2.0231e+00 -3.0972e-01 2.9844e-01
2.0885e+00 1.5657e-01 -3.7324e-01
1.5056e+00 5.2934e-01 -8.5527e-01
8.2326e-01 5.2629e-01 -7.5310e-01
2.7991e-01 4.2902e-01 -5.3969e-01
-1.4625e-01 3.5904e-01 -3.9297e-01
1.2616e-01 2.3317e-02 3.2538e-01
5.8365e-03 5.0795e-02 5.5879e-01
-1.4173e-01 1.4274e-01 1.0236e+00
-4.5841e-01 1.5957e-01 1.2606e+00
-8.8994e-01 -7.4952e-02 5.7459e-01
-9.6425e-01 -2.6170e-01 -2.3003e-01
-6.7880e-01 -2.2416e-01 -4.5391e-01
-3.9301e-01 -1.4684e-01 -4.7759e-01
-1.9031e-01 -1.0280e-01 -5.1227e-01
-2.0359e-02 1.6203e-01 -0.0000e+00
-5.5395e-01 2.1710e-01 2.8548e-01
-1.3070e+00 4.1060e-01 6.8046e-01
-2.1641e+00 4.1646e-01 1.1447e+00
-2.4534e+00 -1.8273e-01 1.3423e+00
-1.9249e+00 -6.6860e-01 1.0889e+00
-1.1189e+00 -6.0693e-01 6.4785e-01
-4.5681e-01 -4.3833e-01 2.7747e-01
4.2469e-02 -3.3798e-01 -0.0000e+00
5.7117e-02 -2.2369e-01 0.0000e+00
9.9435e-02 -3.8981e-01 -5.3334e-05
1.9949e-01 -7.8164e-01 -5.1941e-05
2.3896e-01 -9.3584e-01 -1.5554e-06
4.3650e-02 -1.7074e-01 2.7728e-05
-1.4819e-01 5.8027e-01 -1.1639e-05
-1.6205e-01 6.3418e-01 -6.3596e-05
-1.3234e-01 5.1771e-01 -7.6073e-05
-1.1912e-01 4.6650e-01 0.0000e+00
2.5910e-03 -1.0059e-02 -5.5523e-05
1.7300e-02 -6.8061e-02 -1.0470e-04
5.5619e-02 -2.1830e-01 -2.8523e-05
7.5333e-02 -2.9536e-01 3.5625e-05
1.2716e-02 -5.0067e-02 -4.4340e-06
-4.8844e-02 1.9112e-01 -4.1288e-05
-4.8247e-02 1.8878e-01 -6.9914e-05
-3.3862e-02 1.3243e-01 1.9498e-05
-2.7402e-02 1.0721e-01 6.4710e-05
-9.2156e-02 3.6106e-01 -1.3926e-04
-1.2415e-01 4.8609e-01 -1.0095e-04
-1.8830e-01 7.3722e-01 -2.5812e-05
-1.9584e-01 7.6664e-01 2.2904e-06
-3.6864e-02 1.4391e-01 2.7377e-05
1.1805e-01 -4.6247e-01 3.5901e-05
1.4679e-01 -5.7487e-01 -1.1903e-05
1.3673e-01 -5.3544e-01 2.7268e-05
1.3101e-01 -5.1315e-01 5.2582e-05
-9.9955e-02 3.9152e-01 -1.2272e-04
-1.3942e-01 5.4614e-01 -1.1779e-04
-2.2227e-01 8.7040e-01 -7.6170e-05
-2.3736e-01 9.2959e-01 -2.9565e-05
-4.3070e-02 1.6879e-01 1.0235e-04
1.4563e-01 -5.7043e-01 9.0991e-05
1.7598e-01 -6.8931e-01 3.8236e-05
1.5966e-01 -6.2522e-01 -8.7312e-06
1.5067e-01 -5.9007e-01 -1.4486e-06
-3.7715e-07 1.4751e-06 -1.3072e-04
-1.9529e-06 -1.7271e-08 -1.0321e-04
1.6727e-06 1.9598e-06 -1.5145e-04
9.4700e-08 6.8975e-07 3.2777e-05
-2.3567e-06 3.9613e-09 5.0409e-05
1.8768e-06 -6.1335e-07 9.9269e-05
1.3814e-06 1.9119e-07 8.9092e-05
-1.9486e-06 -1.0198e-06 -3.8499e-05
4.4127e-07 -1.7284e-06 -1.6718e-05
9.9955e-02 -3.9152e-01 -1.2243e-04
1.3942e-01 -5.4614e-01 -1.1773e-04
2.2227e-01 -8.7040e-01 -7.6159e-05
2.3736e-01 -9.2959e-01 -3.0468e-05
4.3065e-02 -1.6879e-01 1.0416e-04
-1.4562e-01 5.7043e-01 8.9014e-05
-1.7598e-01 6.8931e-01 3.8810e-05
-1.5966e-01 6.2521e-01 -7.4885e-06
-1.5067e-01 5.9007e-01 -2.5501e-06
9.2156e-02 -3.6106e-01 -1.3867e-04
1.2415e-01 -4.8609e-01 -1.0129e-04
1.8830e-01 -7.3722e-01 -2.5653e-05
1.9584e-01 -7.6664e-01 8.6532e-07
3.6860e-02 -1.4391e-01 3.0014e-05
-1.1805e-01 4.6247e-01 3.2973e-05
-1.4679e-01 5.7487e-01 -1.0691e-05
-1.3673e-01 5.3544e-01 2.8520e-05
-1.3101e-01 5.1315e-01 5.0645e-05
-2.5904e-03 1.0057e-02 -5.5417e-05
-1.7300e-02 6.8058e-02 -1.0477e-04
-5.5618e-02 2.1830e-01 -2.9006e-05
-7.5331e-02 2.9536e-01 3.5170e-05
-1.2718e-02 5.0066e-02 -3.1588e-06
4.8844e-02 -1.9112e-01 -4.2615e-05
4.8248e-02 -1.8877e-01 -6.9447e-05
3.3860e-02 -1.3243e-01 2.0187e-05
2.7401e-02 -1.0721e-01 6.3790e-05
-5.7116e-02 2.2369e-01 -0.0000e+00
-9.9434e-02 3.8981e-01 -5.3262e-05
-1.9949e-01 7.8164e-01 -5.1954e-05
-2.3896e-01 9.3584e-01 -1.8187e-06
-4.3651e-02 1.7074e-01 2.8003e-05
1.4819e-01 -5.8027e-01 -1.1585e-05
1.6205e-01 -6.3417e-01 -6.4428e-05
1.3234e-01 -5.1771e-01 -7.5428e-05
1.1912e-01 -4.6649e-01 -0.0000e+00
5.9766e-02 -1.5183e-01 0.0000e+00
-3.8211e-01 -4.5606e-01 -2.8550e-01
-9.5014e-01 -9.8704e-01 -6.8049e-01
-1.6996e+00 -1.4031e+00 -1.1447e+00
-2.2407e+00 -1.0158e+00 -1.3423e+00
-2.0098e+00 -3.3596e-01 -1.0889e+00
-1.2730e+00 -3.6338e-03 -6.4781e-01
-6.1094e-01 1.6555e-01 -2.7744e-01
-1.2467e-01 3.1672e-01 0.0000e+00
1.2187e-01 4.0142e-02 -3.2546e-01
2.9423e-02 -4.1783e-02 -5.5892e-01
-5.6056e-02 -1.9327e-01 -1.0237e+00
-3.2588e-01 -3.5990e-01 -1.2606e+00
-8.1702e-01 -3.6087e-01 -5.7455e-01
-9.7171e-01 -2.3260e-01 2.3005e-01
-7.0321e-01 -1.2872e-01 4.5389e-01
-4.1530e-01 -5.9617e-02 4.7757e-01
-2.1627e-01 -1.0864e-03 5.1227e-01
-3.9040e-02 2.6780e-01 -2.4187e-01
4.1586e-01 5.4498e-01 -2.4629e-01
9.8508e-01 9.6589e-01 -3.7823e-01
1.6268e+00 1.2417e+00 -2.9842e-01
1.9077e+00 8.6376e-01 3.7330e-01
1.5750e+00 2.5724e-01 8.5529e-01
9.7478e-01 -6.7163e-02 7.5307e-01
4.5133e-01 -2.4233e-01 5.3971e-01
4.3775e-02 -3.8521e-01 3.9304e-01
-1.2669e-01 2.5724e-01 1.8838e-01
4.0705e-01 5.8855e-01 3.4263e-01
1.0504e+00 1.0961e+00 5.9834e-01
1.8736e+00 1.4664e+00 7.4550e-01
2.4674e+00 1.1037e+00 4.3367e-01
2.2340e+00 4.3201e-01 2.0689e-02
1.4560e+00 3.2446e-02 -1.4700e-01
7.3656e-01 -2.0041e-01 -2.1490e-01
1.8957e-01 -3.8815e-01 -2.7239e-01
1.1474e-06 1.4886e-06 4.3909e-01
-5.1021e-07 3.7461e-07 6.3317e-01
8.0912e-06 4.4870e-06 1.0524e+00
2.9281e-06 1.2201e-06 1.1553e+00
5.8917e-07 1.0881e-06 2.3612e-01
-1.2624e-06 -1.4179e-06 -6.5702e-01
1.1091e-06 1.4522e-07 -7.8896e-01
-5.5076e-06 -2.3739e-06 -7.0515e-01
-1.7984e-06 -2.0654e-06 -6.6152e-01
1.2669e-01 -2.5723e-01 1.8838e-01
-4.0705e-01 -5.8855e-01 3.4263e-01
-1.0503e+00 -1.0961e+00 5.9835e-01
-1.8736e+00 -1.4664e+00 7.4552e-01
-2.4674e+00 -1.1037e+00 4.3369e-01
-2.2340e+00 -4.3201e-01 2.0703e-02
-1.4560e+00 -3.2444e-02 -1.4699e-01
-7.3657e-01 2.0041e-01 -2.1489e-01
-1.8957e-01 3.8815e-01 -2.7239e-01
3.9040e-02 -2.6780e-01 -2.4187e-01
-4.1587e-01 -5.4498e-01 -2.4628e-01
-9.8507e-01 -9.6589e-01 -3.7822e-01
-1.6268e+00 -1.2417e+00 -2.9841e-01
-1.9077e+00 -8.6376e-01 3.7332e-01
-1.5749e+00 -2.5724e-01 8.5530e-01
-9.7477e-01 6.7168e-02 7.5308e-01
-4.5133e-01 2.4233e-01 5.3971e-01
-4.3774e-02 3.8521e-01 3.9303e-01
-1.2188e-01 -4.0144e-02 -3.2546e-01
-2.9429e-02 4.1779e-02 -5.5892e-01
5.6050e-02 1.9327e-01 -1.0237e+00
3.2587e-01 3.5989e-01 -1.2606e+00
8.1701e-01 3.6086e-01 -5.7455e-01
9.7171e-01 2.3259e-01 2.3005e-01
7.0321e-01 1.2872e-01 4.5388e-01
4.1530e-01 5.9619e-02 4.7757e-01
2.1627e-01 1.0885e-03 5.1226e-01
-5.9765e-02 1.5183e-01 -0.0000e+00
3.8211e-01 4.5605e-01 -2.8550e-01
9.5013e-01 9.8703e-01 -6.8050e-01
1.6996e+00 1.4031e+00 -1.1447e+00
2.2407e+00 1.0158e+00 -1.3423e+00
2.0098e+00 3.3595e-01 -1.0889e+00
1.2729e+00 3.6331e-03 -6.4782e-01
6.1094e-01 -1.6555e-01 -2.7744e-01
1.2467e-01 -3.1672e-01 -0.0000e+00
1.3498e-09 -2.4708e-09 0.0000e+00
-6.4850e-01 -3.5428e-01 -4.0369e-01
-1.5459e+00 -8.4451e-01 -9.6231e-01
-2.6005e+00 -1.4207e+00 -1.6188e+00
-3.0495e+00 -1.6659e+00 -1.8983e+00
-2.4736e+00 -1.3513e+00 -1.5398e+00
-1.4717e+00 -8.0398e-01 -9.1613e-01
-6.3027e-01 -3.4432e-01 -3.9235e-01
4.0068e-09 -7.3344e-09 0.0000e+00
1.5898e-01 8.6849e-02 -4.6022e-01
1.5026e-02 8.2089e-03 -7.9041e-01
-1.5258e-01 -8.3355e-02 -1.4476e+00
-5.3984e-01 -2.9491e-01 -1.7828e+00
-1.1075e+00 -6.0503e-01 -8.1241e-01
-1.2280e+00 -6.7084e-01 3.2532e-01
-8.7059e-01 -4.7561e-01 6.4185e-01
-5.0671e-01 -2.7682e-01 6.7540e-01
-2.5025e-01 -1.3671e-01 7.2445e-01
7.6634e-02 4.1866e-02 -3.4200e-01
7.2805e-01 3.9774e-01 -3.4826e-01
1.5767e+00 8.6134e-01 -5.3493e-01
2.4431e+00 1.3347e+00 -4.2196e-01
2.5959e+00 1.4181e+00 5.2787e-01
1.9357e+00 1.0575e+00 1.2095e+00
1.0952e+00 5.9829e-01 1.0651e+00
4.1107e-01 2.2457e-01 7.6323e-01
-1.2453e-01 -6.8032e-02 5.5574e-01
-2.9381e-02 -1.6051e-02 2.6645e-01
7.3762e-01 4.0296e-01 4.8463e-01
1.7114e+00 9.3493e-01 8.4616e-01
2.8303e+00 1.5462e+00 1.0544e+00
3.3511e+00 1.8307e+00 6.1321e-01
2.7764e+00 1.5167e+00 2.9232e-02
1.6962e+00 9.2663e-01 -2.0790e-01
7.5941e-01 4.1487e-01 -3.0394e-01
4.2473e-02 2.3203e-02 -3.8518e-01
2.0019e-06 1.0939e-06 6.2106e-01
4.1370e-07 2.2821e-07 8.9546e-01
1.0493e-05 5.7357e-06 1.4885e+00
3.6208e-06 1.9820e-06 1.6336e+00
2.6449e-06 1.4548e-06 3.3401e-01
-3.4877e-06 -1.9024e-06 -9.2920e-01
1.3870e-06 7.5359e-07 -1.1159e+00
-6.7751e-06 -3.7049e-06 -9.9718e-01
-3.0155e-06 -1.6476e-06 -9.3549e-01
2.9383e-02 1.6052e-02 2.6645e-01
-7.3762e-01 -4.0296e-01 4.8464e-01
-1.7114e+00 -9.3492e-01 8.4618e-01
-2.8303e+00 -1.5462e+00 1.0544e+00
-3.3511e+00 -1.8307e+00 6.1324e-01
-2.7764e+00 -1.5167e+00 2.9253e-02
-1.6962e+00 -9.2663e-01 -2.0788e-01
-7.5942e-01 -4.1487e-01 -3.0393e-01
-4.2476e-02 -2.3205e-02 -3.8518e-01
-7.6636e-02 -4.1866e-02 -3.4199e-01
-7.2806e-01 -3.9774e-01 -3.4825e-01
-1.5767e+00 -8.6134e-01 -5.3492e-01
-2.4431e+00 -1.3347e+00 -4.2194e-01
-2.5959e+00 -1.4181e+00 5.2790e-01
-1.9357e+00 -1.0575e+00 1.2095e+00
-1.0951e+00 -5.9828e-01 1.0651e+00
-4.1107e-01 -2.2457e-01 7.6324e-01
1.2453e-01 6.8033e-02 5.5574e-01
-1.5898e-01 -8.6850e-02 -4.6021e-01
-1.5034e-02 -8.2131e-03 -7.9041e-01
1.5257e-01 8.3350e-02 -1.4476e+00
5.3982e-01 2.9491e-01 -1.7828e+00
1.1075e+00 6.0503e-01 -8.1241e-01
1.2280e+00 6.7084e-01 3.2531e-01
8.7060e-01 4.7561e-01 6.4184e-01
5.0671e-01 2.7682e-01 6.7539e-01
2.5026e-01 1.3672e-01 7.2445e-01
1.9290e-09 -3.5310e-09 -0.0000e+00
6.4849e-01 3.5427e-01 -4.0370e-01
1.5459e+00 8.4451e-01 -9.6232e-01
2.6005e+00 1.4206e+00 -1.6188e+00
3.0495e+00 1.6659e+00 -1.8983e+00
2.4736e+00 1.3513e+00 -1.5398e+00
1.4717e+00 8.0398e-01 -9.1614e-01
6.3027e-01 3.4432e-01 -3.9235e-01
3.1003e-09 -5.6750e-09 -0.0000e+00
-9.5473e-02 1.3233e-01 0.0000e+00
-5.9022e-01 -7.5127e-02 -2.8550e-01
-1.3439e+00 -2.6622e-01 -6.8049e-01
-2.0989e+00 -6.7207e-01 -1.1447e+00
-2.0654e+00 -1.3366e+00 -1.3423e+00
-1.3686e+00 -1.5097e+00 -1.0889e+00
-6.9084e-01 -1.0692e+00 -6.4781e-01
-1.9079e-01 -6.0354e-01 -2.7744e-01
1.9915e-01 -2.7603e-01 0.0000e+00
9.9628e-02 8.0865e-02 -3.2546e-01
-1.9262e-02 4.7334e-02 -5.5892e-01
-1.9292e-01 5.7257e-02 -1.0237e+00
-4.7892e-01 -7.9769e-02 -1.2606e+00
-7.4509e-01 -4.9252e-01 -5.7455e-01
-7.2074e-01 -6.9200e-01 2.3005e-01
-4.8826e-01 -5.2218e-01 4.5389e-01
-2.7455e-01 -3.1725e-01 4.7757e-01
-1.1777e-01 -1.8140e-01 5.1227e-01
2.0425e-01 -1.7754e-01 -2.4187e-01
6.8327e-01 5.5486e-02 -2.4629e-01
1.3450e+00 3.0704e-01 -3.7823e-01
1.9238e+00 6.9798e-01 -2.9842e-01
1.7576e+00 1.1386e+00 3.7330e-01
1.0674e+00 1.1863e+00 8.5529e-01
4.7016e-01 8.5653e-01 7.5307e-01
3.9943e-02 5.1071e-01 5.3971e-01
-3.0049e-01 2.4496e-01 3.9304e-01
1.4800e-01 -2.4559e-01 1.8838e-01
7.1518e-01 2.4524e-02 3.4263e-01
1.4899e+00 2.9160e-01 5.9834e-01
2.2463e+00 7.8422e-01 7.4550e-01
2.2619e+00 1.4799e+00 4.3367e-01
1.5706e+00 1.6464e+00 2.0689e-02
8.1398e-01 1.2076e+00 -1.4700e-01
2.2933e-01 7.2808e-01 -2.1490e-01
-2.2420e-01 3.6924e-01 -2.7239e-01
1.8722e-06 1.6162e-07 4.3909e-01
3.7257e-08 -6.2976e-07 6.3317e-01
8.1465e-06 4.3893e-06 1.0524e+00
2.6063e-06 1.8095e-06 1.1553e+00
1.2252e-06 -8.2581e-08 2.3612e-01
-1.8767e-06 -2.9184e-07 -6.5702e-01
7.2716e-07 8.5309e-07 -7.8896e-01
-4.9706e-06 -3.3546e-06 -7.0515e-01
-2.7100e-06 -3.9692e-07 -6.6152e-01
-1.4800e-01 2.4559e-01 1.8838e-01
-7.1518e-01 -2.4525e-02 3.4263e-01
-1.4899e+00 -2.9159e-01 5.9835e-01
-2.2463e+00 -7.8421e-01 7.4552e-01
-2.2619e+00 -1.4799e+00 4.3369e-01
-1.5706e+00 -1.6464e+00 2.0703e-02
-8.1398e-01 -1.2076e+00 -1.4699e-01
-2.2933e-01 -7.2809e-01 -2.1489e-01
2.2419e-01 -3.6924e-01 -2.7239e-01
-2.0425e-01 1.7754e-01 -2.4187e-01
-6.8328e-01 -5.5488e-02 -2.4628e-01
-1.3450e+00 -3.0704e-01 -3.7822e-01
-1.9238e+00 -6.9798e-01 -2.9841e-01
-1.7576e+00 -1.1386e+00 3.7332e-01
-1.0674e+00 -1.1863e+00 8.5530e-01
-4.7015e-01 -8.5653e-01 7.5308e-01
-3.9943e-02 -5.1071e-01 5.3971e-01
3.0049e-01 -2.4496e-01 3.9303e-01
-9.9630e-02 -8.0865e-02 -3.2546e-01
1.9255e-02 -4.7337e-02 -5.5892e-01
1.9291e-01 -5.7260e-02 -1.0237e+00
4.7891e-01 7.9763e-02 -1.2606e+00
7.4509e-01 4.9252e-01 -5.7455e-01
7.2074e-01 6.9199e-01 2.3005e-01
4.8826e-01 5.2219e-01 4.5388e-01
2.7455e-01 3.1725e-01 4.7757e-01
1.1777e-01 1.8140e-01 5.1226e-01
9.5471e-02 -1.3233e-01 -0.0000e+00
5.9021e-01 7.5126e-02 -2.8550e-01
1.3439e+00 2.6622e-01 -6.8050e-01
2.0989e+00 6.7206e-01 -1.1447e+00
2.0654e+00 1.3366e+00 -1.3423e+00
1.3686e+00 1.5097e+00 -1.0889e+00
6.9083e-01 1.0692e+00 -6.4782e-01
1.9079e-01 6.0353e-01 -2.7744e-01
-1.9915e-01 2.7603e-01 -0.0000e+00
-1.5737e-01 1.6892e-01 0.0000e+00
-2.7429e-01 2.9429e-01 -5.3337e-05
-5.4994e-01 5.9018e-01 -5.1948e-05
-6.5837e-01 7.0671e-01 -1.5610e-06
-1.2009e-01 1.2898e-01 2.7731e-05
4.0821e-01 -4.3822e-01 -1.1633e-05
4.4608e-01 -4.7901e-01 -6.3593e-05
3.6414e-01 -3.9108e-01 -7.6073e-05
3.2819e-01 -3.5228e-01 0.0000e+00
-7.0643e-03 7.6151e-03 -5.5525e-05
-4.7924e-02 5.1331e-02 -1.0470e-04
-1.5364e-01 1.6475e-01 -2.8529e-05
-2.0784e-01 2.2298e-01 3.5623e-05
-3.5259e-02 3.7751e-02 -4.4353e-06
1.3443e-01 -1.4436e-01 -4.1287e-05
1.3278e-01 -1.4259e-01 -6.9912e-05
9.3142e-02 -1.0005e-01 1.9504e-05
7.5410e-02 -8.0984e-02 6.4716e-05
2.5403e-01 -2.7263e-01 -1.3926e-04
3.4195e-01 -3.6711e-01 -1.0096e-04
5.1861e-01 -5.5677e-01 -2.5816e-05
5.3929e-01 -5.7901e-01 2.2863e-06
1.0118e-01 -1.0877e-01 2.7375e-05
-3.2537e-01 3.4921e-01 3.5905e-05
-4.0442e-01 4.3412e-01 -1.1895e-05
-3.7669e-01 4.0435e-01 2.7274e-05
-3.6101e-01 3.8750e-01 5.2586e-05
2.7545e-01 -2.9565e-01 -1.2272e-04
3.8423e-01 -4.1240e-01 -1.1780e-04
6.1232e-01 -6.5731e-01 -7.6177e-05
6.5398e-01 -7.0199e-01 -2.9562e-05
1.1876e-01 -1.2744e-01 1.0235e-04
-4.0132e-01 4.3075e-01 9.0994e-05
-4.8495e-01 5.2052e-01 3.8239e-05
-4.3984e-01 4.7215e-01 -8.7301e-06
-4.1512e-01 4.4560e-01 -1.4457e-06
1.0372e-06 -1.1141e-06 -1.3073e-04
-1.0708e-06 -1.6340e-06 -1.0322e-04
2.5549e-06 3.5252e-07 -1.5145e-04
6.3072e-07 -2.8969e-07 3.2778e-05
-1.2738e-06 -1.9846e-06 5.0418e-05
4.9753e-07 1.9143e-06 9.9275e-05
9.0883e-07 1.0649e-06 8.9092e-05
-1.9125e-06 -1.0868e-06 -3.8501e-05
-1.2173e-06 1.3066e-06 -1.6718e-05
-2.7544e-01 2.9565e-01 -1.2243e-04
-3.8423e-01 4.1240e-01 -1.1773e-04
-6.1232e-01 6.5731e-01 -7.6163e-05
-6.5398e-01 7.0199e-01 -3.0476e-05
-1.1877e-01 1.2744e-01 1.0416e-04
4.0132e-01 -4.3074e-01 8.9014e-05
4.8495e-01 -5.2052e-01 3.8808e-05
4.3983e-01 -4.7216e-01 -7.4872e-06
4.1512e-01 -4.4560e-01 -2.5512e-06
-2.5403e-01 2.7263e-01 -1.3867e-04
-3.4196e-01 3.6711e-01 -1.0129e-04
-5.1861e-01 5.5677e-01 -2.5654e-05
-5.3929e-01 5.7901e-01 8.6223e-07
-1.0118e-01 1.0877e-01 3.0001e-05
3.2538e-01 -3.4921e-01 3.2959e-05
4.0442e-01 -4.3412e-01 -1.0698e-05
3.7669e-01 -4.0436e-01 2.8516e-05
3.6101e-01 -3.8750e-01 5.0639e-05
7.0627e-03 -7.6133e-03 -5.5420e-05
4.7921e-02 -5.1330e-02 -1.0477e-04
1.5364e-01 -1.6475e-01 -2.9003e-05
2.0784e-01 -2.2297e-01 3.5169e-05
3.5257e-02 -3.7752e-02 -3.1614e-06
-1.3443e-01 1.4436e-01 -4.2625e-05
-1.3278e-01 1.4259e-01 -6.9457e-05
-9.3141e-02 1.0004e-01 2.0180e-05
-7.5409e-02 8.0983e-02 6.3784e-05
1.5736e-01 -1.6892e-01 -0.0000e+00
2.7429e-01 -2.9429e-01 -5.3260e-05
5.4994e-01 -5.9018e-01 -5.1953e-05
6.5837e-01 -7.0671e-01 -1.8178e-06
1.2009e-01 -1.2898e-01 2.8002e-05
-4.0821e-01 4.3822e-01 -1.1585e-05
-4.4608e-01 4.7901e-01 -6.4424e-05
-3.6414e-01 3.9108e-01 -7.5427e-05
-3.2818e-01 3.5228e-01 -0.0000e+00
-1.2534e-01 1.0468e-01 0.0000e+00
1.1661e-01 5.8344e-01 2.8547e-01
3.6065e-01 1.3216e+00 6.8046e-01
8.1886e-01 2.0461e+00 1.1447e+00
1.4794e+00 1.9658e+00 1.3423e+00
1.6026e+00 1.2585e+00 1.0889e+00
1.1153e+00 6.1363e-01 6.4785e-01
6.1566e-01 1.4756e-01 2.7746e-01
2.6145e-01 -2.1835e-01 0.0000e+00
-8.7783e-02 -9.3556e-02 3.2538e-01
-4.5895e-02 2.2539e-02 5.5879e-01
-4.3525e-02 1.9639e-01 1.0236e+00
1.1342e-01 4.7196e-01 1.2606e+00
5.4391e-01 7.0837e-01 5.7458e-01
7.4120e-01 6.6999e-01 -2.3003e-01
5.5538e-01 4.5007e-01 -4.5392e-01
3.3590e-01 2.5137e-01 -4.7760e-01