<?xml version="1.0"?>
<VTKFile type="StructuredGrid" version="0.1">
  <StructuredGrid WholeExtent="0 8 0 8 0 8">
    <Piece Extent="0 8 0 8 0 8">
      <PointData Scalars="temperature" Vectors="velocity">
        <DataArray type="Float32" Name="temperature" format="ascii">
1.000000e+00
8.885685e-01
7.625150e-01
6.405616e-01
5.567709e-01
3.906827e-01
2.627747e-01
1.392763e-01
0.000000e+00
1.000000e+00
8.884032e-01
7.622013e-01
6.383760e-01
5.292030e-01
3.884732e-01
2.624730e-01
1.391174e-01
0.000000e+00
1.000000e+00
8.880951e-01
7.616400e-01
6.342354e-01
4.804748e-01
3.848634e-01
2.619231e-01
1.388237e-01
0.000000e+00
1.000000e+00
8.880415e-01
7.615392e-01
6.333904e-01
4.707798e-01
3.842021e-01
2.618183e-01
1.387687e-01
0.000000e+00
1.000000e+00
8.883192e-01
7.620403e-01
6.370337e-01
5.121271e-01
3.872186e-01
2.623030e-01
1.390271e-01
0.000000e+00
1.000000e+00
8.885971e-01
7.625467e-01
6.403891e-01
5.535192e-01
3.904992e-01
2.627842e-01
1.392855e-01
0.000000e+00
1.000000e+00
8.885434e-01
7.624435e-01
6.396585e-01
5.438071e-01
3.897326e-01
2.626806e-01
1.392305e-01
0.000000e+00
1.000000e+00
8.882370e-01
7.618811e-01
6.356549e-01
4.950612e-01
3.860021e-01
2.621339e-01
1.389381e-01
0.000000e+00
1.000000e+00
8.880475e-01
7.615504e-01
6.331792e-01
4.675175e-01
3.840239e-01
2.618124e-01
1.387626e-01
0.000000e+00
1.000000e+00
8.884922e-01
7.623710e-01
6.395687e-01
5.436912e-01
3.896288e-01
2.626356e-01
1.392010e-01
0.000000e+00
1.000000e+00
8.883788e-01
7.621525e-01
6.380055e-01
5.242065e-01
3.880896e-01
2.624247e-01
1.390911e-01
0.000000e+00
1.000000e+00
8.881607e-01
7.617554e-01
6.350880e-01
4.897472e-01
3.855266e-01
2.620357e-01
1.388832e-01
0.000000e+00
1.000000e+00
8.881228e-01
7.616841e-01
6.344996e-01
4.828897e-01
3.850502e-01
2.619616e-01
1.388444e-01
0.000000e+00
1.000000e+00
8.883193e-01
7.620385e-01
6.370534e-01
5.121329e-01
3.872052e-01
2.623043e-01
1.390271e-01
0.000000e+00
1.000000e+00
8.885157e-01
7.623964e-01
6.394485e-01
5.413954e-01
3.895029e-01
2.626446e-01
1.392098e-01
0.000000e+00
1.000000e+00
8.884777e-01
7.623235e-01
6.389228e-01
5.345301e-01
3.889696e-01
2.625713e-01
1.391709e-01
0.000000e+00
1.000000e+00
8.882614e-01
7.619261e-01
6.360814e-01
5.000646e-01
3.863423e-01
2.621849e-01
1.389644e-01
0.000000e+00
1.000000e+00
8.881237e-01
7.616890e-01
6.343485e-01
4.805793e-01
3.849204e-01
2.619552e-01
1.388379e-01
0.000000e+00
1.000000e+00
8.883079e-01
7.620272e-01
6.370468e-01
5.121264e-01
3.871958e-01
2.622973e-01
1.390194e-01
0.000000e+00
1.000000e+00
8.883201e-01
7.620375e-01
6.370714e-01
5.121389e-01
3.871942e-01
2.623062e-01
1.390277e-01
0.000000e+00
1.000000e+00
8.883192e-01
7.620371e-01
6.370638e-01
5.121364e-01
3.871982e-01
2.623052e-01
1.390271e-01
0.000000e+00
1.000000e+00
8.883192e-01
7.620376e-01
6.370584e-01
5.121356e-01
3.872025e-01
2.623050e-01
1.390271e-01
0.000000e+00
1.000000e+00
8.883193e-01
7.620367e-01
6.370731e-01
5.121386e-01
3.871918e-01
2.623057e-01
1.390270e-01
0.000000e+00
1.000000e+00
8.883192e-01
7.620376e-01
6.370584e-01
5.121356e-01
3.872025e-01
2.623050e-01
1.390271e-01
0.000000e+00
1.000000e+00
8.883192e-01
7.620371e-01
6.370638e-01
5.121364e-01
3.871982e-01
2.623052e-01
1.390271e-01
0.000000e+00
1.000000e+00
8.883201e-01
7.620375e-01
6.370715e-01
5.121389e-01
3.871942e-01
2.623062e-01
1.390277e-01
0.000000e+00
1.000000e+00
8.883080e-01
7.620272e-01
6.370468e-01
5.121263e-01
3.871958e-01
2.622973e-01
1.390194e-01
0.000000e+00
1.000000e+00
8.881237e-01
7.616890e-01
6.343485e-01
4.805793e-01
3.849204e-01
2.619553e-01
1.388379e-01
0.000000e+00
1.000000e+00
8.882613e-01
7.619261e-01
6.360814e-01
5.000646e-01
3.863423e-01
2.621849e-01
1.389644e-01
0.000000e+00
1.000000e+00
8.884777e-01
7.623235e-01
6.389227e-01
5.345300e-01
3.889696e-01
2.625713e-01
1.391709e-01
0.000000e+00
1.000000e+00
8.885157e-01
7.623964e-01
6.394484e-01
5.413954e-01
3.895029e-01
2.626446e-01
1.392098e-01
0.000000e+00
1.000000e+00
8.883193e-01
7.620385e-01
6.370534e-01
5.121329e-01
3.872052e-01
2.623043e-01
1.390271e-01
0.000000e+00
1.000000e+00
8.881228e-01
7.616841e-01
6.344997e-01
4.828897e-01
3.850502e-01
2.619616e-01
1.388444e-01
0.000000e+00
1.000000e+00
8.881607e-01
7.617554e-01
6.350880e-01
4.897473e-01
3.855266e-01
2.620357e-01
1.388832e-01
0.000000e+00
1.000000e+00
8.883789e-01
7.621526e-01
6.380055e-01
5.242065e-01
3.880896e-01
2.624247e-01
1.390911e-01
0.000000e+00
1.000000e+00
8.884922e-01
7.623710e-01
6.395687e-01
5.436912e-01
3.896288e-01
2.626356e-01
1.392010e-01
0.000000e+00
1.000000e+00
8.880475e-01
7.615504e-01
6.331792e-01
4.675175e-01
3.840240e-01
2.618125e-01
1.387627e-01
0.000000e+00
1.000000e+00
8.882370e-01
7.618811e-01
6.356549e-01
4.950613e-01
3.860021e-01
2.621339e-01
1.389381e-01
0.000000e+00
1.000000e+00
8.885434e-01
7.624435e-01
6.396585e-01
5.438070e-01
3.897326e-01
2.626806e-01
1.392305e-01
0.000000e+00
1.000000e+00
8.885971e-01
7.625467e-01
6.403890e-01
5.535191e-01
3.904991e-01
2.627842e-01
1.392855e-01
0.000000e+00
1.000000e+00
8.883192e-01
7.620403e-01
6.370337e-01
5.121271e-01
3.872186e-01
2.623030e-01
1.390271e-01
0.000000e+00
1.000000e+00
8.880415e-01
7.615392e-01
6.333905e-01
4.707799e-01
3.842021e-01
2.618183e-01
1.387687e-01
0.000000e+00
1.000000e+00
8.880951e-01
7.616400e-01
6.342354e-01
4.804748e-01
3.848634e-01
2.619231e-01
1.388237e-01
0.000000e+00
1.000000e+00
8.884032e-01
7.622013e-01
6.383760e-01
5.292030e-01
3.884732e-01
2.624730e-01
1.391174e-01
0.000000e+00
1.000000e+00
8.885685e-01
7.625150e-01
6.405616e-01
5.567709e-01
3.906827e-01
2.627746e-01
1.392762e-01
0.000000e+00
1.000000e+00
8.881237e-01
7.616890e-01
6.343485e-01
4.805793e-01
3.849204e-01
2.619553e-01
1.388379e-01
0.000000e+00
1.000000e+00
8.882613e-01
7.619261e-01
6.360814e-01
5.000646e-01
3.863423e-01
2.621849e-01
1.389644e-01
0.000000e+00
1.000000e+00
8.884777e-01
7.623235e-01
6.389227e-01
5.345300e-01
3.889696e-01
2.625713e-01
1.391709e-01
0.000000e+00
1.000000e+00
8.885157e-01
7.623964e-01
6.394484e-01
5.413954e-01
3.895029e-01
2.626446e-01
1.392098e-01
0.000000e+00
1.000000e+00
8.883193e-01
7.620385e-01
6.370534e-01
5.121329e-01
3.872052e-01
2.623043e-01
1.390271e-01
0.000000e+00
1.000000e+00
8.881228e-01
7.616841e-01
6.344997e-01
4.828897e-01
3.850502e-01
2.619616e-01
1.388444e-01
0.000000e+00
1.000000e+00
8.881607e-01
7.617554e-01
6.350880e-01
4.897473e-01
3.855266e-01
2.620357e-01
1.388832e-01
0.000000e+00
1.000000e+00
8.883789e-01
7.621526e-01
6.380055e-01
5.242065e-01
3.880896e-01
2.624247e-01
1.390911e-01
0.000000e+00
1.000000e+00
8.884922e-01
7.623710e-01
6.395687e-01
5.436912e-01
3.896288e-01
2.626356e-01
1.392010e-01
0.000000e+00
1.000000e+00
8.883079e-01
7.620272e-01
6.370468e-01
5.121264e-01
3.871958e-01
2.622973e-01
1.390194e-01
0.000000e+00
1.000000e+00
8.883201e-01
7.620375e-01
6.370714e-01
5.121389e-01
3.871942e-01
2.623062e-01
1.390277e-01
0.000000e+00
1.000000e+00
8.883192e-01
7.620371e-01
6.370638e-01
5.121364e-01
3.871982e-01
2.623052e-01
1.390271e-01
0.000000e+00
1.000000e+00
8.883192e-01
7.620376e-01
6.370584e-01
5.121356e-01
3.872025e-01
2.623050e-01
1.390271e-01
0.000000e+00
1.000000e+00
8.883193e-01
7.620367e-01
6.370731e-01
5.121386e-01
3.871918e-01
2.623057e-01
1.390270e-01
0.000000e+00
1.000000e+00
8.883192e-01
7.620376e-01
6.370584e-01
5.121356e-01
3.872025e-01
2.623050e-01
1.390271e-01
0.000000e+00
1.000000e+00
8.883192e-01
7.620371e-01
6.370638e-01
5.121364e-01
3.871982e-01
2.623052e-01
1.390271e-01
0.000000e+00
1.000000e+00
8.883201e-01
7.620375e-01
6.370715e-01
5.121389e-01
3.871942e-01
2.623062e-01
1.390277e-01
0.000000e+00
1.000000e+00
8.883080e-01
7.620272e-01
6.370468e-01
5.121263e-01
3.871958e-01
2.622973e-01
1.390194e-01
0.000000e+00
1.000000e+00
8.884922e-01
7.623710e-01
6.395687e-01
5.436912e-01
3.896288e-01
2.626356e-01
1.392010e-01
0.000000e+00
1.000000e+00
8.883788e-01
7.621525e-01
6.380055e-01
5.242065e-01
3.880896e-01
2.624247e-01
1.390911e-01
0.000000e+00
1.000000e+00
8.881607e-01
7.617554e-01
6.350880e-01
4.897472e-01
3.855266e-01
2.620357e-01
1.388832e-01
0.000000e+00
1.000000e+00
8.881228e-01
7.616841e-01
6.344996e-01
4.828897e-01
3.850502e-01
2.619616e-01
1.388444e-01
0.000000e+00
1.000000e+00
8.883193e-01
7.620385e-01
6.370534e-01
5.121329e-01
3.872052e-01
2.623043e-01
1.390271e-01
0.000000e+00
1.000000e+00
8.885157e-01
7.623964e-01
6.394485e-01
5.413954e-01
3.895029e-01
2.626446e-01
1.392098e-01
0.000000e+00
1.000000e+00
8.884777e-01
7.623235e-01
6.389228e-01
5.345301e-01
3.889696e-01
2.625713e-01
1.391709e-01
0.000000e+00
1.000000e+00
8.882614e-01
7.619261e-01
6.360814e-01
5.000646e-01
3.863423e-01
2.621849e-01
1.389644e-01
0.000000e+00
1.000000e+00
8.881237e-01
7.616890e-01
6.343485e-01
4.805793e-01
3.849204e-01
2.619552e-01
1.388379e-01
0.000000e+00
1.000000e+00
8.885685e-01
7.625150e-01
6.405616e-01
5.567709e-01
3.906827e-01
2.627747e-01
1.392763e-01
0.000000e+00
1.000000e+00
8.884032e-01
7.622013e-01
6.383760e-01
5.292030e-01
3.884732e-01
2.624730e-01
1.391174e-01
0.000000e+00
1.000000e+00
8.880951e-01
7.616400e-01
6.342354e-01
4.804748e-01
3.848634e-01
2.619231e-01
1.388237e-01
0.000000e+00
1.000000e+00
8.880415e-01
7.615392e-01
6.333904e-01
4.707798e-01
3.842021e-01
2.618183e-01
1.387687e-01
0.000000e+00
1.000000e+00
8.883192e-01
7.620403e-01
6.370337e-01
5.121271e-01
3.872186e-01
2.623030e-01
1.390271e-01
0.000000e+00
1.000000e+00
8.885971e-01
7.625467e-01
6.403891e-01
5.535192e-01
3.904992e-01
2.627842e-01
1.392855e-01
0.000000e+00
1.000000e+00
8.885434e-01
7.624435e-01
6.396585e-01
5.438071e-01
3.897326e-01
2.626806e-01
1.392305e-01
0.000000e+00
1.000000e+00
8.882370e-01
7.618811e-01
6.356549e-01
4.950612e-01
3.860021e-01
2.621339e-01
1.389381e-01
0.000000e+00
1.000000e+00
8.880475e-01
7.615504e-01
6.331792e-01
4.675175e-01
3.840239e-01
2.618124e-01
1.387626e-01
0.000000e+00
        </DataArray>
        <DataArray type="Float32" Name="velocity" NumberOfComponents="3" format="ascii">
0.000000e+00 0.000000e+00 0.000000e+00
8.077973e-01 0.000000e+00 4.412978e-01
1.864076e+00 0.000000e+00 1.018340e+00
3.043649e+00 0.000000e+00 1.662738e+00
3.536443e+00 0.000000e+00 1.931951e+00
2.911396e+00 0.000000e+00 1.590489e+00
1.780942e+00 0.000000e+00 9.729244e-01
7.790540e-01 0.000000e+00 4.255954e-01
0.000000e+00 0.000000e+00 0.000000e+00
-2.035963e-01 0.000000e+00 5.172376e-01
-2.059103e-02 0.000000e+00 8.550728e-01
1.916102e-01 0.000000e+00 1.486032e+00
6.441155e-01 0.000000e+00 1.758641e+00
1.259579e+00 0.000000e+00 8.376518e-01
1.401743e+00 0.000000e+00 -2.660941e-01
1.031749e+00 0.000000e+00 -6.461534e-01
6.224496e-01 0.000000e+00 -7.295342e-01
3.136015e-01 0.000000e+00 -7.967065e-01
-9.768557e-02 0.000000e+00 3.825735e-01
-9.195526e-01 0.000000e+00 3.688206e-01
-1.926896e+00 0.000000e+00 5.224374e-01
-2.894159e+00 0.000000e+00 3.638621e-01
-3.058756e+00 0.000000e+00 -5.365616e-01
-2.325129e+00 0.000000e+00 -1.195113e+00
-1.350136e+00 0.000000e+00 -1.101917e+00
-5.160160e-01 0.000000e+00 -8.241008e-01
1.555642e-01 0.000000e+00 -6.092479e-01
3.843947e-02 0.000000e+00 -3.059215e-01
-9.332547e-01 0.000000e+00 -5.357173e-01
-2.100367e+00 0.000000e+00 -8.894675e-01
-3.366409e+00 0.000000e+00 -1.064107e+00
-3.929796e+00 0.000000e+00 -6.374637e-01
-3.291043e+00 0.000000e+00 -6.433477e-02
-2.064859e+00 0.000000e+00 2.071321e-01
-9.451224e-01 0.000000e+00 3.336256e-01
-5.405424e-02 0.000000e+00 4.301921e-01
-2.594070e-06 0.000000e+00 -7.062144e-01
-4.170804e-04 0.000000e+00 -9.805379e-01
1.247250e-04 0.000000e+00 -1.535340e+00
1.056105e-03 0.000000e+00 -1.605938e+00
1.438120e-04 0.000000e+00 -3.618990e-01
-5.617029e-04 0.000000e+00 8.747495e-01
3.188794e-04 0.000000e+00 1.146985e+00
5.884947e-04 0.000000e+00 1.086139e+00
3.812583e-06 0.000000e+00 1.037944e+00
-3.832499e-02 0.000000e+00 -3.049923e-01
9.317905e-01 0.000000e+00 -5.345184e-01
2.095494e+00 0.000000e+00 -8.869459e-01
3.360953e+00 0.000000e+00 -1.063435e+00
3.932359e+00 0.000000e+00 -6.399464e-01
3.300542e+00 0.000000e+00 -6.585913e-02
2.072400e+00 0.000000e+00 2.066150e-01
9.481168e-01 0.000000e+00 3.328208e-01
5.396805e-02 0.000000e+00 4.294807e-01
9.806665e-02 0.000000e+00 3.840542e-01
9.184513e-01 0.000000e+00 3.704930e-01
1.923502e+00 0.000000e+00 5.230043e-01
2.891770e+00 0.000000e+00 3.662889e-01
3.061133e+00 0.000000e+00 -5.333093e-01
2.330123e+00 0.000000e+00 -1.196518e+00
1.354168e+00 0.000000e+00 -1.105531e+00
5.176926e-01 0.000000e+00 -8.268277e-01
-1.561089e-01 0.000000e+00 -6.113625e-01
2.042381e-01 0.000000e+00 5.188569e-01
1.954252e-02 0.000000e+00 8.571250e-01
-1.928265e-01 0.000000e+00 1.488846e+00
-6.450445e-01 0.000000e+00 1.759887e+00
-1.261362e+00 0.000000e+00 8.373020e-01
-1.402929e+00 0.000000e+00 -2.656063e-01
-1.031566e+00 0.000000e+00 -6.464828e-01
-6.223787e-01 0.000000e+00 -7.314029e-01
-3.144019e-01 0.000000e+00 -7.987227e-01
0.000000e+00 0.000000e+00 -0.000000e+00
-8.111708e-01 0.000000e+00 4.431485e-01
-1.872367e+00 0.000000e+00 1.022888e+00
-3.053459e+00 0.000000e+00 1.668127e+00
-3.538461e+00 0.000000e+00 1.933087e+00
-2.906624e+00 0.000000e+00 1.587910e+00
-1.777588e+00 0.000000e+00 9.711092e-01
-7.784605e-01 0.000000e+00 4.252786e-01
0.000000e+00 0.000000e+00 -0.000000e+00
2.225601e-02 -1.771198e-01 0.000000e+00
6.043469e-01 -2.267145e-01 3.121359e-01
1.379884e+00 -4.035204e-01 7.204622e-01
2.218068e+00 -3.838582e-01 1.176127e+00
2.497332e+00 1.765823e-01 1.365669e+00
1.991921e+00 6.437935e-01 1.123540e+00
1.189767e+00 6.182076e-01 6.870017e-01
4.956208e-01 4.680600e-01 3.005233e-01
-4.612030e-02 3.670387e-01 0.000000e+00
-1.424250e-01 -2.041131e-02 3.654735e-01
-8.232455e-03 -4.636308e-02 6.045537e-01
1.543641e-01 -1.331880e-01 1.051002e+00
4.778864e-01 -1.432360e-01 1.243841e+00
8.886098e-01 7.093322e-02 5.921268e-01
9.667418e-01 2.470682e-01 -1.885778e-01
7.061385e-01 2.227031e-01 -4.571630e-01
4.237547e-01 1.520776e-01 -5.158780e-01
2.098832e-01 1.074643e-01 -5.630872e-01
-1.060654e-01 2.906032e-01 2.702575e-01
-6.933784e-01 3.083390e-01 2.607444e-01
-1.420336e+00 3.872369e-01 3.695084e-01
-2.098193e+00 2.944311e-01 2.575914e-01
-2.160149e+00 -1.582138e-01 -3.793344e-01
-1.592178e+00 -5.259252e-01 -8.453309e-01
-8.942440e-01 -5.506780e-01 -7.794068e-01
-3.094008e-01 -4.692501e-01 -5.826697e-01
1.609628e-01 -3.991741e-01 -4.305664e-01
-1.348837e-02 3.254884e-01 -2.164484e-01
-7.085135e-01 3.513851e-01 -3.788652e-01
-1.553852e+00 4.670802e-01 -6.287674e-01
-2.443292e+00 3.647637e-01 -7.523453e-01
-2.773545e+00 -2.159418e-01 -4.508120e-01
-2.261217e+00 -6.831977e-01 -4.558571e-02
-1.385524e+00 -6.954948e-01 1.463928e-01
-6.019721e-01 -5.745854e-01 2.359144e-01
2.132294e-02 -4.763772e-01 3.042993e-01
-6.599308e-05 5.104798e-04 -4.993578e-01
4.065538e-04 8.853489e-04 -6.933669e-01
1.426238e-03 1.001414e-03 -1.085611e+00
2.081585e-03 -5.991924e-04 -1.135562e+00
5.292807e-04 -2.002555e-03 -2.558936e-01
-1.110136e-03 -1.005280e-03 6.185337e-01
-8.714878e-04 4.458438e-04 8.110781e-01
-2.746969e-04 8.712358e-04 7.680033e-01
-1.065957e-04 8.699405e-04 7.338570e-01
1.348160e-02 -3.244684e-01 -2.154770e-01
7.088098e-01 -3.495979e-01 -3.778844e-01
1.553470e+00 -4.649229e-01 -6.272765e-01
2.443000e+00 -3.668562e-01 -7.521442e-01
2.775842e+00 2.108670e-01 -4.523609e-01
2.264935e+00 6.819019e-01 -4.640230e-02
1.387750e+00 6.975006e-01 1.461311e-01
6.025386e-01 5.767328e-01 2.353059e-01
-2.164344e-02 4.782312e-01 3.035900e-01
1.063581e-01 -2.896531e-01 2.718502e-01
6.938853e-01 -3.066610e-01 2.620756e-01
1.420692e+00 -3.852267e-01 3.697116e-01
2.099453e+00 -2.961093e-01 2.587936e-01
2.162226e+00 1.537152e-01 -3.772342e-01
1.593320e+00 5.244040e-01 -8.457687e-01
8.944008e-01 5.521809e-01 -7.815031e-01
3.090846e-01 4.710979e-01 -5.846795e-01
-1.616706e-01 4.008218e-01 -4.324990e-01
1.429965e-01 2.125648e-02 3.671738e-01
8.501952e-03 4.778410e-02 6.061688e-01
-1.533271e-01 1.348966e-01 1.052536e+00
-4.766310e-01 1.419136e-01 1.244275e+00
-8.897385e-01 -7.488511e-02 5.921839e-01
-9.696423e-01 -2.489095e-01 -1.875098e-01
-7.084569e-01 -2.218804e-01 -4.568345e-01
-4.251617e-01 -1.506800e-01 -5.171608e-01
-2.108121e-01 -1.061023e-01 -5.649850e-01
-2.234125e-02 1.777981e-01 -0.000000e+00
-6.065685e-01 2.277756e-01 3.132733e-01
-1.384554e+00 4.050024e-01 7.229051e-01
-2.223411e+00 3.815492e-01 1.179201e+00
-2.499746e+00 -1.816797e-01 1.367349e+00
-1.992322e+00 -6.452493e-01 1.123876e+00
-1.190819e+00 -6.166764e-01 6.874792e-01
-4.968456e-01 -4.665262e-01 3.010880e-01
4.593913e-02 -3.655969e-01 -0.000000e+00
6.257232e-02 -2.450531e-01 0.000000e+00
1.049315e-01 -4.124163e-01 -1.988689e-04
2.003913e-01 -7.858908e-01 -1.479741e-04
2.291228e-01 -8.998458e-01 -3.417205e-04
4.490312e-02 -1.837056e-01 -1.061072e-03
-1.397558e-01 5.353091e-01 -1.624422e-03
-1.649315e-01 6.355271e-01 -1.405211e-03
-1.418474e-01 5.500901e-01 -7.337981e-04
-1.291249e-01 5.056943e-01 0.000000e+00
1.316064e-03 -3.789867e-03 -8.574774e-04
1.690934e-02 -6.238531e-02 -5.606864e-04
5.506917e-02 -2.080235e-01 -7.905652e-05
7.181803e-02 -2.750332e-01 2.609384e-04
1.277632e-02 -5.288885e-02 -2.143207e-04
-4.628883e-02 1.711531e-01 -8.417439e-04
-4.854519e-02 1.808847e-01 -4.810512e-04
-3.529704e-02 1.329448e-01 3.220092e-04
-2.818396e-02 1.090274e-01 8.484745e-04
-1.051610e-01 4.126442e-01 -7.753543e-04
-1.358479e-01 5.368644e-01 -4.540466e-04
-1.937545e-01 7.682533e-01 1.395152e-04
-1.919529e-01 7.606704e-01 2.646167e-05
-3.985385e-02 1.571495e-01 -4.456313e-04
1.113375e-01 -4.423309e-01 -2.440754e-04
1.508259e-01 -5.972313e-01 2.643286e-04
1.488242e-01 -5.866260e-01 6.195632e-04
1.457011e-01 -5.714822e-01 8.433282e-04
-1.133654e-01 4.441839e-01 -4.115123e-04
-1.514113e-01 5.978707e-01 -3.491788e-04
-2.272793e-01 8.995157e-01 -2.020759e-04
-2.314785e-01 9.152477e-01 1.263844e-04
-4.660787e-02 1.839697e-01 3.526914e-04
1.370176e-01 -5.416714e-01 1.010289e-04
1.800644e-01 -7.103679e-01 -1.662781e-06
1.729364e-01 -6.799114e-01 1.789662e-04
1.665901e-01 -6.525722e-01 2.998529e-04
1.005141e-06 -3.935512e-06 6.327473e-05
1.401855e-03 3.550725e-04 1.613439e-05
2.865054e-03 7.319704e-04 6.385503e-06
2.836317e-03 7.282730e-04 2.106482e-05
3.902171e-04 1.021277e-04 1.911000e-05
-1.834785e-03 -4.646338e-04 5.575942e-05
-1.878078e-03 -4.791349e-04 3.638434e-05
-8.862972e-04 -2.296308e-04 -2.844280e-05
7.756926e-07 -3.038641e-06 -5.268572e-05
1.134912e-01 -4.441611e-01 6.033092e-04
1.538343e-01 -5.972591e-01 4.160812e-04
2.317878e-01 -8.983646e-01 2.653461e-04
2.356996e-01 -9.141629e-01 -1.330963e-04
4.731495e-02 -1.837851e-01 -2.501893e-04
-1.393812e-01 5.410746e-01 3.244054e-06
-1.826128e-01 7.097194e-01 -2.381318e-06
-1.742281e-01 6.795753e-01 -2.305381e-04
-1.666742e-01 6.525432e-01 -4.056159e-04
1.055842e-01 -4.125440e-01 9.273289e-04
1.382949e-01 -5.362469e-01 5.396093e-04
1.982124e-01 -7.671181e-01 -1.378552e-05
1.962834e-01 -7.595622e-01 1.548568e-05
4.045506e-02 -1.569932e-01 5.136797e-04
-1.143468e-01 4.415684e-01 2.911497e-04
-1.540663e-01 5.964067e-01 -3.091164e-04
-1.506055e-01 5.861685e-01 -6.752490e-04
-1.461349e-01 5.713681e-01 -9.131855e-04
-6.348350e-04 3.958551e-03 9.253893e-04
-1.503346e-02 6.285885e-02 6.167730e-04
-5.148754e-02 2.089334e-01 1.779872e-04
-6.882987e-02 2.757950e-01 -1.180279e-04
-1.418132e-02 5.253155e-02 2.466688e-04
4.141564e-02 -1.723937e-01 8.049881e-04
4.411074e-02 -1.820141e-01 5.015562e-04
3.286128e-02 -1.335653e-01 -3.788639e-04
2.750391e-02 -1.091994e-01 -9.336021e-04
-6.257115e-02 2.450485e-01 -0.000000e+00
-1.056780e-01 4.122207e-01 2.227424e-04
-2.009842e-01 7.857361e-01 1.867819e-04
-2.304567e-01 8.995045e-01 4.105061e-04
-4.882643e-02 1.827044e-01 1.150927e-03
1.340060e-01 -5.367745e-01 1.617126e-03
1.600203e-01 -6.367772e-01 1.363352e-03
1.392808e-01 -5.507436e-01 7.130945e-04
1.291247e-01 -5.056934e-01 -0.000000e+00
6.564146e-02 -1.667607e-01 0.000000e+00
-4.230942e-01 -4.906563e-01 -3.132505e-01
-1.020794e+00 -1.019216e+00 -7.228435e-01
-1.768225e+00 -1.400771e+00 -1.179135e+00
-2.280726e+00 -1.038886e+00 -1.367246e+00
-2.057693e+00 -3.887449e-01 -1.123781e+00
-1.340552e+00 -2.960302e-02 -6.873720e-01
-6.595538e-01 1.711428e-01 -3.010291e-01
-1.349085e-01 3.427322e-01 0.000000e+00
1.356493e-01 4.991225e-02 -3.671137e-01
3.033880e-02 -3.789734e-02 -6.060855e-01
-6.983803e-02 -1.919041e-01 -1.052435e+00
-3.502436e-01 -3.529916e-01 -1.244174e+00
-8.166808e-01 -3.608123e-01 -5.920815e-01
-9.702331e-01 -2.464142e-01 1.875851e-01
-7.280681e-01 -1.447970e-01 4.568558e-01
-4.452843e-01 -7.161167e-02 5.170731e-01
-2.357702e-01 -8.048061e-03 5.648404e-01
-4.557097e-02 3.052009e-01 -2.717283e-01
4.618633e-01 6.017604e-01 -2.619696e-01
1.062106e+00 1.019102e+00 -3.696133e-01
1.700383e+00 1.266458e+00 -2.587473e-01
1.971153e+00 9.016436e-01 3.772836e-01
1.649641e+00 3.035886e-01 8.458021e-01
1.049594e+00 -5.570816e-02 7.814372e-01
4.970860e-01 -2.652339e-01 5.845843e-01
5.033515e-02 -4.292991e-01 4.323807e-01
-1.437795e-01 2.912775e-01 2.156836e-01
4.544152e-01 6.465947e-01 3.779434e-01
1.140397e+00 1.152732e+00 6.272895e-01
1.967953e+00 1.493140e+00 7.521612e-01
2.537008e+00 1.145724e+00 4.523937e-01
2.314519e+00 4.873745e-01 4.646037e-02
1.552206e+00 5.321798e-02 -1.461167e-01
8.052818e-01 -2.172362e-01 -2.353550e-01
2.103109e-01 -4.301034e-01 -3.037039e-01
1.926793e-04 -4.844874e-04 4.995906e-01
7.850259e-04 -5.851000e-04 6.933878e-01
1.735741e-03 -1.938399e-04 1.085574e+00
1.545484e-03 1.533241e-03 1.135597e+00
-5.042679e-04 2.011718e-03 2.559445e-01
-1.453429e-03 3.545448e-04 -6.184519e-01
-5.604862e-04 -8.116636e-04 -8.109732e-01
1.788163e-04 -9.007242e-04 -7.680209e-01
3.207991e-04 -8.223443e-04 -7.339877e-01
1.442693e-01 -2.921844e-01 2.166543e-01
-4.532957e-01 -6.480319e-01 3.789347e-01
-1.139697e+00 -1.154809e+00 6.288047e-01
-1.969204e+00 -1.491430e+00 7.523999e-01
-2.537431e+00 -1.140166e+00 4.508882e-01
-2.311863e+00 -4.844385e-01 4.567761e-02
-1.549299e+00 -5.391282e-02 -1.463574e-01
-8.037466e-01 2.156187e-01 -2.359579e-01
-2.097050e-01 4.283142e-01 -3.044146e-01
4.628278e-02 -3.059058e-01 -2.701372e-01
-4.606196e-01 -6.030033e-01 -2.606274e-01
-1.060839e+00 -1.020704e+00 -3.693842e-01
-1.700086e+00 -1.264379e+00 -2.575070e-01
-1.971492e+00 -8.966971e-01 3.794200e-01
-1.649350e+00 -3.016920e-01 8.453872e-01
-1.048730e+00 5.447055e-02 7.793537e-01
-4.964646e-01 2.634632e-01 5.825703e-01
-5.016143e-02 4.275123e-01 4.304375e-01
-1.347446e-01 -5.039033e-02 -3.654122e-01
-2.942900e-02 3.676804e-02 -6.044698e-01
7.155273e-02 1.908893e-01 -1.050896e+00
3.506914e-01 3.547459e-01 -1.243737e+00
8.137785e-01 3.637348e-01 -5.920301e-01
9.668039e-01 2.466430e-01 1.886405e-01
7.264256e-01 1.429687e-01 4.571725e-01
4.447223e-01 6.971316e-02 5.157778e-01
2.356133e-01 6.408914e-03 5.629320e-01
-6.538945e-02 1.661205e-01 -0.000000e+00
4.216498e-01 4.886506e-01 -3.121205e-01
1.017393e+00 1.015667e+00 -7.204168e-01
1.762406e+00 1.400225e+00 -1.176088e+00
2.276136e+00 1.042191e+00 -1.365598e+00
2.056618e+00 3.898273e-01 -1.123471e+00
1.340344e+00 2.775276e-02 -6.869076e-01
6.592035e-01 -1.730772e-01 -3.004693e-01
1.354395e-01 -3.440813e-01 -0.000000e+00
1.037157e-09 -1.898503e-09 0.000000e+00
-7.118509e-01 -3.888859e-01 -4.431293e-01
-1.643056e+00 -8.976055e-01 -1.022807e+00
-2.679619e+00 -1.463883e+00 -1.668071e+00
-3.105177e+00 -1.696366e+00 -1.932982e+00
-2.550544e+00 -1.393369e+00 -1.587721e+00
-1.559598e+00 -8.520124e-01 -9.708545e-01
-6.829516e-01 -3.730982e-01 -4.251394e-01
4.431850e-09 -8.112447e-09 0.000000e+00
1.792133e-01 9.790467e-02 -5.188030e-01
1.710832e-02 9.346316e-03 -8.570150e-01
-1.692260e-01 -9.244858e-02 -1.488740e+00
-5.660313e-01 -3.092243e-01 -1.759829e+00
-1.106890e+00 -6.046966e-01 -8.371326e-01
-1.231121e+00 -6.725644e-01 2.657923e-01
-9.051447e-01 -4.944828e-01 6.465012e-01
-5.459920e-01 -2.982768e-01 7.312805e-01
-2.758362e-01 -1.506900e-01 7.985159e-01
8.603879e-02 4.700320e-02 -3.839643e-01
8.060207e-01 4.403311e-01 -3.703630e-01
1.687947e+00 9.221294e-01 -5.229262e-01
2.537698e+00 1.386351e+00 -3.662269e-01
2.686304e+00 1.467534e+00 5.333512e-01
2.044762e+00 1.117058e+00 1.196543e+00
1.188276e+00 6.491583e-01 1.105449e+00
4.543211e-01 2.481967e-01 8.266910e-01
-1.369555e-01 -7.481915e-02 6.111898e-01
-3.365588e-02 -1.838629e-02 3.052149e-01
8.177423e-01 4.467347e-01 5.345722e-01
1.838923e+00 1.004608e+00 8.869159e-01
2.949365e+00 1.611245e+00 1.063486e+00
3.450772e+00 1.885165e+00 6.399219e-01
2.896397e+00 1.582309e+00 6.588206e-02
1.818558e+00 9.934830e-01 -2.065764e-01
8.320452e-01 4.545483e-01 -3.328649e-01
4.737187e-02 2.587937e-02 -4.296009e-01
2.277209e-06 1.244983e-06 7.065533e-01
-3.644642e-04 -1.991047e-04 9.805475e-01
1.134718e-04 6.199396e-05 1.535254e+00
9.370961e-04 5.119427e-04 1.605966e+00
1.190861e-04 6.506773e-05 3.619624e-01
-4.840877e-04 -2.644557e-04 -8.746974e-01
2.648787e-04 1.446994e-04 -1.146848e+00
5.158194e-04 2.817893e-04 -1.086117e+00
-3.346085e-06 -1.828627e-06 -1.038101e+00
3.375993e-02 1.844313e-02 3.061403e-01
-8.190322e-01 -4.474393e-01 5.357869e-01
-1.843198e+00 -1.006943e+00 8.894716e-01
-2.954135e+00 -1.613851e+00 1.064213e+00
-3.448532e+00 -1.883942e+00 6.375012e-01
-2.888037e+00 -1.577742e+00 6.440324e-02
-1.811945e+00 -9.898700e-01 -2.070629e-01
-8.294068e-01 -4.531070e-01 -3.336636e-01
-4.745383e-02 -2.592415e-02 -4.303187e-01
-8.570946e-02 -4.682330e-02 -3.824829e-01
-8.070016e-01 -4.408670e-01 -3.686757e-01
-1.690940e+00 -9.237649e-01 -5.223218e-01
-2.539800e+00 -1.387499e+00 -3.637466e-01
-2.684220e+00 -1.466396e+00 5.366536e-01
-2.040347e+00 -1.114647e+00 1.195172e+00
-1.184728e+00 -6.472196e-01 1.101851e+00
-4.528341e-01 -2.473844e-01 8.239599e-01
1.364837e-01 7.456141e-02 6.090657e-01
-1.786580e-01 -9.760133e-02 -5.171844e-01
-1.804368e-02 -9.857311e-03 -8.549604e-01
1.681350e-01 9.185259e-02 -1.485922e+00
5.651898e-01 3.087646e-01 -1.758575e+00
1.105307e+00 6.038322e-01 -8.374879e-01
1.230081e+00 6.719961e-01 2.662576e-01
9.053010e-01 4.945682e-01 6.461558e-01
5.460588e-01 2.983133e-01 7.293947e-01
2.751402e-01 1.503098e-01 7.964839e-01
1.847094e-09 -3.381083e-09 -0.000000e+00
7.088811e-01 3.872635e-01 -4.412882e-01
1.635762e+00 8.936210e-01 -1.018285e+00
2.670981e+00 1.459164e+00 -1.662723e+00
3.103364e+00 1.695376e+00 -1.931887e+00
2.554695e+00 1.395636e+00 -1.590333e+00
1.562524e+00 8.536106e-01 -9.726926e-01
6.834664e-01 3.733794e-01 -4.254672e-01
3.732139e-09 -6.831635e-09 -0.000000e+00
-1.048581e-01 1.453366e-01 0.000000e+00
-6.414718e-01 -9.091873e-02 -3.132505e-01
-1.409178e+00 -3.082840e-01 -7.228435e-01
-2.134084e+00 -7.310702e-01 -1.179135e+00
-2.106474e+00 -1.357852e+00 -1.367246e+00
-1.438894e+00 -1.521449e+00 -1.123781e+00
-7.492136e-01 -1.112041e+00 -6.873720e-01
-2.123467e-01 -6.474642e-01 -3.010291e-01
2.155078e-01 -2.987005e-01 0.000000e+00
1.152913e-01 8.717722e-02 -3.671137e-01
-1.549740e-02 4.600524e-02 -6.060855e-01
-1.992154e-01 4.491958e-02 -1.052435e+00
-4.862696e-01 -1.039977e-01 -1.244174e+00
-7.448676e-01 -4.922655e-01 -5.920815e-01
-7.315696e-01 -6.832849e-01 1.875851e-01
-5.152193e-01 -5.344140e-01 4.568559e-01
-3.008473e-01 -3.360019e-01 5.170731e-01
-1.341594e-01 -1.940454e-01 5.648404e-01
2.321956e-01 -2.032474e-01 -2.717283e-01
7.559097e-01 6.351202e-02 -2.619696e-01
1.431404e+00 3.431084e-01 -3.696133e-01
1.984408e+00 7.465523e-01 -2.587473e-01
1.823725e+00 1.171508e+00 3.772836e-01
1.146766e+00 1.224095e+00 8.458021e-01
5.202213e-01 9.133021e-01 7.814372e-01
4.539012e-02 5.615899e-01 5.845843e-01
-3.340465e-01 2.743069e-01 4.323807e-01
1.674172e-01 -2.783642e-01 2.156836e-01
7.896122e-01 3.302058e-02 3.779434e-01
1.586150e+00 3.367869e-01 6.272895e-01
2.319724e+00 8.492284e-01 7.521612e-01
2.334844e+00 1.515781e+00 4.523937e-01
1.660652e+00 1.684271e+00 4.646037e-02
8.834418e-01 1.277382e+00 -1.461167e-01
2.522977e-01 7.949945e-01 -2.353550e-01
-2.482881e-01 4.093563e-01 -3.037038e-01
-3.035781e-04 4.239051e-04 4.995906e-01
-6.819646e-05 9.767103e-04 6.933878e-01
7.747129e-04 1.565314e-03 1.085574e+00
2.125204e-03 4.720720e-04 1.135597e+00
1.420336e-03 -1.511252e-03 2.559445e-01
-4.869530e-04 -1.414575e-03 -6.184519e-01
-9.858169e-04 -3.309113e-05 -8.109732e-01
-6.613153e-04 6.371288e-04 -7.680209e-01
-5.186504e-04 7.142578e-04 -7.339877e-01
-1.679157e-01 2.792663e-01 2.166543e-01
-7.902168e-01 -3.130209e-02 3.789347e-01
-1.587519e+00 -3.350758e-01 6.288047e-01
-2.318961e+00 -8.512049e-01 7.523999e-01
-2.330397e+00 -1.519141e+00 4.508882e-01
-1.656746e+00 -1.683622e+00 4.567761e-02
-8.824560e-01 -1.274561e+00 -1.463574e-01
-2.528293e-01 -7.928288e-01 -2.359579e-01
2.471099e-01 -4.078799e-01 -3.044147e-01
-2.324042e-01 2.042272e-01 -2.701372e-01
-7.562836e-01 -6.179393e-02 -2.606274e-01
-1.432066e+00 -3.411764e-01 -3.693842e-01
-1.982499e+00 -7.474261e-01 -2.575070e-01
-1.819746e+00 -1.174465e+00 3.794200e-01
-1.145013e+00 -1.224875e+00 8.453872e-01
-5.207956e-01 -9.119061e-01 7.793537e-01
-4.654436e-02 -5.601103e-01 5.825703e-01
3.326368e-01 -2.731953e-01 4.304375e-01
-1.152048e-01 -8.615769e-02 -3.654122e-01
1.503869e-02 -4.462951e-02 -6.044698e-01
1.992879e-01 -4.292840e-02 -1.050896e+00
4.879878e-01 1.034266e-01 -1.243737e+00
7.457587e-01 4.882443e-01 -5.920301e-01
7.299093e-01 6.802756e-01 1.886405e-01
5.127934e-01 5.340197e-01 4.571725e-01
2.989461e-01 3.365548e-01 5.157778e-01
1.326953e-01 1.947990e-01 5.629320e-01
1.044555e-01 -1.447786e-01 -0.000000e+00
6.390036e-01 9.078708e-02 -3.121205e-01
1.404354e+00 3.073393e-01 -7.204168e-01
2.130481e+00 7.264686e-01 -1.176088e+00
2.106775e+00 1.352205e+00 -1.365598e+00
1.439224e+00 1.519960e+00 -1.123471e+00
7.475439e-01 1.112865e+00 -6.869076e-01
2.105298e-01 6.482146e-01 -3.004693e-01
-2.163561e-01 2.998763e-01 -0.000000e+00
-1.723971e-01 1.850555e-01 0.000000e+00
-2.903416e-01 3.111263e-01 -1.988712e-04
-5.530325e-01 5.932421e-01 -1.479805e-04
-6.333986e-01 6.789889e-01 -3.417256e-04
-1.303217e-01 1.370412e-01 -1.061069e-03
3.749367e-01 -4.068292e-01 -1.624416e-03
4.456647e-01 -4.821618e-01 -1.405208e-03
3.862444e-01 -4.165754e-01 -7.337983e-04
3.557606e-01 -3.818827e-01 0.000000e+00
-2.477993e-03 3.155106e-03 -8.574792e-04
-4.335928e-02 4.793565e-02 -5.606913e-04
-1.452917e-01 1.587347e-01 -7.906237e-05