<?xml version="1.0"?>
<VTKFile type="StructuredGrid" version="0.1">
  <StructuredGrid WholeExtent="0 8 0 8 0 8">
    <Piece Extent="0 8 0 8 0 8">
      <PointData Scalars="temperature" Vectors="velocity">
        <DataArray type="Float32" Name="temperature" format="ascii">
1.000000e+00
8.971705e-01
7.710296e-01
6.505533e-01
5.618534e-01
4.007696e-01
2.714960e-01
1.482656e-01
0.000000e+00
1.000000e+00
8.968989e-01
7.704458e-01
6.471429e-01
5.361266e-01
3.973157e-01
2.709376e-01
1.479974e-01
0.000000e+00
1.000000e+00
8.963943e-01
7.693948e-01
6.406874e-01
4.906196e-01
3.916636e-01
2.699342e-01
1.475020e-01
0.000000e+00
1.000000e+00
8.963068e-01
7.692040e-01
6.393724e-01
4.815681e-01
3.906279e-01
2.697447e-01
1.474094e-01
0.000000e+00
1.000000e+00
8.967628e-01
7.701434e-01
6.450562e-01
5.202118e-01
3.953580e-01
2.706258e-01
1.478457e-01
0.000000e+00
1.000000e+00
8.972191e-01
7.710813e-01
6.503007e-01
5.589270e-01
4.004982e-01
2.715103e-01
1.482823e-01
0.000000e+00
1.000000e+00
8.971316e-01
7.708907e-01
6.491604e-01
5.498482e-01
3.992991e-01
2.713192e-01
1.481898e-01
0.000000e+00
1.000000e+00
8.966295e-01
7.698427e-01
6.429150e-01
5.043126e-01
3.934583e-01
2.703159e-01
1.476966e-01
0.000000e+00
1.000000e+00
8.963202e-01
7.692223e-01
6.390616e-01
4.786231e-01
3.903605e-01
2.697332e-01
1.474011e-01
0.000000e+00
1.000000e+00
8.970459e-01
7.707645e-01
6.490051e-01
5.496509e-01
3.991235e-01
2.712373e-01
1.481389e-01
0.000000e+00
1.000000e+00
8.968595e-01
7.703571e-01
6.465672e-01
5.314731e-01
3.967173e-01
2.708469e-01
1.479533e-01
0.000000e+00
1.000000e+00
8.965022e-01
7.696138e-01
6.420184e-01
4.992896e-01
3.927043e-01
2.701370e-01
1.476026e-01
0.000000e+00
1.000000e+00
8.964403e-01
7.694792e-01
6.411025e-01
4.928857e-01
3.919583e-01
2.700029e-01
1.475371e-01
0.000000e+00
1.000000e+00
8.967629e-01
7.701432e-01
6.450875e-01
5.202211e-01
3.953372e-01
2.706262e-01
1.478456e-01
0.000000e+00
1.000000e+00
8.970854e-01
7.708063e-01
6.488301e-01
5.475873e-01
3.989375e-01
2.712512e-01
1.481544e-01
0.000000e+00
1.000000e+00
8.970236e-01
7.706714e-01
6.480098e-01
5.411710e-01
3.981034e-01
2.711162e-01
1.480890e-01
0.000000e+00
1.000000e+00
8.966690e-01
7.699307e-01
6.435776e-01
5.089771e-01
3.939898e-01
2.704074e-01
1.477406e-01
0.000000e+00
1.000000e+00
8.964446e-01
7.694869e-01
6.408791e-01
4.907974e-01
3.917632e-01
2.699911e-01
1.475277e-01
0.000000e+00
1.000000e+00
8.967451e-01
7.701255e-01
6.450768e-01
5.202101e-01
3.953216e-01
2.706138e-01
1.478332e-01
0.000000e+00
1.000000e+00
8.967642e-01
7.701436e-01
6.451160e-01
5.202307e-01
3.953200e-01
2.706275e-01
1.478469e-01
0.000000e+00
1.000000e+00
8.967628e-01
7.701425e-01
6.451043e-01
5.202267e-01
3.953263e-01
2.706265e-01
1.478458e-01
0.000000e+00
1.000000e+00
8.967628e-01
7.701428e-01
6.450960e-01
5.202254e-01
3.953327e-01
2.706265e-01
1.478457e-01
0.000000e+00
1.000000e+00
8.967629e-01
7.701430e-01
6.451188e-01
5.202304e-01
3.953164e-01
2.706266e-01
1.478456e-01
0.000000e+00
1.000000e+00
8.967628e-01
7.701428e-01
6.450960e-01
5.202254e-01
3.953327e-01
2.706265e-01
1.478457e-01
0.000000e+00
1.000000e+00
8.967629e-01
7.701425e-01
6.451043e-01
5.202267e-01
3.953263e-01
2.706265e-01
1.478458e-01
0.000000e+00
1.000000e+00
8.967642e-01
7.701436e-01
6.451159e-01
5.202306e-01
3.953200e-01
2.706275e-01
1.478469e-01
0.000000e+00
1.000000e+00
8.967451e-01
7.701254e-01
6.450767e-01
5.202100e-01
3.953216e-01
2.706138e-01
1.478333e-01
0.000000e+00
1.000000e+00
8.964446e-01
7.694869e-01
6.408791e-01
4.907975e-01
3.917632e-01
2.699911e-01
1.475277e-01
0.000000e+00
1.000000e+00
8.966690e-01
7.699307e-01
6.435776e-01
5.089771e-01
3.939898e-01
2.704074e-01
1.477406e-01
0.000000e+00
1.000000e+00
8.970236e-01
7.706714e-01
6.480098e-01
5.411710e-01
3.981033e-01
2.711162e-01
1.480890e-01
0.000000e+00
1.000000e+00
8.970854e-01
7.708063e-01
6.488301e-01
5.475872e-01
3.989375e-01
2.712512e-01
1.481544e-01
0.000000e+00
1.000000e+00
8.967629e-01
7.701432e-01
6.450875e-01
5.202211e-01
3.953372e-01
2.706262e-01
1.478456e-01
0.000000e+00
1.000000e+00
8.964403e-01
7.694792e-01
6.411025e-01
4.928857e-01
3.919583e-01
2.700029e-01
1.475371e-01
0.000000e+00
1.000000e+00
8.965022e-01
7.696139e-01
6.420184e-01
4.992896e-01
3.927043e-01
2.701370e-01
1.476026e-01
0.000000e+00
1.000000e+00
8.968595e-01
7.703571e-01
6.465672e-01
5.314731e-01
3.967173e-01
2.708468e-01
1.479533e-01
0.000000e+00
1.000000e+00
8.970459e-01
7.707645e-01
6.490050e-01
5.496508e-01
3.991234e-01
2.712373e-01
1.481389e-01
0.000000e+00
1.000000e+00
8.963202e-01
7.692224e-01
6.390616e-01
4.786231e-01
3.903606e-01
2.697333e-01
1.474012e-01
0.000000e+00
1.000000e+00
8.966296e-01
7.698427e-01
6.429150e-01
5.043126e-01
3.934584e-01
2.703160e-01
1.476966e-01
0.000000e+00
1.000000e+00
8.971316e-01
7.708907e-01
6.491604e-01
5.498482e-01
3.992990e-01
2.713191e-01
1.481898e-01
0.000000e+00
1.000000e+00
8.972191e-01
7.710812e-01
6.503007e-01
5.589269e-01
4.004981e-01
2.715103e-01
1.482823e-01
0.000000e+00
1.000000e+00
8.967628e-01
7.701434e-01
6.450562e-01
5.202118e-01
3.953580e-01
2.706258e-01
1.478457e-01
0.000000e+00
1.000000e+00
8.963068e-01
7.692041e-01
6.393724e-01
4.815682e-01
3.906280e-01
2.697447e-01
1.474094e-01
0.000000e+00
1.000000e+00
8.963943e-01
7.693948e-01
6.406874e-01
4.906196e-01
3.916637e-01
2.699342e-01
1.475020e-01
0.000000e+00
1.000000e+00
8.968989e-01
7.704458e-01
6.471428e-01
5.361265e-01
3.973156e-01
2.709375e-01
1.479974e-01
0.000000e+00
1.000000e+00
8.971705e-01
7.710295e-01
6.505532e-01
5.618534e-01
4.007695e-01
2.714959e-01
1.482655e-01
0.000000e+00
1.000000e+00
8.964446e-01
7.694869e-01
6.408791e-01
4.907975e-01
3.917632e-01
2.699911e-01
1.475277e-01
0.000000e+00
1.000000e+00
8.966690e-01
7.699307e-01
6.435776e-01
5.089771e-01
3.939898e-01
2.704074e-01
1.477406e-01
0.000000e+00
1.000000e+00
8.970236e-01
7.706714e-01
6.480098e-01
5.411710e-01
3.981033e-01
2.711162e-01
1.480890e-01
0.000000e+00
1.000000e+00
8.970854e-01
7.708063e-01
6.488301e-01
5.475872e-01
3.989375e-01
2.712512e-01
1.481544e-01
0.000000e+00
1.000000e+00
8.967629e-01
7.701432e-01
6.450875e-01
5.202211e-01
3.953372e-01
2.706262e-01
1.478456e-01
0.000000e+00
1.000000e+00
8.964403e-01
7.694792e-01
6.411025e-01
4.928857e-01
3.919583e-01
2.700029e-01
1.475371e-01
0.000000e+00
1.000000e+00
8.965022e-01
7.696139e-01
6.420184e-01
4.992896e-01
3.927043e-01
2.701370e-01
1.476026e-01
0.000000e+00
1.000000e+00
8.968595e-01
7.703571e-01
6.465672e-01
5.314731e-01
3.967173e-01
2.708468e-01
1.479533e-01
0.000000e+00
1.000000e+00
8.970459e-01
7.707645e-01
6.490050e-01
5.496508e-01
3.991234e-01
2.712373e-01
1.481389e-01
0.000000e+00
1.000000e+00
8.967451e-01
7.701255e-01
6.450768e-01
5.202101e-01
3.953216e-01
2.706138e-01
1.478332e-01
0.000000e+00
1.000000e+00
8.967642e-01
7.701436e-01
6.451160e-01
5.202307e-01
3.953200e-01
2.706275e-01
1.478469e-01
0.000000e+00
1.000000e+00
8.967628e-01
7.701425e-01
6.451043e-01
5.202267e-01
3.953263e-01
2.706265e-01
1.478458e-01
0.000000e+00
1.000000e+00
8.967628e-01
7.701428e-01
6.450960e-01
5.202254e-01
3.953327e-01
2.706265e-01
1.478457e-01
0.000000e+00
1.000000e+00
8.967629e-01
7.701430e-01
6.451188e-01
5.202304e-01
3.953164e-01
2.706266e-01
1.478456e-01
0.000000e+00
1.000000e+00
8.967628e-01
7.701428e-01
6.450960e-01
5.202254e-01
3.953327e-01
2.706265e-01
1.478457e-01
0.000000e+00
1.000000e+00
8.967629e-01
7.701425e-01
6.451043e-01
5.202267e-01
3.953263e-01
2.706265e-01
1.478458e-01
0.000000e+00
1.000000e+00
8.967642e-01
7.701436e-01
6.451159e-01
5.202306e-01
3.953200e-01
2.706275e-01
1.478469e-01
0.000000e+00
1.000000e+00
8.967451e-01
7.701254e-01
6.450767e-01
5.202100e-01
3.953216e-01
2.706138e-01
1.478333e-01
0.000000e+00
1.000000e+00
8.970459e-01
7.707645e-01
6.490051e-01
5.496509e-01
3.991235e-01
2.712373e-01
1.481389e-01
0.000000e+00
1.000000e+00
8.968595e-01
7.703571e-01
6.465672e-01
5.314731e-01
3.967173e-01
2.708469e-01
1.479533e-01
0.000000e+00
1.000000e+00
8.965022e-01
7.696138e-01
6.420184e-01
4.992896e-01
3.927043e-01
2.701370e-01
1.476026e-01
0.000000e+00
1.000000e+00
8.964403e-01
7.694792e-01
6.411025e-01
4.928857e-01
3.919583e-01
2.700029e-01
1.475371e-01
0.000000e+00
1.000000e+00
8.967629e-01
7.701432e-01
6.450875e-01
5.202211e-01
3.953372e-01
2.706262e-01
1.478456e-01
0.000000e+00
1.000000e+00
8.970854e-01
7.708063e-01
6.488301e-01
5.475873e-01
3.989375e-01
2.712512e-01
1.481544e-01
0.000000e+00
1.000000e+00
8.970236e-01
7.706714e-01
6.480098e-01
5.411710e-01
3.981034e-01
2.711162e-01
1.480890e-01
0.000000e+00
1.000000e+00
8.966690e-01
7.699307e-01
6.435776e-01
5.089771e-01
3.939898e-01
2.704074e-01
1.477406e-01
0.000000e+00
1.000000e+00
8.964446e-01
7.694869e-01
6.408791e-01
4.907974e-01
3.917632e-01
2.699911e-01
1.475277e-01
0.000000e+00
1.000000e+00
8.971705e-01
7.710296e-01
6.505533e-01
5.618534e-01
4.007696e-01
2.714960e-01
1.482656e-01
0.000000e+00
1.000000e+00
8.968989e-01
7.704458e-01
6.471429e-01
5.361266e-01
3.973157e-01
2.709376e-01
1.479974e-01
0.000000e+00
1.000000e+00
8.963943e-01
7.693948e-01
6.406874e-01
4.906196e-01
3.916636e-01
2.699342e-01
1.475020e-01
0.000000e+00
1.000000e+00
8.963068e-01
7.692040e-01
6.393724e-01
4.815681e-01
3.906279e-01
2.697447e-01
1.474094e-01
0.000000e+00
1.000000e+00
8.967628e-01
7.701434e-01
6.450562e-01
5.202118e-01
3.953580e-01
2.706258e-01
1.478457e-01
0.000000e+00
1.000000e+00
8.972191e-01
7.710813e-01
6.503007e-01
5.589270e-01
4.004982e-01
2.715103e-01
1.482823e-01
0.000000e+00
1.000000e+00
8.971316e-01
7.708907e-01
6.491604e-01
5.498482e-01
3.992991e-01
2.713192e-01
1.481898e-01
0.000000e+00
1.000000e+00
8.966295e-01
7.698427e-01
6.429150e-01
5.043126e-01
3.934583e-01
2.703159e-01
1.476966e-01
0.000000e+00
1.000000e+00
8.963202e-01
7.692223e-01
6.390616e-01
4.786231e-01
3.903605e-01
2.697332e-01
1.474011e-01
0.000000e+00
        </DataArray>
        <DataArray type="Float32" Name="velocity" NumberOfComponents="3" format="ascii">
0.000000e+00 0.000000e+00 0.000000e+00
8.522178e-01 0.000000e+00 4.655647e-01
1.930048e+00 0.000000e+00 1.054381e+00
3.097375e+00 0.000000e+00 1.692089e+00
3.579864e+00 0.000000e+00 1.955672e+00
2.973810e+00 0.000000e+00 1.624585e+00
1.849227e+00 0.000000e+00 1.010228e+00
8.193297e-01 0.000000e+00 4.475979e-01
0.000000e+00 0.000000e+00 0.000000e+00
-2.183420e-01 0.000000e+00 5.546993e-01
-2.344683e-02 0.000000e+00 8.967671e-01
2.017474e-01 0.000000e+00 1.510527e+00
6.606494e-01 0.000000e+00 1.746539e+00
1.258244e+00 0.000000e+00 8.544590e-01
1.404288e+00 0.000000e+00 -2.298535e-01
1.057475e+00 0.000000e+00 -6.491894e-01
6.520085e-01 0.000000e+00 -7.656493e-01
3.326483e-01 0.000000e+00 -8.450952e-01
-1.044010e-01 0.000000e+00 4.088735e-01
-9.792953e-01 0.000000e+00 3.814793e-01
-2.013284e+00 0.000000e+00 5.133767e-01
-2.970177e+00 0.000000e+00 3.281327e-01
-3.129870e+00 0.000000e+00 -5.432916e-01
-2.406219e+00 0.000000e+00 -1.188489e+00
-1.418924e+00 0.000000e+00 -1.126460e+00
-5.481170e-01 0.000000e+00 -8.643982e-01
1.646394e-01 0.000000e+00 -6.447900e-01
4.180279e-02 0.000000e+00 -3.326886e-01
-9.945486e-01 0.000000e+00 -5.700395e-01
-2.199462e+00 0.000000e+00 -9.184131e-01
-3.461505e+00 0.000000e+00 -1.073282e+00
-4.008027e+00 0.000000e+00 -6.543985e-01
-3.378699e+00 0.000000e+00 -8.650827e-02
-2.153199e+00 0.000000e+00 2.069744e-01
-9.985063e-01 0.000000e+00 3.540395e-01
-5.793416e-02 0.000000e+00 4.610705e-01
-2.803997e-06 0.000000e+00 -7.633652e-01
-7.482889e-04 0.000000e+00 -1.036936e+00
6.532340e-05 0.000000e+00 -1.566849e+00
1.541325e-03 0.000000e+00 -1.593090e+00
2.481302e-04 0.000000e+00 -3.808453e-01
-7.518003e-04 0.000000e+00 8.421758e-01
6.012571e-04 0.000000e+00 1.168225e+00
9.856646e-04 0.000000e+00 1.146142e+00
4.068058e-06 0.000000e+00 1.107495e+00
-4.160945e-02 0.000000e+00 -3.311302e-01
9.919314e-01 0.000000e+00 -5.679627e-01
2.191476e+00 0.000000e+00 -9.143310e-01
3.453009e+00 0.000000e+00 -1.072160e+00
4.012479e+00 0.000000e+00 -6.582685e-01
3.394333e+00 0.000000e+00 -8.906884e-02
2.165890e+00 0.000000e+00 2.059584e-01
1.003756e+00 0.000000e+00 3.526430e-01
5.778600e-02 0.000000e+00 4.598641e-01
1.050382e-01 0.000000e+00 4.113565e-01
9.773012e-01 0.000000e+00 3.843206e-01
2.007671e+00 0.000000e+00 5.146460e-01
2.966374e+00 0.000000e+00 3.322450e-01
3.133842e+00 0.000000e+00 -5.381199e-01
2.414578e+00 0.000000e+00 -1.190736e+00
1.425781e+00 0.000000e+00 -1.132422e+00
5.510222e-01 0.000000e+00 -8.691361e-01
-1.655934e-01 0.000000e+00 -6.485065e-01
2.193908e-01 0.000000e+00 5.573517e-01
2.159677e-02 0.000000e+00 9.002645e-01
-2.040168e-01 0.000000e+00 1.515250e+00
-6.624635e-01 0.000000e+00 1.748844e+00
-1.261207e+00 0.000000e+00 8.541838e-01
-1.406193e+00 0.000000e+00 -2.291098e-01
-1.057223e+00 0.000000e+00 -6.498865e-01
-6.519404e-01 0.000000e+00 -7.688409e-01
-3.340145e-01 0.000000e+00 -8.485477e-01
0.000000e+00 0.000000e+00 -0.000000e+00
-8.579068e-01 0.000000e+00 4.686807e-01
-1.943589e+00 0.000000e+00 1.061797e+00
-3.113106e+00 0.000000e+00 1.700712e+00
-3.583275e+00 0.000000e+00 1.957569e+00
-2.966392e+00 0.000000e+00 1.620561e+00
-1.843771e+00 0.000000e+00 1.007265e+00
-8.182174e-01 0.000000e+00 4.469981e-01
0.000000e+00 0.000000e+00 -0.000000e+00
2.342341e-02 -1.864103e-01 0.000000e+00
6.368211e-01 -2.321002e-01 3.293713e-01
1.426625e+00 -3.982805e-01 7.461545e-01
2.254194e+00 -3.642144e-01 1.197046e+00
2.528260e+00 1.727845e-01 1.382174e+00
2.036880e+00 6.287011e-01 1.146882e+00
1.236544e+00 6.249458e-01 7.128151e-01
5.213228e-01 4.871859e-01 3.157574e-01
-4.850026e-02 3.859791e-01 0.000000e+00
-1.531817e-01 -1.777016e-02 3.917512e-01
-1.034984e-02 -4.277877e-02 6.339557e-01
1.614347e-01 -1.264205e-01 1.068401e+00
4.889329e-01 -1.331843e-01 1.235418e+00
8.877591e-01 6.838265e-02 6.038634e-01
9.690268e-01 2.377315e-01 -1.631503e-01
7.237016e-01 2.212191e-01 -4.595480e-01
4.440249e-01 1.550950e-01 -5.414204e-01
2.230538e-01 1.101367e-01 -5.971327e-01
-1.139141e-01 3.154671e-01 2.886156e-01
-7.378149e-01 3.281583e-01 2.695729e-01
-1.481921e+00 3.951613e-01 3.631506e-01
-2.150480e+00 2.860073e-01 2.324086e-01
-2.210718e+00 -1.594604e-01 -3.840176e-01
-1.651075e+00 -5.251006e-01 -8.408513e-01
-9.420612e-01 -5.671356e-01 -7.968941e-01
-3.294274e-01 -4.962397e-01 -6.110955e-01
1.707728e-01 -4.262032e-01 -4.554889e-01
-1.434592e-02 3.515966e-01 -2.355821e-01
-7.540920e-01 3.712841e-01 -4.032370e-01
-1.624058e+00 4.728805e-01 -6.492493e-01
-2.508267e+00 3.509161e-01 -7.587257e-01
-2.829289e+00 -2.170565e-01 -4.629152e-01
-2.325217e+00 -6.790979e-01 -6.135036e-02
-1.447413e+00 -7.128754e-01 1.463039e-01
-6.366772e-01 -6.048871e-01 2.504152e-01
2.230528e-02 -5.063271e-01 3.262594e-01
-1.190318e-04 9.313857e-04 -5.398112e-01
6.947592e-04 1.513347e-03 -7.333235e-01
2.337476e-03 1.587462e-03 -1.107931e+00
3.338842e-03 -1.037945e-03 -1.126577e+00
8.940370e-04 -3.275348e-03 -2.692785e-01
-1.711744e-03 -1.706212e-03 5.955111e-01
-1.421413e-03 6.781208e-04 8.261300e-01
-4.926759e-04 1.487841e-03 8.105086e-01
-1.897708e-04 1.533324e-03 7.831287e-01
1.431870e-02 -3.497367e-01 -2.339378e-01
7.545942e-01 -3.682302e-01 -4.015503e-01
1.623602e+00 -4.695083e-01 -6.468254e-01
2.508105e+00 -3.544109e-01 -7.583681e-01
2.833220e+00 2.088490e-01 -4.653277e-01
2.331374e+00 6.768193e-01 -6.273744e-02
1.451181e+00 7.160508e-01 1.457597e-01
6.377038e-01 6.085767e-01 2.493578e-01
-2.286745e-02 5.096006e-01 3.250490e-01
1.143923e-01 -3.137436e-01 2.913065e-01
7.386501e-01 -3.253060e-01 2.718369e-01
1.482596e+00 -3.920164e-01 3.637226e-01
2.152630e+00 -2.888343e-01 2.345026e-01
2.214155e+00 1.521712e-01 -3.806584e-01
1.653054e+00 5.224817e-01 -8.415459e-01
9.423790e-01 5.694850e-01 -8.003628e-01
3.288847e-01 4.993992e-01 -6.145859e-01
-1.720131e-01 4.291102e-01 -4.588750e-01
1.541116e-01 1.928501e-02 3.945664e-01
1.077530e-02 4.517828e-02 6.366963e-01
-1.598610e-01 1.290760e-01 1.071022e+00
-4.871090e-01 1.309244e-01 1.236359e+00
-8.897113e-01 -7.480120e-02 6.041887e-01
-9.738088e-01 -2.408565e-01 -1.614182e-01
-7.276465e-01 -2.199957e-01 -4.590975e-01
-4.464845e-01 -1.527261e-01 -5.436108e-01
-2.246483e-01 -1.077396e-01 -6.003795e-01
-2.357658e-02 1.876293e-01 -0.000000e+00
-6.405070e-01 2.339037e-01 3.312521e-01
-1.434249e+00 4.005091e-01 7.501482e-01
-2.262887e+00 3.603726e-01 1.202041e+00
-2.532433e+00 -1.809902e-01 1.385020e+00
-2.037864e+00 -6.312417e-01 1.147608e+00
-1.238422e+00 -6.225870e-01 7.136850e-01
-5.233728e-01 -4.845617e-01 3.166953e-01
4.818093e-02 -3.834378e-01 -0.000000e+00
6.595207e-02 -2.582892e-01 0.000000e+00
1.081574e-01 -4.260852e-01 -3.387819e-04
2.004648e-01 -7.874280e-01 -3.168522e-04
2.230920e-01 -8.788548e-01 -6.968191e-04
4.556409e-02 -1.924996e-01 -1.899775e-03
-1.347653e-01 5.072836e-01 -2.770716e-03
-1.668140e-01 6.355570e-01 -2.397637e-03
-1.481161e-01 5.707232e-01 -1.263205e-03
-1.356283e-01 5.311635e-01 0.000000e+00
3.225466e-04 1.174858e-03 -1.532393e-03
1.636508e-02 -5.753787e-02 -1.062221e-03
5.426117e-02 -2.004541e-01 -3.224285e-04
6.939405e-02 -2.622727e-01 1.890067e-04
1.261887e-02 -5.483948e-02 -4.753552e-04
-4.487041e-02 1.584146e-01 -1.352949e-03
-4.880918e-02 1.750104e-01 -8.126645e-04
-3.618340e-02 1.325647e-01 5.950632e-04
-2.862396e-02 1.096520e-01 1.538949e-03
-1.138294e-01 4.474003e-01 -1.558188e-03
-1.435163e-01 5.708033e-01 -9.890170e-04
-1.976034e-01 7.892907e-01 -4.951352e-05
-1.901599e-01 7.592076e-01 -1.214456e-04
-4.206701e-02 1.662632e-01 -7.934524e-04
1.071762e-01 -4.305812e-01 -4.019331e-04
1.533515e-01 -6.124065e-01 5.146802e-04
1.568366e-01 -6.209833e-01 1.216434e-03
1.555415e-01 -6.108384e-01 1.636125e-03
-1.222299e-01 4.792135e-01 -1.028175e-03
-1.591735e-01 6.321229e-01 -8.562063e-04
-2.305975e-01 9.189240e-01 -5.702311e-04
-2.283858e-01 9.088951e-01 9.236690e-05
-4.901653e-02 1.942979e-01 4.513343e-04
1.317302e-01 -5.244686e-01 1.571420e-04
1.825926e-01 -7.243751e-01 1.589602e-04
1.816890e-01 -7.163223e-01 5.202689e-04
1.772177e-01 -6.944372e-01 7.810308e-04
1.497369e-06 -5.866732e-06 -1.724835e-04
2.427966e-03 6.150283e-04 -2.504547e-04
4.815506e-03 1.229531e-03 -1.996922e-04
4.675900e-03 1.197306e-03 -1.146841e-04
6.833851e-04 1.801487e-04 -2.898231e-05
-2.978590e-03 -7.574693e-04 6.916740e-05
-3.152553e-03 -8.038514e-04 1.840425e-04
-1.542932e-03 -3.964540e-04 1.925028e-04
1.203166e-06 -4.709241e-06 1.844883e-04
1.224433e-01 -4.791705e-01 7.012584e-04
1.634132e-01 -6.310506e-01 4.428327e-04
2.382730e-01 -9.169653e-01 2.033330e-04
2.354628e-01 -9.070824e-01 -3.025854e-04
5.027829e-02 -1.939655e-01 -4.915152e-04
-1.355907e-01 5.234882e-01 -4.439290e-05
-1.868818e-01 7.232830e-01 9.287670e-05
-1.839098e-01 7.157516e-01 -1.963470e-04
-1.773634e-01 6.943909e-01 -4.336658e-04
1.145489e-01 -4.472267e-01 1.340131e-03
1.477420e-01 -5.697341e-01 7.014760e-04
2.050979e-01 -7.873809e-01 -1.675918e-04
1.972912e-01 -7.573848e-01 -3.433374e-05
4.306263e-02 -1.660008e-01 7.652684e-04
-1.121018e-01 4.293283e-01 4.615270e-04
-1.588137e-01 6.110152e-01 -4.557435e-04
-1.599274e-01 6.201930e-01 -1.026667e-03
-1.562972e-01 6.106402e-01 -1.423606e-03
8.149674e-04 -8.920568e-04 1.445348e-03
-1.317637e-02 5.834456e-02 9.211533e-04
-4.839931e-02 2.019463e-01 1.988549e-04
-6.468247e-02 2.634750e-01 -2.354226e-04
-1.505920e-02 5.422129e-02 4.475580e-04
3.676574e-02 -1.604806e-01 1.366054e-03
4.127739e-02 -1.769301e-01 7.821363e-04
3.196009e-02 -1.336416e-01 -5.977935e-04
2.746287e-02 -1.099498e-01 -1.506222e-03
-6.595083e-02 2.582844e-01 -0.000000e+00
-1.092979e-01 4.257879e-01 3.050761e-04
-2.014702e-01 7.871688e-01 2.503892e-04
-2.255008e-01 8.782399e-01 6.613213e-04
-5.227286e-02 1.907896e-01 1.882416e-03
1.250674e-01 -5.097573e-01 2.696906e-03
1.584772e-01 -6.376817e-01 2.302399e-03
1.437254e-01 -5.718422e-01 1.212120e-03
1.356284e-01 -5.311639e-01 -0.000000e+00
6.926910e-02 -1.759767e-01 0.000000e+00
-4.500085e-01 -5.123544e-01 -3.312737e-01
-1.066743e+00 -1.039120e+00 -7.501836e-01
-1.813190e+00 -1.401258e+00 -1.202090e+00
-2.309326e+00 -1.055226e+00 -1.385053e+00
-2.091089e+00 -4.228860e-01 -1.147589e+00
-1.385246e+00 -4.729567e-02 -7.136317e-01
-6.915085e-01 1.742380e-01 -3.166535e-01
-1.414962e-01 3.594682e-01 0.000000e+00
1.445219e-01 5.697902e-02 -3.946639e-01
3.106350e-02 -3.450456e-02 -6.368096e-01
-7.850931e-02 -1.899783e-01 -1.071142e+00
-3.648526e-01 -3.484670e-01 -1.236473e+00
-8.168205e-01 -3.609364e-01 -6.041616e-01
-9.702634e-01 -2.554959e-01 1.615357e-01
-7.441607e-01 -1.557690e-01 4.591198e-01
-4.650515e-01 -8.009908e-02 5.435842e-01
-2.487501e-01 -1.324017e-02 6.003555e-01
-4.998930e-02 3.302231e-01 -2.915204e-01
4.922275e-01 6.395566e-01 -2.721075e-01
1.113019e+00 1.054744e+00 -3.639743e-01
1.750404e+00 1.285449e+00 -2.346677e-01
2.015810e+00 9.279046e-01 3.806038e-01
1.700914e+00 3.338891e-01 8.416095e-01
1.099808e+00 -4.805931e-02 8.004458e-01
5.279092e-01 -2.806378e-01 6.147078e-01
5.475299e-02 -4.590955e-01 4.590229e-01
-1.550723e-01 3.138078e-01 2.336369e-01
4.856567e-01 6.848891e-01 4.011135e-01
1.199635e+00 1.190357e+00 6.464430e-01
2.030950e+00 1.513379e+00 7.581410e-01
2.586279e+00 1.175001e+00 4.652633e-01
2.370234e+00 5.236918e-01 6.282933e-02
1.616677e+00 6.723497e-02 -1.455226e-01
8.513009e-01 -2.283684e-01 -2.490283e-01
2.242057e-01 -4.581961e-01 -3.247117e-01
3.487646e-04 -8.806189e-04 5.394724e-01
1.337020e-03 -1.000971e-03 7.328167e-01
2.813924e-03 -2.724914e-04 1.107502e+00
2.432471e-03 2.517043e-03 1.126341e+00
-7.915949e-04 3.310301e-03 2.692593e-01
-2.324857e-03 6.783479e-04 -5.953526e-01
-9.276083e-04 -1.277083e-03 -8.257953e-01
2.789774e-04 -1.546066e-03 -8.101065e-01
5.658074e-04 -1.445271e-03 -7.827362e-01
1.559489e-01 -3.154667e-01 2.352784e-01
-4.837529e-01 -6.873446e-01 4.028106e-01
-1.198421e+00 -1.193537e+00 6.488926e-01
-2.032768e+00 -1.510382e+00 7.585375e-01
-2.586766e+00 -1.165899e+00 4.628948e-01
-2.365922e+00 -5.187289e-01 6.147831e-02
-1.611849e+00 -6.821267e-02 -1.460450e-01
-8.486272e-01 2.256176e-01 -2.500784e-01
-2.231302e-01 4.550411e-01 -3.259247e-01
5.123563e-02 -3.315213e-01 -2.888318e-01
-4.901349e-01 -6.416767e-01 -2.698325e-01
-1.110931e+00 -1.057190e+00 -3.633752e-01
-1.749884e+00 -1.281939e+00 -2.325339e-01
-2.016291e+00 -9.198481e-01 3.840012e-01
-1.700421e+00 -3.306291e-01 8.409403e-01
-1.098391e+00 4.615886e-02 7.969892e-01
-5.268594e-01 2.776071e-01 6.112162e-01
-5.444096e-02 4.559451e-01 4.556268e-01
-1.429823e-01 -5.787440e-02 -3.918492e-01
-2.954906e-02 3.258869e-02 -6.340685e-01
8.114641e-02 1.883888e-01 -1.068517e+00
3.653466e-01 3.513152e-01 -1.235529e+00
8.120146e-01 3.656352e-01 -6.038408e-01
9.645650e-01 2.559486e-01 1.632563e-01
7.412856e-01 1.528107e-01 4.595572e-01
4.640311e-01 7.684397e-02 5.413826e-01
2.485068e-01 1.037124e-02 5.970980e-01
-6.881653e-02 1.748269e-01 -0.000000e+00
4.476337e-01 5.089940e-01 -3.293998e-01
1.061107e+00 1.033501e+00 -7.462071e-01
1.803696e+00 1.400453e+00 -1.197123e+00
2.301701e+00 1.060418e+00 -1.382240e+00
2.088980e+00 4.246405e-01 -1.146888e+00
1.384709e+00 4.432523e-02 -7.127768e-01
6.909587e-01 -1.775250e-01 -3.157218e-01
1.424350e-01 -3.618530e-01 -0.000000e+00
1.235412e-09 -2.261406e-09 0.000000e+00
-7.529151e-01 -4.113194e-01 -4.686918e-01
-1.705703e+00 -9.318300e-01 -1.061805e+00
-2.732168e+00 -1.492590e+00 -1.700783e+00
-3.144773e+00 -1.717997e+00 -1.957630e+00
-2.603134e+00 -1.422099e+00 -1.620459e+00
-1.617769e+00 -8.837914e-01 -1.007066e+00
-7.178500e-01 -3.921633e-01 -4.468637e-01
4.738203e-09 -8.673222e-09 0.000000e+00
1.925668e-01 1.051997e-01 -5.574599e-01
1.889686e-02 1.032340e-02 -9.003505e-01
-1.791648e-01 -9.787819e-02 -1.515364e+00
-5.814737e-01 -3.176605e-01 -1.749026e+00
-1.106950e+00 -6.047298e-01 -8.541047e-01
-1.234187e+00 -6.742394e-01 2.293303e-01
-9.277968e-01 -5.068577e-01 6.499587e-01
-5.720397e-01 -3.125067e-01 7.687869e-01
-2.930897e-01 -1.601157e-01 8.484630e-01
9.222394e-02 5.038216e-02 -4.115667e-01
8.575939e-01 4.685057e-01 -3.845706e-01
1.761717e+00 9.624305e-01 -5.149251e-01
2.602998e+00 1.422024e+00 -3.324079e-01
2.749997e+00 1.502330e+00 5.380509e-01
2.118733e+00 1.157469e+00 1.190810e+00
1.250992e+00 6.834199e-01 1.132534e+00
4.834417e-01 2.641054e-01 8.691901e-01
-1.453352e-01 -7.939698e-02 6.485857e-01
-3.648314e-02 -1.993083e-02 3.308544e-01
8.704822e-01 4.755466e-01 5.675049e-01
1.923045e+00 1.050564e+00 9.139409e-01
3.030033e+00 1.655315e+00 1.071928e+00
3.521009e+00 1.923536e+00 6.581922e-01
2.978626e+00 1.627231e+00 8.915201e-02
1.900590e+00 1.038297e+00 -2.057299e-01
8.807531e-01 4.811576e-01 -3.523063e-01
5.067294e-02 2.768275e-02 -4.595373e-01
2.459258e-06 1.344470e-06 7.630326e-01
-6.582047e-04 -3.595756e-04 1.036423e+00
5.805765e-05 3.172138e-05 1.566390e+00
1.353757e-03 7.395658e-04 1.592848e+00
2.173444e-04 1.187465e-04 3.808649e-01
-6.610614e-04 -3.611369e-04 -8.419971e-01
5.198178e-04 2.839731e-04 -1.167923e+00
8.604269e-04 4.700494e-04 -1.145722e+00
-3.568800e-06 -1.949445e-06 -1.107080e+00
3.665675e-02 2.002567e-02 3.324090e-01
-8.727873e-01 -4.768059e-01 5.695975e-01
-1.930059e+00 -1.054396e+00 9.180587e-01
-3.037487e+00 -1.659387e+00 1.073104e+00
-3.517099e+00 -1.921400e+00 6.543858e-01
-2.964898e+00 -1.619731e+00 8.663938e-02
-1.889446e+00 -1.032209e+00 -2.067149e-01
-8.761426e-01 -4.786389e-01 -3.536916e-01
-5.080948e-02 -2.775735e-02 -4.607482e-01
-9.167118e-02 -5.008019e-02 -4.090873e-01
-8.593613e-01 -4.694712e-01 -3.817149e-01
-1.766664e+00 -9.651328e-01 -5.136158e-01
-2.606349e+00 -1.423855e+00 -3.282390e-01
-2.746505e+00 -1.500423e+00 5.432750e-01
-2.111373e+00 -1.153448e+00 1.188602e+00
-1.244954e+00 -6.801217e-01 1.126587e+00
-4.808790e-01 -2.627054e-01 8.644500e-01
1.445042e-01 7.894299e-02 6.448573e-01
-1.916548e-01 -1.047015e-01 -5.548079e-01
-2.053851e-02 -1.122024e-02 -8.968512e-01
1.771462e-01 9.677540e-02 -1.510636e+00
5.798507e-01 3.167739e-01 -1.746714e+00
1.104337e+00 6.033022e-01 -8.543834e-01
1.232512e+00 6.733243e-01 2.300537e-01
9.280186e-01 5.069789e-01 6.492415e-01
5.721056e-01 3.125427e-01 7.655801e-01
2.918987e-01 1.594650e-01 8.449969e-01
2.041343e-09 -3.736654e-09 -0.000000e+00
7.479131e-01 4.085868e-01 -4.655862e-01
1.693802e+00 9.253282e-01 -1.054415e+00
2.718334e+00 1.485032e+00 -1.692200e+00
3.141738e+00 1.716340e+00 -1.955776e+00
2.609605e+00 1.425634e+00 -1.624515e+00
1.622540e+00 8.863978e-01 -1.010054e+00
7.188198e-01 3.926931e-01 -4.474753e-01
4.060704e-09 -7.433068e-09 -0.000000e+00
-1.106530e-01 1.533685e-01 0.000000e+00
-6.742720e-01 -1.018429e-01 -3.312737e-01
-1.450753e+00 -3.361948e-01 -7.501836e-01
-2.158789e+00 -7.686438e-01 -1.202090e+00
-2.135676e+00 -1.373089e+00 -1.385053e+00
-1.485667e+00 -1.531104e+00 -1.147589e+00
-7.882498e-01 -1.140091e+00 -7.136317e-01
-2.270074e-01 -6.760256e-01 -3.166535e-01
2.260313e-01 -3.132864e-01 0.000000e+00
1.260317e-01 9.082505e-02 -3.946639e-01
-1.225090e-02 4.478193e-02 -6.368096e-01
-2.022801e-01 3.658241e-02 -1.071142e+00
-4.903556e-01 -1.187353e-01 -1.236473e+00
-7.450475e-01 -4.923160e-01 -6.041616e-01
-7.392280e-01 -6.784035e-01 1.615357e-01
-5.331469e-01 -5.420273e-01 4.591198e-01
-3.186694e-01 -3.480497e-01 5.435842e-01
-1.455414e-01 -2.021623e-01 6.003555e-01
2.508638e-01 -2.204849e-01 -2.915204e-01
8.041199e-01 6.864123e-02 -2.721075e-01
1.488903e+00 3.666929e-01 -3.639743e-01
2.027415e+00 7.783826e-01 -2.346677e-01
1.869952e+00 1.194897e+00 3.806038e-01
1.199966e+00 1.250869e+00 8.416095e-01
5.537886e-01 9.514235e-01 8.004458e-01
4.908198e-02 5.958496e-01 6.147078e-01
-3.567323e-01 2.941234e-01 4.590229e-01
1.802742e-01 -3.000399e-01 2.336369e-01
8.387158e-01 3.861890e-02 4.011135e-01
1.649817e+00 3.663055e-01 6.464430e-01
2.370792e+00 8.913033e-01 7.581410e-01
2.386102e+00 1.541423e+00 4.652633e-01
1.721314e+00 1.711531e+00 6.282934e-02
9.300705e-01 1.324059e+00 -1.455226e-01
2.677944e-01 8.397331e-01 -2.490283e-01
-2.644199e-01 4.362270e-01 -3.247117e-01
-5.525780e-04 7.692772e-04 5.394724e-01
-1.198964e-04 1.665893e-03 7.328167e-01
1.291074e-03 2.515070e-03 1.107502e+00
3.432285e-03 6.868960e-04 1.126341e+00
2.357812e-03 -2.454657e-03 2.692593e-01
-6.853167e-04 -2.322808e-03 -5.953526e-01
-1.575811e-03 -9.054698e-05 -8.257953e-01
-1.150234e-03 1.070091e-03 -8.101065e-01
-9.104478e-04 1.256995e-03 -7.827362e-01
-1.811965e-01 3.016738e-01 2.352784e-01
-8.397533e-01 -3.569020e-02 4.028106e-01
-1.651837e+00 -3.635659e-01 6.488926e-01
-2.369252e+00 -8.944529e-01 7.585375e-01
-2.378706e+00 -1.546751e+00 4.628948e-01
-1.714808e+00 -1.710584e+00 6.147831e-02
-9.282846e-01 -1.319468e+00 -1.460450e-01
-2.686646e-01 -8.359969e-01 -2.500784e-01
2.623461e-01 -4.336174e-01 -3.259247e-01
-2.512828e-01 2.222350e-01 -2.888318e-01
-8.047734e-01 -6.573487e-02 -2.698325e-01
-1.489833e+00 -3.636142e-01 -3.633752e-01
-2.024181e+00 -7.798416e-01 -2.325339e-01
-1.863432e+00 -1.199654e+00 3.840012e-01
-1.196956e+00 -1.252216e+00 8.409403e-01
-5.546217e-01 -9.492037e-01 7.969892e-01
-5.106502e-02 -5.933287e-01 6.112162e-01
3.542500e-01 -2.921587e-01 4.556268e-01
-1.259533e-01 -8.904577e-02 -3.918492e-01
1.145700e-02 -4.247243e-02 -6.340685e-01
2.023673e-01 -3.350453e-02 -1.068517e+00
4.930192e-01 1.176121e-01 -1.235529e+00
7.464049e-01 4.857333e-01 -6.038409e-01
7.365300e-01 6.733638e-01 1.632563e-01
5.291041e-01 5.412064e-01 4.595572e-01
3.153790e-01 3.489497e-01 5.413826e-01
1.429959e-01 2.035076e-01 5.970979e-01
1.099301e-01 -1.523665e-01 -0.000000e+00
6.701612e-01 1.016602e-01 -3.293998e-01
1.442979e+00 3.344880e-01 -7.462071e-01
2.152981e+00 7.610900e-01 -1.197123e+00
2.135925e+00 1.363868e+00 -1.382240e+00
1.486003e+00 1.528382e+00 -1.146888e+00
7.854601e-01 1.141244e+00 -7.127768e-01
2.239444e-01 6.773389e-01 -3.157218e-01
-2.275309e-01 3.153649e-01 -0.000000e+00
-1.817088e-01 1.950510e-01 0.000000e+00
-3.001006e-01 3.212261e-01 -3.387842e-04
-5.542863e-01 5.941345e-01 -3.168585e-04
-6.189937e-01 6.625727e-01 -6.968241e-04
-1.373644e-01 1.423488e-01 -1.899771e-03
3.540505e-01 -3.874876e-01 -2.770710e-03
4.446728e-01 -4.837621e-01 -2.397633e-03
4.002196e-01 -4.329984e-01 -1.263205e-03
3.736784e-01 -4.011162e-01 0.000000e+00
1.162880e-03 -3.633623e-04 -1.532394e-03
-3.957437e-02 4.485859e-02 -1.062226e-03
-1.393589e-01 1.539650e-01 -3.224341e-04