<?xml version="1.0"?>
<VTKFile type="StructuredGrid" version="0.1">
  <StructuredGrid WholeExtent="0 8 0 8 0 8">
    <Piece Extent="0 8 0 8 0 8">
      <PointData Scalars="temperature" Vectors="velocity">
        <DataArray type="Float32" Name="temperature" format="ascii">
1.000000e+00
9.357588e-01
8.144990e-01
6.973342e-01
5.925252e-01
4.482229e-01
3.162382e-01
1.879862e-01
0.000000e+00
1.000000e+00
9.349223e-01
8.121455e-01
6.897630e-01
5.726706e-01
4.404883e-01
3.139577e-01
1.870383e-01
0.000000e+00
1.000000e+00
9.333901e-01
8.078517e-01
6.755136e-01
5.374886e-01
4.277307e-01
3.100023e-01
1.853108e-01
0.000000e+00
1.000000e+00
9.331289e-01
8.070649e-01
6.726572e-01
5.305514e-01
4.254033e-01
3.092795e-01
1.849943e-01
0.000000e+00
1.000000e+00
9.345333e-01
8.109394e-01
6.852775e-01
5.606253e-01
4.361916e-01
3.127399e-01
1.865268e-01
0.000000e+00
1.000000e+00
9.359320e-01
8.147059e-01
6.970438e-01
5.908786e-01
4.478672e-01
3.163159e-01
1.880706e-01
0.000000e+00
1.000000e+00
9.356760e-01
8.139617e-01
6.945273e-01
5.838737e-01
4.451873e-01
3.155460e-01
1.877515e-01
0.000000e+00
1.000000e+00
9.341525e-01
8.097283e-01
6.806980e-01
5.486089e-01
4.319991e-01
3.115275e-01
1.860240e-01
0.000000e+00
1.000000e+00
9.332296e-01
8.071913e-01
6.722646e-01
5.288333e-01
4.249897e-01
3.092673e-01
1.850047e-01
0.000000e+00
1.000000e+00
9.353922e-01
8.134703e-01
6.939274e-01
5.831666e-01
4.445638e-01
3.151768e-01
1.875446e-01
0.000000e+00
1.000000e+00
9.348134e-01
8.118196e-01
6.885316e-01
5.691625e-01
4.391744e-01
3.135812e-01
1.868858e-01
0.000000e+00
1.000000e+00
9.337294e-01
8.087870e-01
6.784873e-01
5.442712e-01
4.301174e-01
3.107820e-01
1.856634e-01
0.000000e+00
1.000000e+00
9.335446e-01
8.082334e-01
6.764949e-01
5.393564e-01
4.284416e-01
3.102685e-01
1.854391e-01
0.000000e+00
1.000000e+00
9.345384e-01
8.109696e-01
6.853560e-01
5.606500e-01
4.361451e-01
3.127203e-01
1.865223e-01
0.000000e+00
1.000000e+00
9.355266e-01
8.136344e-01
6.937399e-01
5.820191e-01
4.443256e-01
3.152422e-01
1.876143e-01
0.000000e+00
1.000000e+00
9.353457e-01
8.131061e-01
6.919328e-01
5.770737e-01
4.424610e-01
3.147008e-01
1.873891e-01
0.000000e+00
1.000000e+00
9.342691e-01
8.101108e-01
6.821216e-01
5.521474e-01
4.331718e-01
3.118633e-01
1.861687e-01
0.000000e+00
1.000000e+00
9.336038e-01
8.083049e-01
6.761995e-01
5.381252e-01
4.281360e-01
3.102495e-01
1.854366e-01
0.000000e+00
1.000000e+00
9.345018e-01
8.109300e-01
6.853275e-01
5.606126e-01
4.360935e-01
3.126735e-01
1.864857e-01
0.000000e+00
1.000000e+00
9.345452e-01
8.109935e-01
6.854227e-01
5.606700e-01
4.361024e-01
3.127017e-01
1.865233e-01
0.000000e+00
1.000000e+00
9.345420e-01
8.109863e-01
6.853995e-01
5.606636e-01
4.361193e-01
3.127085e-01
1.865212e-01
0.000000e+00
1.000000e+00
9.345407e-01
8.109823e-01
6.853842e-01
5.606604e-01
4.361318e-01
3.127130e-01
1.865209e-01
0.000000e+00
1.000000e+00
9.345434e-01
8.109998e-01
6.854345e-01
5.606746e-01
4.360987e-01
3.127007e-01
1.865179e-01
0.000000e+00
1.000000e+00
9.345408e-01
8.109825e-01
6.853844e-01
5.606607e-01
4.361320e-01
3.127131e-01
1.865210e-01
0.000000e+00
1.000000e+00
9.345421e-01
8.109865e-01
6.853998e-01
5.606639e-01
4.361195e-01
3.127087e-01
1.865213e-01
0.000000e+00
1.000000e+00
9.345452e-01
8.109936e-01
6.854228e-01
5.606701e-01
4.361026e-01
3.127019e-01
1.865234e-01
0.000000e+00
1.000000e+00
9.345018e-01
8.109301e-01
6.853275e-01
5.606126e-01
4.360936e-01
3.126736e-01
1.864858e-01
0.000000e+00
1.000000e+00
9.336038e-01
8.083048e-01
6.761995e-01
5.381252e-01
4.281361e-01
3.102496e-01
1.854367e-01
0.000000e+00
1.000000e+00
9.342691e-01
8.101107e-01
6.821215e-01
5.521473e-01
4.331717e-01
3.118632e-01
1.861687e-01
0.000000e+00
1.000000e+00
9.353456e-01
8.131058e-01
6.919325e-01
5.770734e-01
4.424607e-01
3.147006e-01
1.873889e-01
0.000000e+00
1.000000e+00
9.355265e-01
8.136342e-01
6.937396e-01
5.820188e-01
4.443253e-01
3.152421e-01
1.876142e-01
0.000000e+00
1.000000e+00
9.345384e-01
8.109696e-01
6.853560e-01
5.606500e-01
4.361451e-01
3.127203e-01
1.865223e-01
0.000000e+00
1.000000e+00
9.335447e-01
8.082336e-01
6.764952e-01
5.393567e-01
4.284418e-01
3.102687e-01
1.854392e-01
0.000000e+00
1.000000e+00
9.337295e-01
8.087873e-01
6.784876e-01
5.442715e-01
4.301177e-01
3.107822e-01
1.856635e-01
0.000000e+00
1.000000e+00
9.348135e-01
8.118197e-01
6.885317e-01
5.691626e-01
4.391745e-01
3.135812e-01
1.868858e-01
0.000000e+00
1.000000e+00
9.353922e-01
8.134703e-01
6.939274e-01
5.831665e-01
4.445637e-01
3.151766e-01
1.875444e-01
0.000000e+00
1.000000e+00
9.332296e-01
8.071912e-01
6.722645e-01
5.288333e-01
4.249899e-01
3.092677e-01
1.850050e-01
0.000000e+00
1.000000e+00
9.341524e-01
8.097281e-01
6.806978e-01
5.486088e-01
4.319991e-01
3.115276e-01
1.860241e-01
0.000000e+00
1.000000e+00
9.356758e-01
8.139614e-01
6.945270e-01
5.838733e-01
4.451870e-01
3.155458e-01
1.877513e-01
0.000000e+00
1.000000e+00
9.359319e-01
8.147057e-01
6.970435e-01
5.908783e-01
4.478668e-01
3.163157e-01
1.880705e-01
0.000000e+00
1.000000e+00
9.345333e-01
8.109394e-01
6.852775e-01
5.606253e-01
4.361916e-01
3.127399e-01
1.865268e-01
0.000000e+00
1.000000e+00
9.331290e-01
8.070652e-01
6.726576e-01
5.305517e-01
4.254036e-01
3.092797e-01
1.849945e-01
0.000000e+00
1.000000e+00
9.333902e-01
8.078520e-01
6.755140e-01
5.374890e-01
4.277310e-01
3.100025e-01
1.853110e-01
0.000000e+00
1.000000e+00
9.349223e-01
8.121456e-01
6.897631e-01
5.726707e-01
4.404883e-01
3.139577e-01
1.870382e-01
0.000000e+00
1.000000e+00
9.357588e-01
8.144990e-01
6.973342e-01
5.925251e-01
4.482226e-01
3.162378e-01
1.879858e-01
0.000000e+00
1.000000e+00
9.336038e-01
8.083048e-01
6.761995e-01
5.381252e-01
4.281361e-01
3.102496e-01
1.854367e-01
0.000000e+00
1.000000e+00
9.342691e-01
8.101107e-01
6.821215e-01
5.521473e-01
4.331717e-01
3.118632e-01
1.861687e-01
0.000000e+00
1.000000e+00
9.353456e-01
8.131058e-01
6.919325e-01
5.770734e-01
4.424607e-01
3.147006e-01
1.873889e-01
0.000000e+00
1.000000e+00
9.355265e-01
8.136342e-01
6.937396e-01
5.820188e-01
4.443253e-01
3.152421e-01
1.876142e-01
0.000000e+00
1.000000e+00
9.345384e-01
8.109696e-01
6.853560e-01
5.606500e-01
4.361451e-01
3.127203e-01
1.865223e-01
0.000000e+00
1.000000e+00
9.335447e-01
8.082336e-01
6.764952e-01
5.393567e-01
4.284418e-01
3.102687e-01
1.854392e-01
0.000000e+00
1.000000e+00
9.337295e-01
8.087873e-01
6.784876e-01
5.442715e-01
4.301177e-01
3.107822e-01
1.856635e-01
0.000000e+00
1.000000e+00
9.348135e-01
8.118197e-01
6.885317e-01
5.691626e-01
4.391745e-01
3.135812e-01
1.868858e-01
0.000000e+00
1.000000e+00
9.353922e-01
8.134703e-01
6.939274e-01
5.831665e-01
4.445637e-01
3.151766e-01
1.875444e-01
0.000000e+00
1.000000e+00
9.345018e-01
8.109300e-01
6.853275e-01
5.606126e-01
4.360935e-01
3.126735e-01
1.864857e-01
0.000000e+00
1.000000e+00
9.345452e-01
8.109935e-01
6.854227e-01
5.606700e-01
4.361024e-01
3.127017e-01
1.865233e-01
0.000000e+00
1.000000e+00
9.345420e-01
8.109863e-01
6.853995e-01
5.606636e-01
4.361193e-01
3.127085e-01
1.865212e-01
0.000000e+00
1.000000e+00
9.345407e-01
8.109823e-01
6.853842e-01
5.606604e-01
4.361318e-01
3.127130e-01
1.865209e-01
0.000000e+00
1.000000e+00
9.345434e-01
8.109998e-01
6.854345e-01
5.606746e-01
4.360987e-01
3.127007e-01
1.865179e-01
0.000000e+00
1.000000e+00
9.345408e-01
8.109825e-01
6.853844e-01
5.606607e-01
4.361320e-01
3.127131e-01
1.865210e-01
0.000000e+00
1.000000e+00
9.345421e-01
8.109865e-01
6.853998e-01
5.606639e-01
4.361195e-01
3.127087e-01
1.865213e-01
0.000000e+00
1.000000e+00
9.345452e-01
8.109936e-01
6.854228e-01
5.606701e-01
4.361026e-01
3.127019e-01
1.865234e-01
0.000000e+00
1.000000e+00
9.345018e-01
8.109301e-01
6.853275e-01
5.606126e-01
4.360936e-01
3.126736e-01
1.864858e-01
0.000000e+00
1.000000e+00
9.353922e-01
8.134703e-01
6.939274e-01
5.831666e-01
4.445638e-01
3.151768e-01
1.875446e-01
0.000000e+00
1.000000e+00
9.348134e-01
8.118196e-01
6.885316e-01
5.691625e-01
4.391744e-01
3.135812e-01
1.868858e-01
0.000000e+00
1.000000e+00
9.337294e-01
8.087870e-01
6.784873e-01
5.442712e-01
4.301174e-01
3.107820e-01
1.856634e-01
0.000000e+00
1.000000e+00
9.335446e-01
8.082334e-01
6.764949e-01
5.393564e-01
4.284416e-01
3.102685e-01
1.854391e-01
0.000000e+00
1.000000e+00
9.345384e-01
8.109696e-01
6.853560e-01
5.606500e-01
4.361451e-01
3.127203e-01
1.865223e-01
0.000000e+00
1.000000e+00
9.355266e-01
8.136344e-01
6.937399e-01
5.820191e-01
4.443256e-01
3.152422e-01
1.876143e-01
0.000000e+00
1.000000e+00
9.353457e-01
8.131061e-01
6.919328e-01
5.770737e-01
4.424610e-01
3.147008e-01
1.873891e-01
0.000000e+00
1.000000e+00
9.342691e-01
8.101108e-01
6.821216e-01
5.521474e-01
4.331718e-01
3.118633e-01
1.861687e-01
0.000000e+00
1.000000e+00
9.336038e-01
8.083049e-01
6.761995e-01
5.381252e-01
4.281360e-01
3.102495e-01
1.854366e-01
0.000000e+00
1.000000e+00
9.357588e-01
8.144990e-01
6.973342e-01
5.925252e-01
4.482229e-01
3.162382e-01
1.879862e-01
0.000000e+00
1.000000e+00
9.349223e-01
8.121455e-01
6.897630e-01
5.726706e-01
4.404883e-01
3.139577e-01
1.870383e-01
0.000000e+00
1.000000e+00
9.333901e-01
8.078517e-01
6.755136e-01
5.374886e-01
4.277307e-01
3.100023e-01
1.853108e-01
0.000000e+00
1.000000e+00
9.331289e-01
8.070649e-01
6.726572e-01
5.305514e-01
4.254033e-01
3.092795e-01
1.849943e-01
0.000000e+00
1.000000e+00
9.345333e-01
8.109394e-01
6.852775e-01
5.606253e-01
4.361916e-01
3.127399e-01
1.865268e-01
0.000000e+00
1.000000e+00
9.359320e-01
8.147059e-01
6.970438e-01
5.908786e-01
4.478672e-01
3.163159e-01
1.880706e-01
0.000000e+00
1.000000e+00
9.356760e-01
8.139617e-01
6.945273e-01
5.838737e-01
4.451873e-01
3.155460e-01
1.877515e-01
0.000000e+00
1.000000e+00
9.341525e-01
8.097283e-01
6.806980e-01
5.486089e-01
4.319991e-01
3.115275e-01
1.860240e-01
0.000000e+00
1.000000e+00
9.332296e-01
8.071913e-01
6.722646e-01
5.288333e-01
4.249897e-01
3.092673e-01
1.850047e-01
0.000000e+00
        </DataArray>
        <DataArray type="Float32" Name="velocity" NumberOfComponents="3" format="ascii">
0.000000e+00 0.000000e+00 0.000000e+00
1.058578e+00 0.000000e+00 5.782986e-01
2.237160e+00 0.000000e+00 1.222155e+00
3.371272e+00 0.000000e+00 1.841718e+00
3.829297e+00 0.000000e+00 2.091936e+00
3.300247e+00 0.000000e+00 1.802918e+00
2.190143e+00 0.000000e+00 1.196470e+00
1.021067e+00 0.000000e+00 5.578066e-01
0.000000e+00 0.000000e+00 0.000000e+00
-2.917862e-01 0.000000e+00 7.412847e-01
-5.158245e-02 0.000000e+00 1.093169e+00
2.246417e-01 0.000000e+00 1.626082e+00
7.044227e-01 0.000000e+00 1.728412e+00
1.243897e+00 0.000000e+00 9.416687e-01
1.419529e+00 0.000000e+00 -8.043589e-02
1.175286e+00 0.000000e+00 -6.725647e-01
7.967798e-01 0.000000e+00 -9.542064e-01
4.318040e-01 0.000000e+00 -1.097001e+00
-1.366432e-01 0.000000e+00 5.351462e-01
-1.289168e+00 0.000000e+00 4.323428e-01
-2.468060e+00 0.000000e+00 4.594142e-01
-3.411678e+00 0.000000e+00 1.738552e-01
-3.563069e+00 0.000000e+00 -5.906610e-01
-2.866544e+00 0.000000e+00 -1.192498e+00
-1.796520e+00 0.000000e+00 -1.258445e+00
-7.263449e-01 0.000000e+00 -1.071005e+00
2.109027e-01 0.000000e+00 -8.259747e-01
6.005861e-02 0.000000e+00 -4.779780e-01
-1.308077e+00 0.000000e+00 -7.519997e-01
-2.707047e+00 0.000000e+00 -1.075797e+00
-3.980689e+00 0.000000e+00 -1.154363e+00
-4.479975e+00 0.000000e+00 -7.559018e-01
-3.883007e+00 0.000000e+00 -1.896891e-01
-2.630519e+00 0.000000e+00 2.118434e-01
-1.284362e+00 0.000000e+00 4.675942e-01
-7.943563e-02 0.000000e+00 6.321906e-01
-3.904866e-06 0.000000e+00 -1.063068e+00
-1.863609e-03 0.000000e+00 -1.327418e+00
4.637688e-05 0.000000e+00 -1.741050e+00
3.598490e-03 0.000000e+00 -1.596732e+00
2.033810e-03 0.000000e+00 -4.861292e-01
6.743465e-04 0.000000e+00 7.158408e-01
3.212028e-03 0.000000e+00 1.288876e+00
3.227295e-03 0.000000e+00 1.467799e+00
5.448048e-06 0.000000e+00 1.483186e+00
-5.937522e-02 0.000000e+00 -4.725112e-01
1.300157e+00 0.000000e+00 -7.446574e-01
2.687924e+00 0.000000e+00 -1.065057e+00
3.964721e+00 0.000000e+00 -1.151114e+00
4.495812e+00 0.000000e+00 -7.643763e-01
3.925342e+00 0.000000e+00 -1.973115e-01
2.666898e+00 0.000000e+00 2.069962e-01
1.300975e+00 0.000000e+00 4.622766e-01
7.886046e-02 0.000000e+00 6.275758e-01
1.387419e-01 0.000000e+00 5.433488e-01
1.282847e+00 0.000000e+00 4.419159e-01
2.453970e+00 0.000000e+00 4.669613e-01
3.404030e+00 0.000000e+00 1.865863e-01
3.575294e+00 0.000000e+00 -5.785211e-01
2.890542e+00 0.000000e+00 -1.198564e+00
1.816901e+00 0.000000e+00 -1.275659e+00
7.351081e-01 0.000000e+00 -1.087257e+00
-2.143563e-01 0.000000e+00 -8.394744e-01
2.949034e-01 0.000000e+00 7.491879e-01
4.567109e-02 0.000000e+00 1.104649e+00
-2.331058e-01 0.000000e+00 1.640587e+00
-7.121113e-01 0.000000e+00 1.738026e+00
-1.252661e+00 0.000000e+00 9.447222e-01
-1.425134e+00 0.000000e+00 -7.857376e-02
-1.175955e+00 0.000000e+00 -6.763700e-01
-7.978921e-01 0.000000e+00 -9.650015e-01
-4.365271e-01 0.000000e+00 -1.108976e+00
0.000000e+00 0.000000e+00 -0.000000e+00
-1.075826e+00 0.000000e+00 5.877314e-01
-2.273400e+00 0.000000e+00 1.241975e+00
-3.410885e+00 0.000000e+00 1.863391e+00
-3.841458e+00 0.000000e+00 2.098616e+00
-3.287467e+00 0.000000e+00 1.795967e+00
-2.178896e+00 0.000000e+00 1.190347e+00
-1.018429e+00 0.000000e+00 5.563752e-01
0.000000e+00 0.000000e+00 -0.000000e+00
2.732569e-02 -2.174658e-01 0.000000e+00
7.858674e-01 -2.429346e-01 4.094217e-01
1.642672e+00 -3.640078e-01 8.655937e-01
2.439946e+00 -2.856429e-01 1.303082e+00
2.704728e+00 1.582713e-01 1.476838e+00
2.271536e+00 5.689056e-01 1.270001e+00
1.471023e+00 6.514089e-01 8.417135e-01
6.516650e-01 5.736823e-01 3.922987e-01
-5.940340e-02 4.727495e-01 0.000000e+00
-2.087385e-01 1.084391e-02 5.227293e-01
-3.247679e-02 -9.543315e-03 7.724823e-01
1.752921e-01 -8.393035e-02 1.150415e+00
5.162794e-01 -8.747497e-02 1.222625e+00
8.778038e-01 5.765405e-02 6.648967e-01
9.816240e-01 1.943207e-01 -5.871681e-02
8.059856e-01 2.040238e-01 -4.769077e-01
5.443809e-01 1.572779e-01 -6.746792e-01
2.932047e-01 1.110493e-01 -7.742500e-01
-1.540183e-01 4.540126e-01 3.768052e-01
-9.697746e-01 4.376694e-01 3.051362e-01
-1.807958e+00 4.454693e-01 3.250015e-01
-2.459208e+00 2.653526e-01 1.236477e-01
-2.519222e+00 -1.656614e-01 -4.176563e-01
-1.980818e+00 -5.401546e-01 -8.442971e-01
-1.202956e+00 -6.645642e-01 -8.906772e-01
-4.394390e-01 -6.490100e-01 -7.568068e-01
2.228421e-01 -5.805032e-01 -5.824801e-01
-1.873508e-02 4.907186e-01 -3.389640e-01
-9.877008e-01 4.760785e-01 -5.322817e-01
-1.985355e+00 5.087916e-01 -7.603419e-01
-2.868723e+00 3.072294e-01 -8.159819e-01
-3.165228e+00 -2.233093e-01 -5.348337e-01
-2.688629e+00 -6.805974e-01 -1.346120e-01
-1.779298e+00 -8.125093e-01 1.497261e-01
-8.218409e-01 -7.707854e-01 3.309716e-01
2.769360e-02 -6.715912e-01 4.476904e-01
-4.072464e-04 3.218835e-03 -7.518039e-01
2.627239e-03 4.427191e-03 -9.386954e-01
6.927131e-03 3.553551e-03 -1.231238e+00
8.922447e-03 -3.185939e-03 -1.129028e+00
3.374688e-03 -8.345952e-03 -3.438231e-01
-2.806263e-03 -4.758484e-03 5.062546e-01
-3.027602e-03 1.526538e-03 9.114796e-01
-1.336374e-03 4.510168e-03 1.037924e+00
-6.184450e-04 4.952667e-03 1.048881e+00
1.865557e-02 -4.843002e-01 -3.332036e-01
9.896174e-01 -4.672944e-01 -5.262376e-01
1.986497e+00 -5.017371e-01 -7.535014e-01
2.872233e+00 -3.167919e-01 -8.144586e-01
3.178158e+00 2.033719e-01 -5.400678e-01
2.706145e+00 6.737342e-01 -1.390556e-01
1.790809e+00 8.199397e-01 1.465835e-01
8.254842e-01 7.818376e-01 3.267226e-01
-2.959758e-02 6.820909e-01 4.430475e-01
1.555488e-01 -4.480645e-01 3.856449e-01
9.722950e-01 -4.295548e-01 3.130079e-01
1.810915e+00 -4.389139e-01 3.299084e-01
2.466002e+00 -2.734233e-01 1.312534e-01
2.529015e+00 1.476996e-01 -4.092386e-01
1.987329e+00 5.325399e-01 -8.463590e-01
1.204633e+00 6.698688e-01 -9.012638e-01
4.376725e-01 6.583665e-01 -7.692014e-01
-2.271996e-01 5.897702e-01 -5.948696e-01
2.114464e-01 -5.653966e-03 5.311875e-01
3.352016e-02 1.627258e-02 7.815424e-01
-1.725763e-01 8.923434e-02 1.159453e+00
-5.143276e-01 8.060909e-02 1.228504e+00
-8.848212e-01 -7.381694e-02 6.689934e-01
-9.955805e-01 -2.033920e-01 -5.384926e-02
-8.185947e-01 -2.019529e-01 -4.769561e-01
-5.530772e-01 -1.505154e-01 -6.823969e-01
-2.986487e-01 -1.034772e-01 -7.855574e-01
-2.786074e-02 2.217238e-01 -0.000000e+00
-7.967900e-01 2.479278e-01 4.150093e-01
-1.663800e+00 3.675957e-01 8.768169e-01
-2.463991e+00 2.750052e-01 1.316862e+00
-2.719750e+00 -1.781635e-01 1.486361e+00
-2.279304e+00 -5.769396e-01 1.274781e+00
-1.479124e+00 -6.470023e-01 8.458192e-01
-6.584536e-01 -5.662464e-01 3.954788e-01
5.839437e-02 -4.647193e-01 -0.000000e+00
7.746150e-02 -3.033638e-01 0.000000e+00
1.181261e-01 -4.691697e-01 -8.853207e-04
1.967719e-01 -7.804637e-01 -1.330292e-03
1.990151e-01 -8.012996e-01 -2.959022e-03
4.890511e-02 -2.374694e-01 -6.209270e-03
-1.143645e-01 3.866439e-01 -8.277456e-03
-1.738193e-01 6.274135e-01 -7.206243e-03
-1.762219e-01 6.610633e-01 -3.930020e-03
-1.652788e-01 6.472841e-01 0.000000e+00
-1.029704e-02 4.759751e-02 -4.570058e-03
7.708271e-03 -1.081205e-02 -3.401466e-03
4.491488e-02 -1.454670e-01 -1.848040e-03
5.634945e-02 -2.012181e-01 -1.112018e-03
1.100562e-02 -6.222499e-02 -2.585045e-03
-3.781104e-02 9.842820e-02 -3.934566e-03
-4.670703e-02 1.343022e-01 -1.864842e-03
-3.659427e-02 1.136606e-01 2.345090e-03
-2.632634e-02 9.454708e-02 5.377224e-03
-1.621018e-01 6.398733e-01 -4.874907e-03
-1.864805e-01 7.570826e-01 -3.259954e-03
-2.220714e-01 9.128727e-01 -1.272278e-03
-1.918576e-01 7.893988e-01 -1.348835e-03
-5.459299e-02 2.184124e-01 -2.362264e-03
9.319752e-02 -3.918519e-01 -9.307960e-04
1.713606e-01 -7.035057e-01 2.008696e-03
2.029128e-01 -8.150753e-01 4.383165e-03
2.114962e-01 -8.342427e-01 5.771575e-03
-1.696521e-01 6.660708e-01 -3.267170e-03
-2.001586e-01 8.118382e-01 -2.646374e-03
-2.509296e-01 1.029112e+00 -1.697176e-03
-2.236838e-01 9.170493e-01 -2.467274e-05
-6.211304e-02 2.524233e-01 9.804177e-04
1.127944e-01 -4.610627e-01 7.252807e-04
1.997210e-01 -8.063099e-01 8.781835e-04
2.303194e-01 -9.155270e-01 1.792851e-03
2.358974e-01 -9.251425e-01 2.546610e-03
1.063235e-06 -4.168292e-06 -2.913036e-04
7.927870e-03 2.020297e-03 -3.413925e-04
1.413311e-02 3.608666e-03 -2.458091e-04
1.289930e-02 3.294650e-03 -1.067907e-04
2.498792e-03 6.422778e-04 -1.869746e-05
-7.201213e-03 -1.837105e-03 1.198299e-04
-8.567709e-03 -2.185312e-03 2.385751e-04
-4.607503e-03 -1.177022e-03 2.642562e-04
8.994281e-07 -3.518413e-06 2.716012e-04
1.703911e-01 -6.658907e-01 2.785783e-03
2.136395e-01 -8.084047e-01 2.103761e-03
2.733589e-01 -1.023386e+00 1.252687e-03
2.435944e-01 -9.119644e-01 -2.146642e-04
6.681013e-02 -2.512172e-01 -9.982992e-04
-1.217945e-01 4.587678e-01 -5.272233e-04
-2.110483e-01 8.034228e-01 -5.511453e-04
-2.367400e-01 9.138873e-01 -1.383835e-03
-2.364646e-01 9.249915e-01 -2.124663e-03
1.644485e-01 -6.392827e-01 4.602090e-03
1.994087e-01 -7.537909e-01 2.915359e-03
2.429907e-01 -9.075360e-01 1.003818e-03
2.103794e-01 -7.846710e-01 1.143310e-03
5.723337e-02 -2.177334e-01 2.345374e-03
-1.057677e-01 3.886461e-01 1.019524e-03
-1.866027e-01 6.996195e-01 -1.944795e-03
-2.125343e-01 8.126201e-01 -4.153177e-03
-2.142871e-01 8.335275e-01 -5.511666e-03
1.373695e-02 -4.672734e-02 4.444192e-03
1.648486e-03 1.319236e-02 3.240945e-03
-3.021692e-02 1.492146e-01 1.725769e-03
-4.681301e-02 2.036509e-01 1.032261e-03
-1.991929e-02 5.995306e-02 2.552549e-03
1.421500e-02 -1.044495e-01 3.934644e-03
2.360816e-02 -1.401945e-01 1.841002e-03
2.258595e-02 -1.172338e-01 -2.299605e-03
2.226673e-02 -9.558326e-02 -5.266777e-03
-7.745982e-02 3.033572e-01 -0.000000e+00
-1.212110e-01 4.683747e-01 8.550012e-04
-2.014206e-01 7.792729e-01 1.291330e-03
-2.094434e-01 7.986364e-01 2.920811e-03
-7.082019e-02 2.318779e-01 6.146532e-03
8.509769e-02 -3.941132e-01 8.223543e-03
1.484013e-01 -6.338977e-01 7.124352e-03
1.624048e-01 -6.645867e-01 3.859844e-03
1.652784e-01 -6.472828e-01 -0.000000e+00
8.185263e-02 -2.079449e-01 0.000000e+00
-5.804396e-01 -5.995924e-01 -4.150320e-01
-1.283949e+00 -1.120306e+00 -8.768415e-01
-2.030609e+00 -1.422685e+00 -1.316899e+00
-2.472346e+00 -1.147533e+00 -1.486392e+00
-2.276913e+00 -5.863356e-01 -1.274755e+00
-1.608192e+00 -1.412370e-01 -8.457595e-01
-8.492370e-01 1.811601e-01 -3.954472e-01
-1.714898e-01 4.356663e-01 0.000000e+00
1.828894e-01 1.063452e-01 -5.312992e-01
3.715404e-02 1.743394e-03 -7.816898e-01
-1.087933e-01 -1.611120e-01 -1.159588e+00
-4.129177e-01 -3.173676e-01 -1.228593e+00
-8.121103e-01 -3.594685e-01 -6.689770e-01
-9.714015e-01 -2.988459e-01 5.392953e-02
-8.153372e-01 -2.152011e-01 4.770078e-01
-5.575757e-01 -1.331301e-01 6.824150e-01
-3.116631e-01 -5.245631e-02 7.855708e-01
-7.823711e-02 4.677901e-01 -3.859136e-01
6.472441e-01 8.430537e-01 -3.133528e-01
1.378570e+00 1.253283e+00 -3.302133e-01
2.032709e+00 1.422105e+00 -1.314470e-01
2.289876e+00 1.082750e+00 4.092038e-01
1.999025e+00 4.852877e-01 8.464302e-01
1.378048e+00 -1.045812e-02 9.013691e-01
6.995525e-01 -3.679828e-01 7.693779e-01
8.331530e-02 -6.264995e-01 5.950702e-01
-2.157525e-01 4.339744e-01 3.327178e-01
6.443702e-01 8.845007e-01 5.256701e-01
1.502564e+00 1.392609e+00 7.530539e-01
2.368483e+00 1.654884e+00 8.142020e-01
2.886279e+00 1.345161e+00 5.400288e-01
2.697584e+00 7.060297e-01 1.392197e-01
1.964486e+00 1.388556e-01 -1.462798e-01
1.099133e+00 -2.904028e-01 -3.263075e-01
3.009784e-01 -6.127918e-01 -4.426049e-01
1.193229e-03 -3.023839e-03 7.512375e-01
4.430962e-03 -2.630246e-03 9.380302e-01
7.784436e-03 2.036701e-04 1.230729e+00
6.302314e-03 7.074148e-03 1.128780e+00
-1.041890e-03 8.950356e-03 3.438411e-01
-4.753093e-03 2.827723e-03 -5.060073e-01
-1.929780e-03 -2.790183e-03 -9.110519e-01
9.823996e-04 -4.600700e-03 -1.037388e+00
1.826489e-03 -4.650669e-03 -1.048325e+00
2.187691e-01 -4.396558e-01 3.384759e-01
-6.384758e-01 -8.913025e-01 5.317282e-01
-1.498180e+00 -1.398254e+00 7.599252e-01
-2.369987e+00 -1.644810e+00 8.157680e-01
-2.884490e+00 -1.321450e+00 5.348447e-01
-2.685507e+00 -6.916078e-01 1.348168e-01
-1.950826e+00 -1.398530e-01 -1.493950e-01
-1.090640e+00 2.824525e-01 -3.305442e-01
-2.976197e-01 6.026559e-01 -4.472510e-01
8.243138e-02 -4.722910e-01 -3.770737e-01
-6.411497e-01 -8.489828e-01 -3.054654e-01
-1.372844e+00 -1.257629e+00 -3.252737e-01
-2.030623e+00 -1.411771e+00 -1.238002e-01
-2.289897e+00 -1.062282e+00 4.176624e-01
-1.996951e+00 -4.754754e-01 8.443967e-01
-1.374028e+00 6.616729e-03 8.908007e-01
-6.966064e-01 3.589353e-01 7.569859e-01
-8.268963e-02 6.162791e-01 5.826717e-01
-1.780277e-01 -1.096147e-01 -5.228375e-01
-3.302362e-02 -7.165337e-03 -7.726249e-01
1.136969e-01 1.577436e-01 -1.150544e+00
4.113138e-01 3.243154e-01 -1.222713e+00
7.981828e-01 3.702890e-01 -6.648864e-01
9.547992e-01 3.001174e-01 5.878435e-02
8.052604e-01 2.073461e-01 4.769467e-01
5.531890e-01 1.230352e-01 6.746839e-01
3.105237e-01 4.320491e-02 7.742519e-01
-8.027746e-02 2.039432e-01 -0.000000e+00
5.732409e-01 5.899615e-01 -4.094528e-01
1.267107e+00 1.107015e+00 -8.656360e-01
2.004377e+00 1.420480e+00 -1.303146e+00
2.449591e+00 1.157782e+00 -1.476902e+00
2.266215e+00 5.896558e-01 -1.270003e+00
1.603172e+00 1.334864e-01 -8.416716e-01
8.468323e-01 -1.909369e-01 -3.922754e-01
1.744535e-01 -4.431955e-01 -0.000000e+00
-7.273463e-10 1.331399e-09 0.000000e+00
-9.441701e-01 -5.158025e-01 -5.877486e-01
-1.995156e+00 -1.089959e+00 -1.241990e+00
-2.993454e+00 -1.635331e+00 -1.863434e+00
-3.371272e+00 -1.841734e+00 -2.098627e+00
-2.884920e+00 -1.576039e+00 -1.795871e+00
-1.911878e+00 -1.044464e+00 -1.190149e+00
-8.935595e-01 -4.881538e-01 -5.562434e-01
6.014585e-09 -1.100962e-08 0.000000e+00
2.588299e-01 1.413994e-01 -7.492845e-01
4.000890e-02 2.185697e-02 -1.104782e+00
-2.047115e-01 -1.118344e-01 -1.640733e+00
-6.250981e-01 -3.414926e-01 -1.738124e+00
-1.099458e+00 -6.006367e-01 -9.446594e-01
-1.250809e+00 -6.833198e-01 7.873053e-02
-1.032004e+00 -5.637864e-01 6.764948e-01
-7.001381e-01 -3.824872e-01 9.649877e-01
-3.830500e-01 -2.092612e-01 1.108888e+00
1.218130e-01 6.654673e-02 -5.436133e-01
1.125716e+00 6.149813e-01 -4.422561e-01
2.153322e+00 1.176365e+00 -4.672934e-01
2.986981e+00 1.631795e+00 -1.867560e-01
3.137362e+00 1.713949e+00 5.784806e-01
2.536330e+00 1.385604e+00 1.198626e+00
1.594227e+00 8.709301e-01 1.275812e+00
6.449394e-01 3.523320e-01 1.087381e+00
-1.881403e-01 -1.027815e-01 8.396117e-01
-5.204940e-02 -2.843471e-02 4.720199e-01
1.140933e+00 6.232944e-01 7.440692e-01
2.358656e+00 1.288539e+00 1.064616e+00
3.479064e+00 1.900621e+00 1.150852e+00
3.945165e+00 2.155253e+00 7.643311e-01
3.444513e+00 1.881746e+00 1.974539e-01
2.340241e+00 1.278479e+00 -2.067073e-01
1.141534e+00 6.236227e-01 -4.618518e-01
6.915139e-02 3.777758e-02 -6.271127e-01
3.421691e-06 1.877306e-06 1.062518e+00
-1.634292e-03 -8.928049e-04 1.326770e+00
4.287194e-05 2.343023e-05 1.740523e+00
3.156539e-03 1.724437e-03 1.596449e+00
1.789703e-03 9.777217e-04 4.862027e-01
5.790679e-04 3.163523e-04 -7.155858e-01
2.816755e-03 1.538783e-03 -1.288498e+00
2.821085e-03 1.541154e-03 -1.467256e+00
-4.781447e-06 -2.606957e-06 -1.482617e+00
5.265506e-02 2.876559e-02 4.774842e-01
-1.147885e+00 -6.270925e-01 7.514312e-01
-2.375439e+00 -1.297708e+00 1.075400e+00
-3.493078e+00 -1.908277e+00 1.154162e+00
-3.931255e+00 -2.147654e+00 7.559267e-01
-3.407368e+00 -1.861454e+00 1.898883e-01
-2.308310e+00 -1.261035e+00 -2.115169e-01
-1.126960e+00 -6.156610e-01 -4.671522e-01
-6.966504e-02 -3.805818e-02 -6.317333e-01
-1.199786e-01 -6.554462e-02 -5.354108e-01
-1.131278e+00 -6.180198e-01 -4.326615e-01
-2.165708e+00 -1.183131e+00 -4.596995e-01
-2.993705e+00 -1.635469e+00 -1.739666e-01
-3.126628e+00 -1.708085e+00 5.906780e-01
-2.515255e+00 -1.374090e+00 1.192601e+00
-1.576326e+00 -8.611508e-01 1.258622e+00
-6.372342e-01 -3.481226e-01 1.071133e+00
1.851187e-01 1.011308e-01 8.261017e-01
-2.561037e-01 -1.399101e-01 -7.413764e-01
-4.521728e-02 -2.470231e-02 -1.093296e+00
1.972499e-01 1.077581e-01 -1.626221e+00
6.183150e-01 3.377870e-01 -1.728508e+00
1.091747e+00 5.964238e-01 -9.416134e-01
1.245882e+00 6.806285e-01 8.057456e-02
1.031419e+00 5.634667e-01 6.726690e-01
6.991699e-01 3.819583e-01 9.541746e-01
3.789165e-01 2.070030e-01 1.096898e+00
8.201530e-11 -1.501280e-10 -0.000000e+00
9.290207e-01 5.075263e-01 -5.783282e-01
1.963323e+00 1.072568e+00 -1.222196e+00
2.958648e+00 1.616317e+00 -1.841799e+00
3.360553e+00 1.835879e+00 -2.091991e+00
2.896095e+00 1.582144e+00 -1.802859e+00
1.921725e+00 1.049843e+00 -1.196300e+00
8.958648e-01 4.894131e-01 -5.576882e-01
5.392982e-09 -9.871787e-09 -0.000000e+00
-1.307544e-01 1.812297e-01 0.000000e+00
-8.181525e-01 -1.644619e-01 -4.150320e-01
-1.636426e+00 -4.751019e-01 -8.768415e-01
-2.294291e+00 -9.400187e-01 -1.316899e+00
-2.301430e+00 -1.460393e+00 -1.486392e+00
-1.723606e+00 -1.599157e+00 -1.274755e+00
-9.877565e-01 -1.276936e+00 -8.457595e-01
-3.064037e-01 -8.124896e-01 -3.954472e-01
2.739442e-01 -3.796953e-01 0.000000e+00
1.883019e-01 9.643756e-02 -5.312992e-01
2.154142e-02 3.032210e-02 -7.816898e-01
-1.943524e-01 -4.497155e-03 -1.159588e+00
-4.901560e-01 -1.759838e-01 -1.228593e+00
-7.412674e-01 -4.891456e-01 -6.689770e-01
-7.763207e-01 -6.559391e-01 5.392953e-02
-6.216141e-01 -5.698090e-01 4.770078e-01
-4.132846e-01 -3.972533e-01 6.824150e-01
-2.125328e-01 -2.339132e-01 7.855708e-01
3.513601e-01 -3.185823e-01 -3.859136e-01
1.059113e+00 8.913323e-02 -3.133528e-01
1.799446e+00 4.828746e-01 -3.302133e-01
2.294937e+00 9.420988e-01 -1.314470e-01
2.148328e+00 1.341852e+00 4.092038e-01
1.488433e+00 1.419919e+00 8.464302e-01
7.357623e-01 1.165238e+00 9.013691e-01
6.832298e-02 7.874751e-01 7.693779e-01
-4.821657e-01 4.086065e-01 5.950702e-01
2.486053e-01 -4.160268e-01 3.327178e-01
1.092436e+00 6.432105e-02 5.256701e-01
1.983679e+00 5.119344e-01 7.530539e-01
2.672234e+00 1.098872e+00 8.142020e-01
2.691377e+00 1.701926e+00 5.400288e-01
2.051614e+00 1.888470e+00 1.392197e-01
1.178259e+00 1.578034e+00 -1.462798e-01
3.494984e-01 1.081794e+00 -3.263075e-01
-3.530272e-01 5.843574e-01 -4.426049e-01
-1.899776e-03 2.637866e-03 7.512375e-01
1.807711e-04 5.149671e-03 9.380302e-01
4.377328e-03 6.440348e-03 1.230729e+00
9.357832e-03 1.481052e-03 1.128780e+00
6.968538e-03 -5.712618e-03 3.438412e-01
-1.886751e-04 -5.527408e-03 -5.060073e-01
-3.390499e-03 -1.163258e-04 -9.110519e-01
-3.340553e-03 3.312410e-03 -1.037388e+00
-2.926552e-03 4.049712e-03 -1.048325e+00
-2.517561e-01 4.216349e-01 3.384759e-01
-1.094975e+00 -5.568605e-02 5.317282e-01
-1.986060e+00 -5.051953e-01 7.599252e-01
-2.664569e+00 -1.105581e+00 8.157680e-01
-2.670458e+00 -1.713232e+00 5.348447e-01
-2.032954e+00 -1.886099e+00 1.348168e-01
-1.171718e+00 -1.566001e+00 -1.493950e-01
-3.515999e-01 -1.070352e+00 -3.305442e-01
3.463129e-01 -5.760547e-01 -4.472510e-01
-3.528813e-01 3.245436e-01 -3.770737e-01
-1.060809e+00 -8.080153e-02 -3.054654e-01
-1.800009e+00 -4.757086e-01 -3.252737e-01
-2.285115e+00 -9.459272e-01 -1.238002e-01
-2.131116e+00 -1.352928e+00 4.176624e-01
-1.479056e+00 -1.423476e+00 8.443967e-01
-7.368226e-01 -1.159779e+00 8.908007e-01
-7.434437e-02 -7.801076e-01 7.569859e-01
4.739036e-01 -4.025580e-01 5.826717e-01
-1.884264e-01 -9.058001e-02 -5.228375e-01
-2.387217e-02 -2.391696e-02 -7.726249e-01
1.941674e-01 1.044343e-02 -1.150544e+00
4.951358e-01 1.708803e-01 -1.222713e+00
7.428475e-01 4.715796e-01 -6.648864e-01
7.684203e-01 6.412817e-01 5.878433e-02
6.095598e-01 5.655737e-01 4.769467e-01
4.024199e-01 3.990162e-01 6.746839e-01
2.041323e-01 2.379529e-01 7.742519e-01
1.282382e-01 -1.777421e-01 -0.000000e+00
8.061589e-01 1.636080e-01 -4.094528e-01
1.616142e+00 4.681112e-01 -8.656360e-01
2.278262e+00 9.191364e-01 -1.303146e+00
2.297760e+00 1.435707e+00 -1.476902e+00
1.720619e+00 1.588362e+00 -1.270003e+00
9.785224e-01 1.276900e+00 -8.416716e-01
2.968776e-01 8.157484e-01 -3.922754e-01
-2.786785e-01 3.862571e-01 -0.000000e+00
-2.134192e-01 2.290898e-01 0.000000e+00
-3.309689e-01 3.528932e-01 -8.853221e-04
-5.504213e-01 5.872642e-01 -1.330295e-03
-5.667421e-01 6.004094e-01 -2.959025e-03
-1.734000e-01 1.694575e-01 -6.209261e-03
2.635583e-01 -3.051390e-01 -8.277448e-03
4.340353e-01 -4.852568e-01 -7.206236e-03
4.610525e-01 -5.054596e-01 -3.930020e-03
4.553703e-01 -4.888064e-01 0.000000e+00
3.448840e-02 -3.438170e-02 -4.570060e-03
-4.933240e-03 1.232808e-02 -3.401470e-03
-9.813868e-02 1.163908e-01 -1.848044e-03