<?xml version="1.0"?>
<VTKFile type="StructuredGrid" version="0.1">
  <StructuredGrid WholeExtent="0 8 0 8 0 8">
    <Piece Extent="0 8 0 8 0 8">
      <PointData Scalars="temperature" Vectors="velocity">
        <DataArray type="Float32" Name="temperature" format="ascii">
1.000000e+00
8.750000e-01
7.500000e-01
6.250000e-01
5.500000e-01
3.750000e-01
2.500000e-01
1.250000e-01
0.000000e+00
1.000000e+00
8.750000e-01
7.500000e-01
6.250000e-01
5.191342e-01
3.750000e-01
2.500000e-01
1.250000e-01
0.000000e+00
1.000000e+00
8.750000e-01
7.500000e-01
6.250000e-01
4.646447e-01
3.750000e-01
2.500000e-01
1.250000e-01
0.000000e+00
1.000000e+00
8.750000e-01
7.500000e-01
6.250000e-01
4.538060e-01
3.750000e-01
2.500000e-01
1.250000e-01
0.000000e+00
1.000000e+00
8.750000e-01
7.500000e-01
6.250000e-01
5.000000e-01
3.750000e-01
2.500000e-01
1.250000e-01
0.000000e+00
1.000000e+00
8.750000e-01
7.500000e-01
6.250000e-01
5.461940e-01
3.750000e-01
2.500000e-01
1.250000e-01
0.000000e+00
1.000000e+00
8.750000e-01
7.500000e-01
6.250000e-01
5.353553e-01
3.750000e-01
2.500000e-01
1.250000e-01
0.000000e+00
1.000000e+00
8.750000e-01
7.500000e-01
6.250000e-01
4.808658e-01
3.750000e-01
2.500000e-01
1.250000e-01
0.000000e+00
1.000000e+00
8.750000e-01
7.500000e-01
6.250000e-01
4.500000e-01
3.750000e-01
2.500000e-01
1.250000e-01
0.000000e+00
1.000000e+00
8.750000e-01
7.500000e-01
6.250000e-01
5.353553e-01
3.750000e-01
2.500000e-01
1.250000e-01
0.000000e+00
1.000000e+00
8.750000e-01
7.500000e-01
6.250000e-01
5.135299e-01
3.750000e-01
2.500000e-01
1.250000e-01
0.000000e+00
1.000000e+00
8.750000e-01
7.500000e-01
6.250000e-01
4.750000e-01
3.750000e-01
2.500000e-01
1.250000e-01
0.000000e+00
1.000000e+00
8.750000e-01
7.500000e-01
6.250000e-01
4.673359e-01
3.750000e-01
2.500000e-01
1.250000e-01
0.000000e+00
1.000000e+00
8.750000e-01
7.500000e-01
6.250000e-01
5.000000e-01
3.750000e-01
2.500000e-01
1.250000e-01
0.000000e+00
1.000000e+00
8.750000e-01
7.500000e-01
6.250000e-01
5.326641e-01
3.750000e-01
2.500000e-01
1.250000e-01
0.000000e+00
1.000000e+00
8.750000e-01
7.500000e-01
6.250000e-01
5.250000e-01
3.750000e-01
2.500000e-01
1.250000e-01
0.000000e+00
1.000000e+00
8.750000e-01
7.500000e-01
6.250000e-01
4.864701e-01
3.750000e-01
2.500000e-01
1.250000e-01
0.000000e+00
1.000000e+00
8.750000e-01
7.500000e-01
6.250000e-01
4.646447e-01
3.750000e-01
2.500000e-01
1.250000e-01
0.000000e+00
1.000000e+00
8.750000e-01
7.500000e-01
6.250000e-01
5.000000e-01
3.750000e-01
2.500000e-01
1.250000e-01
0.000000e+00
1.000000e+00
8.750000e-01
7.500000e-01
6.250000e-01
5.000000e-01
3.750000e-01
2.500000e-01
1.250000e-01
0.000000e+00
1.000000e+00
8.750000e-01
7.500000e-01
6.250000e-01
5.000000e-01
3.750000e-01
2.500000e-01
1.250000e-01
0.000000e+00
1.000000e+00
8.750000e-01
7.500000e-01
6.250000e-01
5.000000e-01
3.750000e-01
2.500000e-01
1.250000e-01
0.000000e+00
1.000000e+00
8.750000e-01
7.500000e-01
6.250000e-01
5.000000e-01
3.750000e-01
2.500000e-01
1.250000e-01
0.000000e+00
1.000000e+00
8.750000e-01
7.500000e-01
6.250000e-01
5.000000e-01
3.750000e-01
2.500000e-01
1.250000e-01
0.000000e+00
1.000000e+00
8.750000e-01
7.500000e-01
6.250000e-01
5.000000e-01
3.750000e-01
2.500000e-01
1.250000e-01
0.000000e+00
1.000000e+00
8.750000e-01
7.500000e-01
6.250000e-01
5.000000e-01
3.750000e-01
2.500000e-01
1.250000e-01
0.000000e+00
1.000000e+00
8.750000e-01
7.500000e-01
6.250000e-01
5.000000e-01
3.750000e-01
2.500000e-01
1.250000e-01
0.000000e+00
1.000000e+00
8.750000e-01
7.500000e-01
6.250000e-01
4.646447e-01
3.750000e-01
2.500000e-01
1.250000e-01
0.000000e+00
1.000000e+00
8.750000e-01
7.500000e-01
6.250000e-01
4.864701e-01
3.750000e-01
2.500000e-01
1.250000e-01
0.000000e+00
1.000000e+00
8.750000e-01
7.500000e-01
6.250000e-01
5.250000e-01
3.750000e-01
2.500000e-01
1.250000e-01
0.000000e+00
1.000000e+00
8.750000e-01
7.500000e-01
6.250000e-01
5.326641e-01
3.750000e-01
2.500000e-01
1.250000e-01
0.000000e+00
1.000000e+00
8.750000e-01
7.500000e-01
6.250000e-01
5.000000e-01
3.750000e-01
2.500000e-01
1.250000e-01
0.000000e+00
1.000000e+00
8.750000e-01
7.500000e-01
6.250000e-01
4.673359e-01
3.750000e-01
2.500000e-01
1.250000e-01
0.000000e+00
1.000000e+00
8.750000e-01
7.500000e-01
6.250000e-01
4.750000e-01
3.750000e-01
2.500000e-01
1.250000e-01
0.000000e+00
1.000000e+00
8.750000e-01
7.500000e-01
6.250000e-01
5.135299e-01
3.750000e-01
2.500000e-01
1.250000e-01
0.000000e+00
1.000000e+00
8.750000e-01
7.500000e-01
6.250000e-01
5.353553e-01
3.750000e-01
2.500000e-01
1.250000e-01
0.000000e+00
1.000000e+00
8.750000e-01
7.500000e-01
6.250000e-01
4.500000e-01
3.750000e-01
2.500000e-01
1.250000e-01
0.000000e+00
1.000000e+00
8.750000e-01
7.500000e-01
6.250000e-01
4.808658e-01
3.750000e-01
2.500000e-01
1.250000e-01
0.000000e+00
1.000000e+00
8.750000e-01
7.500000e-01
6.250000e-01
5.353553e-01
3.750000e-01
2.500000e-01
1.250000e-01
0.000000e+00
1.000000e+00
8.750000e-01
7.500000e-01
6.250000e-01
5.461940e-01
3.750000e-01
2.500000e-01
1.250000e-01
0.000000e+00
1.000000e+00
8.750000e-01
7.500000e-01
6.250000e-01
5.000000e-01
3.750000e-01
2.500000e-01
1.250000e-01
0.000000e+00
1.000000e+00
8.750000e-01
7.500000e-01
6.250000e-01
4.538060e-01
3.750000e-01
2.500000e-01
1.250000e-01
0.000000e+00
1.000000e+00
8.750000e-01
7.500000e-01
6.250000e-01
4.646447e-01
3.750000e-01
2.500000e-01
1.250000e-01
0.000000e+00
1.000000e+00
8.750000e-01
7.500000e-01
6.250000e-01
5.191342e-01
3.750000e-01
2.500000e-01
1.250000e-01
0.000000e+00
1.000000e+00
8.750000e-01
7.500000e-01
6.250000e-01
5.500000e-01
3.750000e-01
2.500000e-01
1.250000e-01
0.000000e+00
1.000000e+00
8.750000e-01
7.500000e-01
6.250000e-01
4.646447e-01
3.750000e-01
2.500000e-01
1.250000e-01
0.000000e+00
1.000000e+00
8.750000e-01
7.500000e-01
6.250000e-01
4.864701e-01
3.750000e-01
2.500000e-01
1.250000e-01
0.000000e+00
1.000000e+00
8.750000e-01
7.500000e-01
6.250000e-01
5.250000e-01
3.750000e-01
2.500000e-01
1.250000e-01
0.000000e+00
1.000000e+00
8.750000e-01
7.500000e-01
6.250000e-01
5.326641e-01
3.750000e-01
2.500000e-01
1.250000e-01
0.000000e+00
1.000000e+00
8.750000e-01
7.500000e-01
6.250000e-01
5.000000e-01
3.750000e-01
2.500000e-01
1.250000e-01
0.000000e+00
1.000000e+00
8.750000e-01
7.500000e-01
6.250000e-01
4.673359e-01
3.750000e-01
2.500000e-01
1.250000e-01
0.000000e+00
1.000000e+00
8.750000e-01
7.500000e-01
6.250000e-01
4.750000e-01
3.750000e-01
2.500000e-01
1.250000e-01
0.000000e+00
1.000000e+00
8.750000e-01
7.500000e-01
6.250000e-01
5.135299e-01
3.750000e-01
2.500000e-01
1.250000e-01
0.000000e+00
1.000000e+00
8.750000e-01
7.500000e-01
6.250000e-01
5.353553e-01
3.750000e-01
2.500000e-01
1.250000e-01
0.000000e+00
1.000000e+00
8.750000e-01
7.500000e-01
6.250000e-01
5.000000e-01
3.750000e-01
2.500000e-01
1.250000e-01
0.000000e+00
1.000000e+00
8.750000e-01
7.500000e-01
6.250000e-01
5.000000e-01
3.750000e-01
2.500000e-01
1.250000e-01
0.000000e+00
1.000000e+00
8.750000e-01
7.500000e-01
6.250000e-01
5.000000e-01
3.750000e-01
2.500000e-01
1.250000e-01
0.000000e+00
1.000000e+00
8.750000e-01
7.500000e-01
6.250000e-01
5.000000e-01
3.750000e-01
2.500000e-01
1.250000e-01
0.000000e+00
1.000000e+00
8.750000e-01
7.500000e-01
6.250000e-01
5.000000e-01
3.750000e-01
2.500000e-01
1.250000e-01
0.000000e+00
1.000000e+00
8.750000e-01
7.500000e-01
6.250000e-01
5.000000e-01
3.750000e-01
2.500000e-01
1.250000e-01
0.000000e+00
1.000000e+00
8.750000e-01
7.500000e-01
6.250000e-01
5.000000e-01
3.750000e-01
2.500000e-01
1.250000e-01
0.000000e+00
1.000000e+00
8.750000e-01
7.500000e-01
6.250000e-01
5.000000e-01
3.750000e-01
2.500000e-01
1.250000e-01
0.000000e+00
1.000000e+00
8.750000e-01
7.500000e-01
6.250000e-01
5.000000e-01
3.750000e-01
2.500000e-01
1.250000e-01
0.000000e+00
1.000000e+00
8.750000e-01
7.500000e-01
6.250000e-01
5.353553e-01
3.750000e-01
2.500000e-01
1.250000e-01
0.000000e+00
1.000000e+00
8.750000e-01
7.500000e-01
6.250000e-01
5.135299e-01
3.750000e-01
2.500000e-01
1.250000e-01
0.000000e+00
1.000000e+00
8.750000e-01
7.500000e-01
6.250000e-01
4.750000e-01
3.750000e-01
2.500000e-01
1.250000e-01
0.000000e+00
1.000000e+00
8.750000e-01
7.500000e-01
6.250000e-01
4.673359e-01
3.750000e-01
2.500000e-01
1.250000e-01
0.000000e+00
1.000000e+00
8.750000e-01
7.500000e-01
6.250000e-01
5.000000e-01
3.750000e-01
2.500000e-01
1.250000e-01
0.000000e+00
1.000000e+00
8.750000e-01
7.500000e-01
6.250000e-01
5.326641e-01
3.750000e-01
2.500000e-01
1.250000e-01
0.000000e+00
1.000000e+00
8.750000e-01
7.500000e-01
6.250000e-01
5.250000e-01
3.750000e-01
2.500000e-01
1.250000e-01
0.000000e+00
1.000000e+00
8.750000e-01
7.500000e-01
6.250000e-01
4.864701e-01
3.750000e-01
2.500000e-01
1.250000e-01
0.000000e+00
1.000000e+00
8.750000e-01
7.500000e-01
6.250000e-01
4.646447e-01
3.750000e-01
2.500000e-01
1.250000e-01
0.000000e+00
1.000000e+00
8.750000e-01
7.500000e-01
6.250000e-01
5.500000e-01
3.750000e-01
2.500000e-01
1.250000e-01
0.000000e+00
1.000000e+00
8.750000e-01
7.500000e-01
6.250000e-01
5.191342e-01
3.750000e-01
2.500000e-01
1.250000e-01
0.000000e+00
1.000000e+00
8.750000e-01
7.500000e-01
6.250000e-01
4.646447e-01
3.750000e-01
2.500000e-01
1.250000e-01
0.000000e+00
1.000000e+00
8.750000e-01
7.500000e-01
6.250000e-01
4.538060e-01
3.750000e-01
2.500000e-01
1.250000e-01
0.000000e+00
1.000000e+00
8.750000e-01
7.500000e-01
6.250000e-01
5.000000e-01
3.750000e-01
2.500000e-01
1.250000e-01
0.000000e+00
1.000000e+00
8.750000e-01
7.500000e-01
6.250000e-01
5.461940e-01
3.750000e-01
2.500000e-01
1.250000e-01
0.000000e+00
1.000000e+00
8.750000e-01
7.500000e-01
6.250000e-01
5.353553e-01
3.750000e-01
2.500000e-01
1.250000e-01
0.000000e+00
1.000000e+00
8.750000e-01
7.500000e-01
6.250000e-01
4.808658e-01
3.750000e-01
2.500000e-01
1.250000e-01
0.000000e+00
1.000000e+00
8.750000e-01
7.500000e-01
6.250000e-01
4.500000e-01
3.750000e-01
2.500000e-01
1.250000e-01
0.000000e+00
        </DataArray>
        <DataArray type="Float32" Name="velocity" NumberOfComponents="3" format="ascii">
0.000000e+00 0.000000e+00 0.000000e+00
7.390805e-01 0.000000e+00 4.037580e-01
1.761581e+00 0.000000e+00 9.623475e-01
2.963189e+00 0.000000e+00 1.618783e+00
3.474810e+00 0.000000e+00 1.898281e+00
2.818730e+00 0.000000e+00 1.539866e+00
1.677335e+00 0.000000e+00 9.163241e-01
7.185579e-01 0.000000e+00 3.925465e-01
0.000000e+00 0.000000e+00 0.000000e+00
-1.811324e-01 0.000000e+00 4.601681e-01
-1.705894e-02 0.000000e+00 7.903609e-01
1.738784e-01 0.000000e+00 1.447546e+00
6.150967e-01 0.000000e+00 1.782840e+00
1.261981e+00 0.000000e+00 8.124876e-01
1.399294e+00 0.000000e+00 -3.251994e-01
9.920430e-01 0.000000e+00 -6.417744e-01
5.774160e-01 0.000000e+00 -6.754977e-01
2.852180e-01 0.000000e+00 -7.245982e-01
-8.728635e-02 0.000000e+00 3.418463e-01
-8.295690e-01 0.000000e+00 3.480934e-01
-1.796688e+00 0.000000e+00 5.348158e-01
-2.784026e+00 0.000000e+00 4.220209e-01
-2.958097e+00 0.000000e+00 -5.277805e-01
-2.205873e+00 0.000000e+00 -1.209529e+00
-1.247979e+00 0.000000e+00 -1.065087e+00
-4.684521e-01 0.000000e+00 -7.632494e-01
1.418969e-01 0.000000e+00 -5.557219e-01
3.350613e-02 0.000000e+00 -2.666594e-01
-8.404590e-01 0.000000e+00 -4.848086e-01
-1.950058e+00 0.000000e+00 -8.463643e-01
-3.225247e+00 0.000000e+00 -1.054381e+00
-3.818893e+00 0.000000e+00 -6.131307e-01
-3.163693e+00 0.000000e+00 -2.903413e-02
-1.932663e+00 0.000000e+00 2.080180e-01
-8.652477e-01 0.000000e+00 3.039009e-01
-4.839865e-02 0.000000e+00 3.851819e-01
-2.281872e-06 0.000000e+00 -6.212211e-01
-4.138980e-06 0.000000e+00 -8.956870e-01
-6.581332e-06 0.000000e+00 -1.488672e+00
-7.025121e-06 0.000000e+00 -1.633834e+00
-2.466590e-06 0.000000e+00 -3.337514e-01
2.043107e-06 0.000000e+00 9.295766e-01
4.710128e-06 0.000000e+00 1.116017e+00
2.188036e-06 0.000000e+00 9.970853e-01
3.435805e-06 0.000000e+00 9.353697e-01
-3.350827e-02 0.000000e+00 -2.666606e-01
8.404537e-01 0.000000e+00 -4.848161e-01
1.950050e+00 0.000000e+00 -8.463795e-01
3.225237e+00 0.000000e+00 -1.054405e+00
3.818886e+00 0.000000e+00 -6.131580e-01
3.163690e+00 0.000000e+00 -2.905754e-02
1.932666e+00 0.000000e+00 2.080050e-01
8.652473e-01 0.000000e+00 3.038966e-01
4.840159e-02 0.000000e+00 3.851825e-01
8.728823e-02 0.000000e+00 3.418432e-01
8.295710e-01 0.000000e+00 3.480841e-01
1.796691e+00 0.000000e+00 5.348001e-01
2.784029e+00 0.000000e+00 4.219974e-01
2.958092e+00 0.000000e+00 -5.278016e-01
2.205864e+00 0.000000e+00 -1.209545e+00
1.247973e+00 0.000000e+00 -1.065094e+00
4.684462e-01 0.000000e+00 -7.632495e-01
-1.419005e-01 0.000000e+00 -5.557188e-01
1.811350e-01 0.000000e+00 4.601646e-01
1.706634e-02 0.000000e+00 7.903573e-01
-1.738656e-01 0.000000e+00 1.447543e+00
-6.150801e-01 0.000000e+00 1.782840e+00
-1.261973e+00 0.000000e+00 8.124954e-01
-1.399293e+00 0.000000e+00 -3.251899e-01
-9.920434e-01 0.000000e+00 -6.417655e-01
-5.774193e-01 0.000000e+00 -6.754909e-01
-2.852225e-01 0.000000e+00 -7.245940e-01
0.000000e+00 0.000000e+00 -0.000000e+00
-7.390739e-01 0.000000e+00 4.037614e-01
-1.761568e+00 0.000000e+00 9.623574e-01
-2.963170e+00 0.000000e+00 1.618801e+00
-3.474790e+00 0.000000e+00 1.898303e+00
-2.818713e+00 0.000000e+00 1.539883e+00
-1.677324e+00 0.000000e+00 9.163343e-01
-7.185533e-01 0.000000e+00 3.925509e-01
0.000000e+00 0.000000e+00 -0.000000e+00
2.035965e-02 -1.620280e-01 0.000000e+00
5.539513e-01 -2.171059e-01 2.854742e-01
1.306969e+00 -4.106001e-01 6.804575e-01
2.164150e+00 -4.164576e-01 1.144681e+00
2.453421e+00 1.827336e-01 1.342287e+00
1.924898e+00 6.685985e-01 1.088901e+00
1.118949e+00 6.069366e-01 6.478479e-01
4.568115e-01 4.383288e-01 2.774624e-01
-4.246876e-02 3.379787e-01 0.000000e+00
-1.261540e-01 -2.331819e-02 3.253801e-01
-5.831208e-03 -5.079671e-02 5.587888e-01
1.417425e-01 -1.427365e-01 1.023644e+00
4.584222e-01 -1.595645e-01 1.260598e+00
8.899452e-01 7.495220e-02 5.745841e-01
9.642481e-01 2.617046e-01 -2.300333e-01
6.787962e-01 2.241585e-01 -4.539174e-01
3.930051e-01 1.468372e-01 -4.775989e-01
1.903098e-01 1.028057e-01 -5.122733e-01
-9.406528e-02 2.536741e-01 2.416585e-01
-6.262414e-01 2.788717e-01 2.461045e-01
-1.327658e+00 3.754269e-01 3.781456e-01
-2.023080e+00 3.097196e-01 2.984558e-01
-2.088462e+00 -1.565711e-01 -3.732296e-01
-1.505564e+00 -5.293447e-01 -8.552557e-01
-8.232695e-01 -5.262856e-01 -7.530964e-01
-2.799159e-01 -4.290195e-01 -5.396893e-01
1.462445e-01 -3.590370e-01 -3.929717e-01
-1.211209e-02 2.864713e-01 -1.886023e-01
-6.393318e-01 3.213645e-01 -3.428324e-01
-1.447288e+00 4.583559e-01 -5.985187e-01
-2.347348e+00 3.888344e-01 -7.455243e-01
-2.694614e+00 -2.144433e-01 -4.335316e-01
-2.167658e+00 -6.920125e-01 -2.049919e-02
-1.293277e+00 -6.695295e-01 1.470998e-01
-5.502504e-01 -5.289716e-01 2.148705e-01
1.972227e-02 -4.314800e-01 2.723906e-01
-1.719060e-06 7.379567e-07 -4.393011e-01
-3.420878e-06 8.590338e-09 -6.333835e-01
-4.426666e-06 4.193331e-08 -1.052653e+00
-4.378942e-06 9.691053e-08 -1.155342e+00
-2.996586e-06 1.820882e-09 -2.359390e-01
2.435596e-06 -2.495050e-07 6.573071e-01
3.366781e-06 5.155106e-07 7.891157e-01
1.124503e-06 -4.367488e-07 7.050687e-01
2.578703e-06 -1.034369e-06 6.614450e-01
1.211045e-02 -2.864702e-01 -1.886030e-01
6.393272e-01 -3.213649e-01 -3.428378e-01
1.447282e+00 -4.583565e-01 -5.985293e-01
2.347342e+00 -3.888347e-01 -7.455420e-01
2.694606e+00 2.144426e-01 -4.335501e-01
2.167659e+00 6.920119e-01 -2.051645e-02
1.293279e+00 6.695304e-01 1.470908e-01
5.502496e-01 5.289709e-01 2.148677e-01
-1.972003e-02 4.314784e-01 2.723906e-01
9.406669e-02 -2.536743e-01 2.416565e-01
6.262426e-01 -2.788727e-01 2.460977e-01
1.327660e+00 -3.754283e-01 3.781345e-01
2.023083e+00 -3.097199e-01 2.984386e-01
2.088456e+00 1.565699e-01 -3.732435e-01
1.505560e+00 5.293447e-01 -8.552680e-01
8.232646e-01 5.262863e-01 -7.531004e-01
2.799113e-01 4.290194e-01 -5.396890e-01
-1.462472e-01 3.590369e-01 -3.929700e-01
1.261560e-01 2.331663e-02 3.253776e-01
5.836500e-03 5.079532e-02 5.587862e-01
-1.417335e-01 1.427355e-01 1.023641e+00
-4.584093e-01 1.595655e-01 1.260598e+00
-8.899404e-01 -7.495202e-02 5.745902e-01
-9.642466e-01 -2.617038e-01 -2.300269e-01
-6.787964e-01 -2.241571e-01 -4.539108e-01
-3.930078e-01 -1.468361e-01 -4.775942e-01
-1.903132e-01 -1.028046e-01 -5.122705e-01
-2.035938e-02 1.620258e-01 -0.000000e+00
-5.539464e-01 2.171042e-01 2.854766e-01
-1.306960e+00 4.105994e-01 6.804646e-01
-2.164137e+00 4.164592e-01 1.144694e+00
-2.453407e+00 -1.827318e-01 1.342303e+00
-1.924886e+00 -6.685968e-01 1.088913e+00
-1.118941e+00 -6.069344e-01 6.478549e-01
-4.568088e-01 -4.383268e-01 2.774656e-01
4.246855e-02 -3.379770e-01 -0.000000e+00
5.711713e-02 -2.236888e-01 0.000000e+00
9.943465e-02 -3.898123e-01 -5.333427e-05
1.994871e-01 -7.816392e-01 -5.194136e-05
2.389558e-01 -9.358384e-01 -1.555407e-06
4.365010e-02 -1.707425e-01 2.772801e-05
-1.481887e-01 5.802677e-01 -1.163856e-05
-1.620516e-01 6.341751e-01 -6.359560e-05
-1.323370e-01 5.177109e-01 -7.607304e-05
-1.191163e-01 4.664971e-01 0.000000e+00
2.591016e-03 -1.005890e-02 -5.552298e-05
1.730049e-02 -6.806107e-02 -1.046977e-04
5.561898e-02 -2.182988e-01 -2.852325e-05
7.533279e-02 -2.953649e-01 3.562485e-05
1.271607e-02 -5.006670e-02 -4.434003e-06
-4.884356e-02 1.911199e-01 -4.128777e-05
-4.824686e-02 1.887760e-01 -6.991410e-05
-3.386170e-02 1.324315e-01 1.949802e-05
-2.740182e-02 1.072113e-01 6.470961e-05
-9.215606e-02 3.610561e-01 -1.392575e-04
-1.241536e-01 4.860925e-01 -1.009545e-04
-1.882962e-01 7.372177e-01 -2.581160e-05
-1.958396e-01 7.666424e-01 2.290422e-06
-3.686440e-02 1.439066e-01 2.737703e-05
1.180489e-01 -4.624707e-01 3.590104e-05
1.467917e-01 -5.748672e-01 -1.190321e-05
1.367270e-01 -5.354440e-01 2.726808e-05
1.310142e-01 -5.131473e-01 5.258162e-05
-9.995518e-02 3.915185e-01 -1.227174e-04
-1.394235e-01 5.461358e-01 -1.177917e-04
-2.222685e-01 8.703994e-01 -7.616992e-05
-2.373586e-01 9.295933e-01 -2.956492e-05
-4.306993e-02 1.687930e-01 1.023501e-04
1.456265e-01 -5.704340e-01 9.099137e-05
1.759830e-01 -6.893124e-01 3.823615e-05
1.596599e-01 -6.252150e-01 -8.731169e-06
1.506698e-01 -5.900701e-01 -1.448641e-06
-3.771530e-07 1.475110e-06 -1.307228e-04
-1.952946e-06 -1.727069e-08 -1.032111e-04
1.672671e-06 1.959795e-06 -1.514491e-04
9.469970e-08 6.897482e-07 3.277716e-05
-2.356741e-06 3.961327e-09 5.040878e-05
1.876809e-06 -6.133502e-07 9.926905e-05
1.381437e-06 1.911888e-07 8.909218e-05
-1.948591e-06 -1.019847e-06 -3.849928e-05
4.412733e-07 -1.728415e-06 -1.671778e-05
9.995469e-02 -3.915165e-01 -1.224260e-04
1.394202e-01 -5.461367e-01 -1.177264e-04
2.222717e-01 -8.703971e-01 -7.615947e-05
2.373596e-01 -9.295930e-01 -3.046821e-05
4.306511e-02 -1.687936e-01 1.041621e-04
-1.456225e-01 5.704335e-01 8.901351e-05
-1.759811e-01 6.893133e-01 3.880968e-05
-1.596636e-01 6.252140e-01 -7.488469e-06
-1.506693e-01 5.900677e-01 -2.550131e-06
9.215627e-02 -3.610563e-01 -1.386668e-04
1.241521e-01 -4.860949e-01 -1.012907e-04
1.882979e-01 -7.372185e-01 -2.565305e-05
1.958423e-01 -7.666437e-01 8.653216e-07
3.685969e-02 -1.439080e-01 3.001398e-05
-1.180452e-01 4.624717e-01 3.297335e-05
-1.467912e-01 5.748690e-01 -1.069103e-05
-1.367294e-01 5.354450e-01 2.852020e-05
-1.310146e-01 5.131472e-01 5.064485e-05
-2.590373e-03 1.005655e-02 -5.541700e-05
-1.730034e-02 6.805782e-02 -1.047731e-04
-5.561838e-02 2.182964e-01 -2.900557e-05
-7.533095e-02 2.953640e-01 3.517011e-05
-1.271793e-02 5.006586e-02 -3.158816e-06
4.884429e-02 -1.911192e-01 -4.261526e-05
4.824829e-02 -1.887738e-01 -6.944685e-05
3.385963e-02 -1.324296e-01 2.018656e-05
2.740093e-02 -1.072093e-01 6.378956e-05
-5.711633e-02 2.236857e-01 -0.000000e+00
-9.943392e-02 3.898088e-01 -5.326176e-05
-1.994865e-01 7.816370e-01 -5.195399e-05
-2.389553e-01 9.358383e-01 -1.818727e-06
-4.365059e-02 1.707424e-01 2.800302e-05
1.481885e-01 -5.802674e-01 -1.158498e-05
1.620527e-01 -6.341733e-01 -6.442766e-05
1.323352e-01 -5.177087e-01 -7.542830e-05
1.191156e-01 -4.664944e-01 -0.000000e+00
5.976617e-02 -1.518347e-01 0.000000e+00
-3.821120e-01 -4.560581e-01 -2.854950e-01
-9.501421e-01 -9.870357e-01 -6.804895e-01
-1.699577e+00 -1.403063e+00 -1.144697e+00
-2.240682e+00 -1.015842e+00 -1.342279e+00
-2.009819e+00 -3.359554e-01 -1.088882e+00
-1.272954e+00 -3.633795e-03 -6.478130e-01
-6.109428e-01 1.655454e-01 -2.774385e-01
-1.246711e-01 3.167243e-01 0.000000e+00
1.218748e-01 4.014209e-02 -3.254600e-01
2.942332e-02 -4.178334e-02 -5.589189e-01
-5.605637e-02 -1.932743e-01 -1.023691e+00
-3.258843e-01 -3.598970e-01 -1.260563e+00
-8.170171e-01 -3.608664e-01 -5.745474e-01
-9.717117e-01 -2.325956e-01 2.300547e-01
-7.032087e-01 -1.287166e-01 4.538864e-01
-4.153017e-01 -5.961724e-02 4.775682e-01
-2.162703e-01 -1.086404e-03 5.122654e-01
-3.904045e-02 2.677970e-01 -2.418725e-01
4.158643e-01 5.449768e-01 -2.462905e-01
9.850754e-01 9.658860e-01 -3.782308e-01
1.626775e+00 1.241715e+00 -2.984247e-01
1.907731e+00 8.637584e-01 3.733038e-01
1.574952e+00 2.572419e-01 8.552919e-01
9.747754e-01 -6.716339e-02 7.530738e-01
4.513269e-01 -2.423250e-01 5.397086e-01
4.377515e-02 -3.852051e-01 3.930356e-01
-1.266920e-01 2.572351e-01 1.883757e-01
4.070487e-01 5.885515e-01 3.426251e-01
1.050360e+00 1.096144e+00 5.983408e-01
1.873556e+00 1.466450e+00 7.455003e-01
2.467426e+00 1.103688e+00 4.336716e-01
2.233994e+00 4.320053e-01 2.068895e-02
1.455996e+00 3.244582e-02 -1.470001e-01
7.365633e-01 -2.004127e-01 -2.148996e-01
1.895700e-01 -3.881539e-01 -2.723904e-01
1.147367e-06 1.488618e-06 4.390917e-01
-5.102059e-07 3.746083e-07 6.331674e-01
8.091176e-06 4.486993e-06 1.052410e+00
2.928114e-06 1.220093e-06 1.155267e+00
5.891696e-07 1.088085e-06 2.361186e-01
-1.262445e-06 -1.417862e-06 -6.570199e-01
1.109058e-06 1.452191e-07 -7.889559e-01
-5.507551e-06 -2.373931e-06 -7.051521e-01
-1.798402e-06 -2.065362e-06 -6.615237e-01
1.266929e-01 -2.572334e-01 1.883770e-01
-4.070508e-01 -5.885520e-01 3.426306e-01
-1.050348e+00 -1.096137e+00 5.983513e-01
-1.873552e+00 -1.466449e+00 7.455168e-01
-2.467423e+00 -1.103686e+00 4.336930e-01
-2.233991e+00 -4.320057e-01 2.070308e-02
-1.455991e+00 -3.244368e-02 -1.469907e-01
-7.365708e-01 2.004102e-01 -2.148943e-01
-1.895715e-01 3.881515e-01 -2.723925e-01
3.903955e-02 -2.677976e-01 -2.418693e-01
-4.158688e-01 -5.449799e-01 -2.462843e-01
-9.850729e-01 -9.658857e-01 -3.782196e-01
-1.626776e+00 -1.241718e+00 -2.984096e-01
-1.907730e+00 -8.637576e-01 3.733217e-01
-1.574945e+00 -2.572395e-01 8.552994e-01
-9.747667e-01 6.716781e-02 7.530794e-01
-4.513282e-01 2.423261e-01 5.397113e-01
-4.377354e-02 3.852058e-01 3.930304e-01
-1.218756e-01 -4.014432e-02 -3.254572e-01
-2.942859e-02 4.177890e-02 -5.589164e-01
5.604967e-02 1.932700e-01 -1.023690e+00
3.258740e-01 3.598915e-01 -1.260564e+00
8.170111e-01 3.608642e-01 -5.745514e-01
9.717096e-01 2.325949e-01 2.300462e-01
7.032133e-01 1.287196e-01 4.538802e-01
4.153000e-01 5.961862e-02 4.775653e-01
2.162720e-01 1.088520e-03 5.122604e-01
-5.976533e-02 1.518325e-01 -0.000000e+00
3.821083e-01 4.560540e-01 -2.854973e-01
9.501349e-01 9.870312e-01 -6.804968e-01
1.699564e+00 1.403058e+00 -1.144710e+00
2.240669e+00 1.015837e+00 -1.342295e+00
2.009807e+00 3.359507e-01 -1.088894e+00
1.272949e+00 3.633148e-03 -6.478220e-01
6.109368e-01 -1.655457e-01 -2.774403e-01
1.246704e-01 -3.167226e-01 -0.000000e+00
1.349819e-09 -2.470827e-09 0.000000e+00
-6.484997e-01 -3.542770e-01 -4.036930e-01
-1.545868e+00 -8.445117e-01 -9.623076e-01
-2.600489e+00 -1.420654e+00 -1.618812e+00
-3.049497e+00 -1.665948e+00 -1.898321e+00
-2.473573e+00 -1.351319e+00 -1.539806e+00
-1.471683e+00 -8.039842e-01 -9.161271e-01
-6.302728e-01 -3.443196e-01 -3.923467e-01
4.006821e-09 -7.334437e-09 0.000000e+00
1.589755e-01 8.684871e-02 -4.602168e-01
1.502624e-02 8.208870e-03 -7.904118e-01
-1.525804e-01 -8.335504e-02 -1.447584e+00
-5.398382e-01 -2.949149e-01 -1.782842e+00
-1.107500e+00 -6.050299e-01 -8.124053e-01
-1.227969e+00 -6.708425e-01 3.253248e-01
-8.705936e-01 -4.756075e-01 6.418524e-01
-5.067073e-01 -2.768155e-01 6.753973e-01
-2.502521e-01 -1.367134e-01 7.244528e-01
7.663446e-02 4.186559e-02 -3.419957e-01
7.280515e-01 3.977364e-01 -3.482636e-01
1.576666e+00 8.613366e-01 -5.349346e-01
2.443095e+00 1.334669e+00 -4.219635e-01
2.595899e+00 1.418146e+00 5.278740e-01
1.935748e+00 1.057504e+00 1.209530e+00
1.095154e+00 5.982856e-01 1.065066e+00
4.110718e-01 2.245695e-01 7.632336e-01
-1.245314e-01 -6.803179e-02 5.557446e-01
-2.938149e-02 -1.605118e-02 2.664517e-01
7.376207e-01 4.029640e-01 4.846295e-01
1.711379e+00 9.349304e-01 8.461609e-01
2.830276e+00 1.546187e+00 1.054392e+00
3.351139e+00 1.830735e+00 6.132059e-01
2.776377e+00 1.516742e+00 2.923171e-02
1.696187e+00 9.266314e-01 -2.078952e-01
7.594135e-01 4.148695e-01 -3.039417e-01
4.247344e-02 2.320335e-02 -3.851786e-01
2.001946e-06 1.093855e-06 6.210638e-01
4.137031e-07 2.282089e-07 8.954612e-01
1.049349e-05 5.735721e-06 1.488489e+00
3.620797e-06 1.981950e-06 1.633619e+00
2.644930e-06 1.454762e-06 3.340098e-01
-3.487694e-06 -1.902419e-06 -9.292008e-01
1.386952e-06 7.535853e-07 -1.115875e+00
-6.775118e-06 -3.704935e-06 -9.971751e-01
-3.015495e-06 -1.647627e-06 -9.354936e-01
2.938342e-02 1.605223e-02 2.664534e-01
-7.376220e-01 -4.029647e-01 4.846373e-01
-1.711363e+00 -9.349216e-01 8.461757e-01
-2.830271e+00 -1.546184e+00 1.054416e+00
-3.351132e+00 -1.830732e+00 6.132353e-01
-2.776377e+00 -1.516742e+00 2.925273e-02
-1.696180e+00 -9.266274e-01 -2.078822e-01
-7.594221e-01 -4.148742e-01 -3.039347e-01
-4.247625e-02 -2.320488e-02 -3.851812e-01
-7.663585e-02 -4.186636e-02 -3.419914e-01
-7.280572e-01 -3.977394e-01 -3.482546e-01
-1.576664e+00 -8.613353e-01 -5.349187e-01
-2.443099e+00 -1.334671e+00 -4.219413e-01
-2.595895e+00 -1.418144e+00 5.278979e-01
-1.935742e+00 -1.057501e+00 1.209542e+00
-1.095142e+00 -5.982788e-01 1.065073e+00
-4.110721e-01 -2.245697e-01 7.632369e-01
1.245337e-01 6.803308e-02 5.557381e-01
-1.589776e-01 -8.684984e-02 -4.602128e-01
-1.503405e-02 -8.213141e-03 -7.904082e-01
1.525707e-01 8.334974e-02 -1.447582e+00
5.398230e-01 2.949067e-01 -1.782843e+00
1.107493e+00 6.050262e-01 -8.124117e-01
1.227965e+00 6.708405e-01 3.253137e-01
8.705999e-01 4.756109e-01 6.418431e-01
5.067065e-01 2.768150e-01 6.753930e-01
2.502552e-01 1.367151e-01 7.244461e-01
1.928990e-09 -3.530993e-09 -0.000000e+00
6.484936e-01 3.542737e-01 -4.036962e-01
1.545858e+00 8.445060e-01 -9.623179e-01
2.600473e+00 1.420645e+00 -1.618830e+00
3.049481e+00 1.665939e+00 -1.898344e+00
2.473556e+00 1.351310e+00 -1.539823e+00
1.471678e+00 8.039811e-01 -9.161396e-01
6.302662e-01 3.443160e-01 -3.923494e-01
3.100282e-09 -5.675029e-09 -0.000000e+00
-9.547269e-02 1.323281e-01 0.000000e+00
-5.902156e-01 -7.512696e-02 -2.854950e-01
-1.343926e+00 -2.662193e-01 -6.804895e-01
-2.098922e+00 -6.720660e-01 -1.144697e+00
-2.065447e+00 -1.336607e+00 -1.342279e+00
-1.368607e+00 -1.509687e+00 -1.088882e+00
-6.908376e-01 -1.069190e+00 -6.478130e-01
-1.907922e-01 -6.035352e-01 -2.774385e-01
1.991542e-01 -2.760340e-01 0.000000e+00
9.962761e-02 8.086521e-02 -3.254600e-01
-1.926199e-02 4.733450e-02 -5.589190e-01
-1.929221e-01 5.725673e-02 -1.023691e+00
-4.789189e-01 -7.976892e-02 -1.260563e+00
-7.450948e-01 -4.925193e-01 -5.745474e-01
-7.207405e-01 -6.919953e-01 2.300547e-01
-4.882566e-01 -5.221839e-01 4.538864e-01
-2.745546e-01 -3.172530e-01 4.775682e-01
-1.177655e-01 -1.813982e-01 5.122654e-01
2.042497e-01 -1.775427e-01 -2.418725e-01
6.832746e-01 5.548551e-02 -2.462905e-01
1.345004e+00 3.070419e-01 -3.782308e-01
1.923817e+00 6.979822e-01 -2.984247e-01
1.757579e+00 1.138609e+00 3.733038e-01
1.067412e+00 1.186288e+00 8.552919e-01
4.701573e-01 8.565337e-01 7.530738e-01
3.994347e-02 5.107072e-01 5.397086e-01
-3.004871e-01 2.449627e-01 3.930356e-01
1.480040e-01 -2.455924e-01 1.883757e-01
7.151783e-01 2.452392e-02 3.426251e-01
1.489885e+00 2.915985e-01 5.983408e-01
2.246262e+00 7.842169e-01 7.455003e-01
2.261877e+00 1.479942e+00 4.336716e-01
1.570552e+00 1.646428e+00 2.068895e-02
8.139804e-01 1.207648e+00 -1.470001e-01
2.293254e-01 7.280801e-01 -2.148996e-01
-2.241951e-01 3.692381e-01 -2.723904e-01
1.872230e-06 1.616218e-07 4.390917e-01
3.725742e-08 -6.297563e-07 6.331674e-01
8.146528e-06 4.389331e-06 1.052410e+00
2.606294e-06 1.809470e-06 1.155267e+00
1.225235e-06 -8.258088e-08 2.361186e-01
-1.876697e-06 -2.918420e-07 -6.570199e-01
7.271593e-07 8.530856e-07 -7.889559e-01
-4.970585e-06 -3.354594e-06 -7.051521e-01
-2.709956e-06 -3.969212e-07 -6.615237e-01
-1.480019e-01 2.455922e-01 1.883770e-01
-7.151799e-01 -2.452545e-02 3.426306e-01
-1.489873e+00 -2.915913e-01 5.983513e-01
-2.246258e+00 -7.842137e-01 7.455167e-01
-2.261874e+00 -1.479941e+00 4.336930e-01
-1.570551e+00 -1.646425e+00 2.070308e-02
-8.139758e-01 -1.207645e+00 -1.469907e-01
-2.293315e-01 -7.280850e-01 -2.148943e-01
2.241923e-01 -3.692381e-01 -2.723925e-01
-2.042507e-01 1.775423e-01 -2.418693e-01
-6.832796e-01 -5.548762e-02 -2.462843e-01
-1.345002e+00 -3.070400e-01 -3.782196e-01
-1.923820e+00 -6.979820e-01 -2.984096e-01
-1.757578e+00 -1.138609e+00 3.733217e-01
-1.067406e+00 -1.186283e+00 8.552994e-01
-4.701489e-01 -8.565288e-01 7.530794e-01
-3.994327e-02 -5.107089e-01 5.397113e-01
3.004885e-01 -2.449617e-01 3.930304e-01
-9.962996e-02 -8.086476e-02 -3.254572e-01
1.925540e-02 -4.733655e-02 -5.589164e-01
1.929149e-01 -5.726005e-02 -1.023690e+00
4.789087e-01 7.976327e-02 -1.260564e+00
7.450898e-01 4.925154e-01 -5.745515e-01
7.207388e-01 6.919938e-01 2.300462e-01
4.882616e-01 5.221861e-01 4.538802e-01
2.745549e-01 3.172508e-01 4.775653e-01
1.177682e-01 1.813985e-01 5.122604e-01
9.547134e-02 -1.323263e-01 -0.000000e+00
5.902102e-01 7.512603e-02 -2.854973e-01
1.343918e+00 2.662157e-01 -6.804968e-01
2.098911e+00 6.720585e-01 -1.144710e+00
2.065436e+00 1.336599e+00 -1.342295e+00
1.368596e+00 1.509679e+00 -1.088894e+00
6.908347e-01 1.069187e+00 -6.478220e-01
1.907887e-01 6.035303e-01 -2.774403e-01
-1.991532e-01 2.760325e-01 -0.000000e+00
-1.573671e-01 1.689220e-01 0.000000e+00
-2.742909e-01 2.942878e-01 -5.333668e-05
-5.499434e-01 5.901841e-01 -5.194799e-05
-6.583725e-01 7.067100e-01 -1.561039e-06
-1.200906e-01 1.289828e-01 2.773053e-05
4.082118e-01 -4.382164e-01 -1.163314e-05
4.460831e-01 -4.790080e-01 -6.359306e-05
3.641367e-01 -3.910782e-01 -7.607338e-05
3.281850e-01 -3.522824e-01 0.000000e+00
-7.064345e-03 7.615116e-03 -5.552485e-05
-4.792393e-02 5.133142e-02 -1.047029e-04
-1.536411e-01 1.647491e-01 -2.852931e-05