<?xml version="1.0"?>
<VTKFile type="StructuredGrid" version="0.1">
  <StructuredGrid WholeExtent="0 8 0 8 0 8">
    <Piece Extent="0 8 0 8 0 8">
      <PointData Scalars="temperature" Vectors="velocity">
        <DataArray type="Float32" Name="temperature" format="ascii">
1.000000e+00
9.054375e-01
7.796467e-01
6.602796e-01
5.673538e-01
4.106052e-01
2.803418e-01
1.568566e-01
0.000000e+00
1.000000e+00
9.050585e-01
7.787522e-01
6.558071e-01
5.432035e-01
4.060667e-01
2.794874e-01
1.564719e-01
0.000000e+00
1.000000e+00
9.043569e-01
7.771344e-01
6.473486e-01
5.004594e-01
3.986282e-01
2.779694e-01
1.557626e-01
0.000000e+00
1.000000e+00
9.042355e-01
7.768390e-01
6.456295e-01
4.919637e-01
3.972654e-01
2.776852e-01
1.556305e-01
0.000000e+00
1.000000e+00
9.048714e-01
7.782872e-01
6.530836e-01
5.282953e-01
4.035012e-01
2.790149e-01
1.562560e-01
0.000000e+00
1.000000e+00
9.055076e-01
7.797204e-01
6.599746e-01
5.647229e-01
4.102729e-01
2.803619e-01
1.568824e-01
0.000000e+00
1.000000e+00
9.053866e-01
7.794305e-01
6.584794e-01
5.561907e-01
4.086968e-01
2.800704e-01
1.567503e-01
0.000000e+00
1.000000e+00
9.046882e-01
7.778231e-01
6.502915e-01
5.134071e-01
4.010096e-01
2.785456e-01
1.560439e-01
0.000000e+00
1.000000e+00
9.042596e-01
7.768673e-01
6.452512e-01
4.893054e-01
3.969316e-01
2.776684e-01
1.556218e-01
0.000000e+00
1.000000e+00
9.052650e-01
7.792445e-01
6.582516e-01
5.559057e-01
4.084444e-01
2.799449e-01
1.566754e-01
0.000000e+00
1.000000e+00
9.050045e-01
7.786191e-01
6.550563e-01
5.388476e-01
4.052826e-01
2.793474e-01
1.564089e-01
0.000000e+00
1.000000e+00
9.045078e-01
7.774755e-01
6.490957e-01
5.086158e-01
4.000013e-01
2.782734e-01
1.559070e-01
0.000000e+00
1.000000e+00
9.044219e-01
7.772672e-01
6.478980e-01
5.026036e-01
3.990197e-01
2.780720e-01
1.558134e-01
0.000000e+00
1.000000e+00
9.048718e-01
7.782905e-01
6.531255e-01
5.283079e-01
4.034740e-01
2.790132e-01
1.562556e-01
0.000000e+00
1.000000e+00
9.053214e-01
7.793040e-01
6.580417e-01
5.540533e-01
4.082173e-01
2.799643e-01
1.566987e-01
0.000000e+00
1.000000e+00
9.052359e-01
7.790987e-01
6.569665e-01
5.480247e-01
4.071208e-01
2.797587e-01
1.566053e-01
0.000000e+00
1.000000e+00
9.047426e-01
7.779623e-01
6.511562e-01
5.177781e-01
4.017068e-01
2.786816e-01
1.561064e-01
0.000000e+00
1.000000e+00
9.044321e-01
7.772796e-01
6.476246e-01
5.007160e-01
3.987759e-01
2.780550e-01
1.558024e-01
0.000000e+00
1.000000e+00
9.048485e-01
7.782671e-01
6.531109e-01
5.282921e-01
4.034519e-01
2.789948e-01
1.562386e-01
0.000000e+00
1.000000e+00
9.048737e-01
7.782938e-01
6.531632e-01
5.283205e-01
4.034513e-01
2.790125e-01
1.562574e-01
0.000000e+00
1.000000e+00
9.048719e-01
7.782918e-01
6.531482e-01
5.283154e-01
4.034597e-01
2.790121e-01
1.562558e-01
0.000000e+00
1.000000e+00
9.048718e-01
7.782915e-01
6.531377e-01
5.283137e-01
4.034678e-01
2.790127e-01
1.562557e-01
0.000000e+00
1.000000e+00
9.048721e-01
7.782938e-01
6.531674e-01
5.283205e-01
4.034468e-01
2.790114e-01
1.562553e-01
0.000000e+00
1.000000e+00
9.048718e-01
7.782915e-01
6.531377e-01
5.283137e-01
4.034679e-01
2.790127e-01
1.562556e-01
0.000000e+00
1.000000e+00
9.048720e-01
7.782918e-01
6.531482e-01
5.283155e-01
4.034597e-01
2.790122e-01
1.562558e-01
0.000000e+00
1.000000e+00
9.048737e-01
7.782938e-01
6.531632e-01
5.283204e-01
4.034513e-01
2.790125e-01
1.562574e-01
0.000000e+00
1.000000e+00
9.048485e-01
7.782671e-01
6.531108e-01
5.282920e-01
4.034519e-01
2.789949e-01
1.562386e-01
0.000000e+00
1.000000e+00
9.044321e-01
7.772796e-01
6.476247e-01
5.007160e-01
3.987760e-01
2.780551e-01
1.558024e-01
0.000000e+00
1.000000e+00
9.047426e-01
7.779623e-01
6.511562e-01
5.177781e-01
4.017068e-01
2.786816e-01
1.561064e-01
0.000000e+00
1.000000e+00
9.052359e-01
7.790987e-01
6.569664e-01
5.480246e-01
4.071208e-01
2.797586e-01
1.566053e-01
0.000000e+00
1.000000e+00
9.053214e-01
7.793040e-01
6.580416e-01
5.540533e-01
4.082172e-01
2.799642e-01
1.566986e-01
0.000000e+00
1.000000e+00
9.048718e-01
7.782905e-01
6.531255e-01
5.283079e-01
4.034740e-01
2.790132e-01
1.562556e-01
0.000000e+00
1.000000e+00
9.044219e-01
7.772672e-01
6.478981e-01
5.026037e-01
3.990198e-01
2.780720e-01
1.558134e-01
0.000000e+00
1.000000e+00
9.045078e-01
7.774756e-01
6.490958e-01
5.086159e-01
4.000014e-01
2.782734e-01
1.559070e-01
0.000000e+00
1.000000e+00
9.050045e-01
7.786191e-01
6.550563e-01
5.388476e-01
4.052826e-01
2.793474e-01
1.564089e-01
0.000000e+00
1.000000e+00
9.052650e-01
7.792444e-01
6.582515e-01
5.559056e-01
4.084443e-01
2.799448e-01
1.566754e-01
0.000000e+00
1.000000e+00
9.042597e-01
7.768673e-01
6.452512e-01
4.893055e-01
3.969317e-01
2.776686e-01
1.556219e-01
0.000000e+00
1.000000e+00
9.046882e-01
7.778231e-01
6.502916e-01
5.134071e-01
4.010097e-01
2.785456e-01
1.560440e-01
0.000000e+00
1.000000e+00
9.053866e-01
7.794304e-01
6.584794e-01
5.561906e-01
4.086967e-01
2.800703e-01
1.567502e-01
0.000000e+00
1.000000e+00
9.055076e-01
7.797203e-01
6.599745e-01
5.647228e-01
4.102728e-01
2.803618e-01
1.568824e-01
0.000000e+00
1.000000e+00
9.048714e-01
7.782872e-01
6.530836e-01
5.282953e-01
4.035012e-01
2.790149e-01
1.562560e-01
0.000000e+00
1.000000e+00
9.042355e-01
7.768390e-01
6.456296e-01
4.919639e-01
3.972655e-01
2.776852e-01
1.556305e-01
0.000000e+00
1.000000e+00
9.043569e-01
7.771345e-01
6.473487e-01
5.004595e-01
3.986282e-01
2.779695e-01
1.557627e-01
0.000000e+00
1.000000e+00
9.050585e-01
7.787522e-01
6.558070e-01
5.432034e-01
4.060666e-01
2.794874e-01
1.564718e-01
0.000000e+00
1.000000e+00
9.054374e-01
7.796466e-01
6.602796e-01
5.673537e-01
4.106050e-01
2.803415e-01
1.568564e-01
0.000000e+00
1.000000e+00
9.044321e-01
7.772796e-01
6.476247e-01
5.007160e-01
3.987760e-01
2.780551e-01
1.558024e-01
0.000000e+00
1.000000e+00
9.047426e-01
7.779623e-01
6.511562e-01
5.177781e-01
4.017068e-01
2.786816e-01
1.561064e-01
0.000000e+00
1.000000e+00
9.052359e-01
7.790987e-01
6.569664e-01
5.480246e-01
4.071208e-01
2.797586e-01
1.566053e-01
0.000000e+00
1.000000e+00
9.053214e-01
7.793040e-01
6.580416e-01
5.540533e-01
4.082172e-01
2.799642e-01
1.566986e-01
0.000000e+00
1.000000e+00
9.048718e-01
7.782905e-01
6.531255e-01
5.283079e-01
4.034740e-01
2.790132e-01
1.562556e-01
0.000000e+00
1.000000e+00
9.044219e-01
7.772672e-01
6.478981e-01
5.026037e-01
3.990198e-01
2.780720e-01
1.558134e-01
0.000000e+00
1.000000e+00
9.045078e-01
7.774756e-01
6.490958e-01
5.086159e-01
4.000014e-01
2.782734e-01
1.559070e-01
0.000000e+00
1.000000e+00
9.050045e-01
7.786191e-01
6.550563e-01
5.388476e-01
4.052826e-01
2.793474e-01
1.564089e-01
0.000000e+00
1.000000e+00
9.052650e-01
7.792444e-01
6.582515e-01
5.559056e-01
4.084443e-01
2.799448e-01
1.566754e-01
0.000000e+00
1.000000e+00
9.048485e-01
7.782671e-01
6.531109e-01
5.282921e-01
4.034519e-01
2.789948e-01
1.562386e-01
0.000000e+00
1.000000e+00
9.048737e-01
7.782938e-01
6.531632e-01
5.283205e-01
4.034513e-01
2.790125e-01
1.562574e-01
0.000000e+00
1.000000e+00
9.048719e-01
7.782918e-01
6.531482e-01
5.283154e-01
4.034597e-01
2.790121e-01
1.562558e-01
0.000000e+00
1.000000e+00
9.048718e-01
7.782915e-01
6.531377e-01
5.283137e-01
4.034678e-01
2.790127e-01
1.562557e-01
0.000000e+00
1.000000e+00
9.048721e-01
7.782938e-01
6.531674e-01
5.283205e-01
4.034468e-01
2.790114e-01
1.562553e-01
0.000000e+00
1.000000e+00
9.048718e-01
7.782915e-01
6.531377e-01
5.283137e-01
4.034679e-01
2.790127e-01
1.562556e-01
0.000000e+00
1.000000e+00
9.048720e-01
7.782918e-01
6.531482e-01
5.283155e-01
4.034597e-01
2.790122e-01
1.562558e-01
0.000000e+00
1.000000e+00
9.048737e-01
7.782938e-01
6.531632e-01
5.283204e-01
4.034513e-01
2.790125e-01
1.562574e-01
0.000000e+00
1.000000e+00
9.048485e-01
7.782671e-01
6.531108e-01
5.282920e-01
4.034519e-01
2.789949e-01
1.562386e-01
0.000000e+00
1.000000e+00
9.052650e-01
7.792445e-01
6.582516e-01
5.559057e-01
4.084444e-01
2.799449e-01
1.566754e-01
0.000000e+00
1.000000e+00
9.050045e-01
7.786191e-01
6.550563e-01
5.388476e-01
4.052826e-01
2.793474e-01
1.564089e-01
0.000000e+00
1.000000e+00
9.045078e-01
7.774755e-01
6.490957e-01
5.086158e-01
4.000013e-01
2.782734e-01
1.559070e-01
0.000000e+00
1.000000e+00
9.044219e-01
7.772672e-01
6.478980e-01
5.026036e-01
3.990197e-01
2.780720e-01
1.558134e-01
0.000000e+00
1.000000e+00
9.048718e-01
7.782905e-01
6.531255e-01
5.283079e-01
4.034740e-01
2.790132e-01
1.562556e-01
0.000000e+00
1.000000e+00
9.053214e-01
7.793040e-01
6.580417e-01
5.540533e-01
4.082173e-01
2.799643e-01
1.566987e-01
0.000000e+00
1.000000e+00
9.052359e-01
7.790987e-01
6.569665e-01
5.480247e-01
4.071208e-01
2.797587e-01
1.566053e-01
0.000000e+00
1.000000e+00
9.047426e-01
7.779623e-01
6.511562e-01
5.177781e-01
4.017068e-01
2.786816e-01
1.561064e-01
0.000000e+00
1.000000e+00
9.044321e-01
7.772796e-01
6.476246e-01
5.007160e-01
3.987759e-01
2.780550e-01
1.558024e-01
0.000000e+00
1.000000e+00
9.054375e-01
7.796467e-01
6.602796e-01
5.673538e-01
4.106052e-01
2.803418e-01
1.568566e-01
0.000000e+00
1.000000e+00
9.050585e-01
7.787522e-01
6.558071e-01
5.432035e-01
4.060667e-01
2.794874e-01
1.564719e-01
0.000000e+00
1.000000e+00
9.043569e-01
7.771344e-01
6.473486e-01
5.004594e-01
3.986282e-01
2.779694e-01
1.557626e-01
0.000000e+00
1.000000e+00
9.042355e-01
7.768390e-01
6.456295e-01
4.919637e-01
3.972654e-01
2.776852e-01
1.556305e-01
0.000000e+00
1.000000e+00
9.048714e-01
7.782872e-01
6.530836e-01
5.282953e-01
4.035012e-01
2.790149e-01
1.562560e-01
0.000000e+00
1.000000e+00
9.055076e-01
7.797204e-01
6.599746e-01
5.647229e-01
4.102729e-01
2.803619e-01
1.568824e-01
0.000000e+00
1.000000e+00
9.053866e-01
7.794305e-01
6.584794e-01
5.561907e-01
4.086968e-01
2.800704e-01
1.567503e-01
0.000000e+00
1.000000e+00
9.046882e-01
7.778231e-01
6.502915e-01
5.134071e-01
4.010096e-01
2.785456e-01
1.560439e-01
0.000000e+00
1.000000e+00
9.042596e-01
7.768673e-01
6.452512e-01
4.893054e-01
3.969316e-01
2.776684e-01
1.556218e-01
0.000000e+00
        </DataArray>
        <DataArray type="Float32" Name="velocity" NumberOfComponents="3" format="ascii">
0.000000e+00 0.000000e+00 0.000000e+00
8.957750e-01 0.000000e+00 4.893598e-01
1.994482e+00 0.000000e+00 1.089581e+00
3.151499e+00 0.000000e+00 1.721657e+00
3.625796e+00 0.000000e+00 1.980764e+00
3.036979e+00 0.000000e+00 1.659095e+00
1.917416e+00 0.000000e+00 1.047480e+00
8.594412e-01 0.000000e+00 4.695107e-01
0.000000e+00 0.000000e+00 0.000000e+00
-2.331265e-01 0.000000e+00 5.922594e-01
-2.722668e-02 0.000000e+00 9.377193e-01
2.103233e-01 0.000000e+00 1.534303e+00
6.745693e-01 0.000000e+00 1.737656e+00
1.256535e+00 0.000000e+00 8.715476e-01
1.407292e+00 0.000000e+00 -1.958458e-01
1.082285e+00 0.000000e+00 -6.526901e-01
6.814307e-01 0.000000e+00 -8.022118e-01
3.519080e-01 0.000000e+00 -8.940245e-01
-1.110896e-01 0.000000e+00 4.350686e-01
-1.039692e+00 0.000000e+00 3.933987e-01
-2.100949e+00 0.000000e+00 5.037030e-01
-3.050107e+00 0.000000e+00 2.942921e-01
-3.206076e+00 0.000000e+00 -5.507564e-01
-2.491032e+00 0.000000e+00 -1.184567e+00
-1.489816e+00 0.000000e+00 -1.151568e+00
-5.814780e-01 0.000000e+00 -9.050338e-01
1.737819e-01 0.000000e+00 -6.805955e-01
4.525135e-02 0.000000e+00 -3.601340e-01
-1.056402e+00 0.000000e+00 -6.047934e-01
-2.299133e+00 0.000000e+00 -9.479367e-01
-3.559265e+00 0.000000e+00 -1.084694e+00
-4.091708e+00 0.000000e+00 -6.725877e-01
-3.470818e+00 0.000000e+00 -1.081547e-01
-2.244024e+00 0.000000e+00 2.070256e-01
-1.053127e+00 0.000000e+00 3.749765e-01
-6.193058e-02 0.000000e+00 4.928762e-01
-3.016703e-06 0.000000e+00 -8.212726e-01
-9.877163e-04 0.000000e+00 -1.093710e+00
9.733098e-05 0.000000e+00 -1.598837e+00
2.046846e-03 0.000000e+00 -1.585050e+00
4.750084e-04 0.000000e+00 -4.005157e-01
-7.591144e-04 0.000000e+00 8.121164e-01
9.680669e-04 0.000000e+00 1.190110e+00
1.391825e-03 0.000000e+00 1.207334e+00
4.328909e-06 0.000000e+00 1.178510e+00
-4.497205e-02 0.000000e+00 -3.578900e-01
1.052762e+00 0.000000e+00 -6.017880e-01
2.288518e+00 0.000000e+00 -9.424243e-01
3.548429e+00 0.000000e+00 -1.083164e+00
4.098157e+00 0.000000e+00 -6.776533e-01
3.492066e+00 0.000000e+00 -1.117040e-01
2.261464e+00 0.000000e+00 2.054518e-01
1.060477e+00 0.000000e+00 3.729408e-01
6.171178e-02 0.000000e+00 4.911056e-01
1.119970e-01 0.000000e+00 4.386092e-01
1.036902e+00 0.000000e+00 3.974403e-01
2.093444e+00 0.000000e+00 5.058334e-01
3.045224e+00 0.000000e+00 3.000343e-01
3.211647e+00 0.000000e+00 -5.439310e-01
2.502545e+00 0.000000e+00 -1.187625e+00
1.499318e+00 0.000000e+00 -1.159786e+00
5.855112e-01 0.000000e+00 -9.117981e-01
-1.751566e-01 0.000000e+00 -6.859584e-01
2.345881e-01 0.000000e+00 5.959597e-01
2.463643e-02 0.000000e+00 9.426937e-01
-2.136263e-01 0.000000e+00 1.540881e+00
-6.773057e-01 0.000000e+00 1.741100e+00
-1.260622e+00 0.000000e+00 8.715349e-01
-1.409914e+00 0.000000e+00 -1.948690e-01
-1.082064e+00 0.000000e+00 -6.538316e-01
-6.814540e-01 0.000000e+00 -8.067609e-01
-3.538649e-01 0.000000e+00 -8.989767e-01
0.000000e+00 0.000000e+00 -0.000000e+00
-9.037420e-01 0.000000e+00 4.937208e-01
-2.012916e+00 0.000000e+00 1.099671e+00
-3.172609e+00 0.000000e+00 1.733219e+00
-3.630720e+00 0.000000e+00 1.983489e+00
-3.027621e+00 0.000000e+00 1.654011e+00
-1.910349e+00 0.000000e+00 1.043638e+00
-8.579798e-01 0.000000e+00 4.687206e-01
0.000000e+00 0.000000e+00 -0.000000e+00
2.446951e-02 -1.947354e-01 0.000000e+00
6.684585e-01 -2.365490e-01 3.462169e-01
1.472223e+00 -3.923906e-01 7.712713e-01
2.290755e+00 -3.462119e-01 1.218090e+00
2.560741e+00 1.694667e-01 1.399555e+00
2.082586e+00 6.149287e-01 1.170717e+00
1.283210e+00 6.312136e-01 7.385367e-01
5.471604e-01 5.057605e-01 3.310273e-01
-5.081482e-02 4.043991e-01 0.000000e+00
-1.640990e-01 -1.424931e-02 4.181551e-01
-1.313801e-02 -3.811227e-02 6.628506e-01
1.672047e-01 -1.191933e-01 1.085344e+00
4.980945e-01 -1.234281e-01 1.229163e+00
8.867227e-01 6.598539e-02 6.158906e-01
9.714529e-01 2.288088e-01 -1.393974e-01
7.410083e-01 2.191147e-01 -4.621569e-01
4.641765e-01 1.571688e-01 -5.672794e-01
2.364812e-01 1.119957e-01 -6.315675e-01
-1.218752e-01 3.413805e-01 3.068981e-01
-7.829893e-01 3.485682e-01 2.779738e-01
-1.544525e+00 4.038148e-01 3.562946e-01
-2.205822e+00 2.790731e-01 2.086495e-01
-2.265038e+00 -1.605502e-01 -3.893431e-01
-1.712127e+00 -5.256216e-01 -8.381750e-01
-9.912657e-01 -5.846787e-01 -8.147862e-01
-3.499948e-01 -5.245347e-01 -6.397908e-01
1.808086e-01 -4.546822e-01 -4.805806e-01
-1.523540e-02 3.783035e-01 -2.550577e-01
-8.001295e-01 3.915444e-01 -4.279229e-01
-1.694867e+00 4.789895e-01 -6.699898e-01
-2.575526e+00 3.390152e-01 -7.668208e-01
-2.888847e+00 -2.181599e-01 -4.757596e-01
-2.392148e+00 -6.765639e-01 -7.675548e-02
-1.510665e+00 -7.311965e-01 1.463197e-01
-6.721236e-01 -6.363390e-01 2.652825e-01
2.336823e-02 -5.374807e-01 3.487773e-01
-1.691174e-04 1.328773e-03 -5.808000e-01
1.024606e-03 2.091113e-03 -7.734070e-01
3.247634e-03 2.081017e-03 -1.130648e+00
4.526687e-03 -1.453756e-03 -1.120785e+00
1.300472e-03 -4.401128e-03 -2.832618e-01
-2.155233e-03 -2.328725e-03 5.742972e-01
-1.856767e-03 8.998131e-04 8.416231e-01
-6.667840e-04 2.068396e-03 8.537306e-01
-2.677757e-04 2.155590e-03 8.333887e-01
1.520003e-02 -3.756533e-01 -2.526923e-01
8.008564e-01 -3.873389e-01 -4.254758e-01
1.694464e+00 -4.746231e-01 -6.666715e-01
2.575690e+00 -3.437857e-01 -7.662898e-01
2.894412e+00 2.072380e-01 -4.789121e-01
2.400593e+00 6.734051e-01 -7.870767e-02
1.515906e+00 7.354101e-01 1.454273e-01
6.735956e-01 6.414537e-01 2.637191e-01
-2.416802e-02 5.420765e-01 3.470013e-01
1.225521e-01 -3.389202e-01 3.107202e-01
7.841556e-01 -3.446451e-01 2.812175e-01
1.545566e+00 -3.997402e-01 3.573997e-01
2.208851e+00 -2.829676e-01 2.116823e-01
2.269764e+00 1.508216e-01 -3.848556e-01
1.714939e+00 5.220167e-01 -8.391402e-01
9.917818e-01 5.877830e-01 -8.196233e-01
3.492343e-01 5.289070e-01 -6.448156e-01
-1.825850e-01 4.587583e-01 -4.854781e-01
1.653888e-01 1.641526e-02 4.220832e-01
1.372040e-02 4.140745e-02 6.667524e-01
-1.652007e-01 1.226109e-01 1.089088e+00
-4.959065e-01 1.202690e-01 1.230752e+00
-8.895467e-01 -7.458941e-02 6.166396e-01
-9.780483e-01 -2.331134e-01 -1.370368e-01
-7.465522e-01 -2.175604e-01 -4.616711e-01
-4.677071e-01 -1.539121e-01 -5.704340e-01
-2.387577e-01 -1.086405e-01 -6.362295e-01
-2.468963e-02 1.964872e-01 -0.000000e+00
-6.736012e-01 2.390200e-01 3.488422e-01
-1.482686e+00 3.951606e-01 7.767675e-01
-2.302649e+00 3.409493e-01 1.224917e+00
-2.566793e+00 -1.803815e-01 1.403603e+00
-2.084431e+00 -6.184969e-01 1.171981e+00
-1.286064e+00 -6.281975e-01 7.398911e-01
-5.500773e-01 -5.021620e-01 3.323691e-01
5.036774e-02 -4.008410e-01 -0.000000e+00
6.901513e-02 -2.702851e-01 0.000000e+00
1.109752e-01 -4.380174e-01 -4.599773e-04
2.003326e-01 -7.880696e-01 -4.734993e-04
2.175864e-01 -8.599295e-01 -1.053140e-03
4.633112e-02 -2.013692e-01 -2.692558e-03
-1.300478e-01 4.809645e-01 -3.830857e-03
-1.684610e-01 6.351855e-01 -3.319616e-03
-1.541136e-01 5.905096e-01 -1.763552e-03
-1.419647e-01 5.559790e-01 0.000000e+00
-1.076363e-03 7.582211e-03 -2.116160e-03
1.543518e-02 -5.130473e-02 -1.474836e-03
5.308190e-02 -1.916420e-01 -5.115047e-04
6.697989e-02 -2.499474e-01 1.165782e-04
1.245246e-02 -5.650964e-02 -7.682260e-04
-4.335524e-02 1.460497e-01 -1.871301e-03
-4.870341e-02 1.684650e-01 -1.059279e-03
-3.675299e-02 1.310848e-01 8.854966e-04
-2.873834e-02 1.090203e-01 2.217555e-03
-1.228653e-01 4.834147e-01 -2.165720e-03
-1.515961e-01 6.059158e-01 -1.363448e-03
-2.017858e-01 8.113561e-01 -1.491281e-04
-1.891719e-01 7.605019e-01 -2.472405e-04
-4.432759e-02 1.757465e-01 -1.091363e-03
1.036444e-01 -4.202777e-01 -5.296548e-04
1.564342e-01 -6.286108e-01 7.547354e-04
1.653705e-01 -6.569549e-01 1.738285e-03
1.658800e-01 -6.520473e-01 2.333544e-03
-1.313626e-01 5.151757e-01 -1.413760e-03
-1.671510e-01 6.669166e-01 -1.158868e-03
-2.342394e-01 9.391289e-01 -7.417880e-04
-2.260932e-01 9.053311e-01 1.255334e-04
-5.151485e-02 2.050891e-01 5.972574e-04
1.271236e-01 -5.089909e-01 2.466027e-04
1.855888e-01 -7.392665e-01 2.283265e-04
1.908703e-01 -7.540244e-01 7.140419e-04
1.882773e-01 -7.378973e-01 1.070580e-03
1.391039e-06 -5.450352e-06 -1.752541e-04
3.434074e-03 8.726531e-04 -2.502454e-04
6.653820e-03 1.699414e-03 -2.080812e-04
6.368400e-03 1.628358e-03 -9.227579e-05
9.752439e-04 2.550670e-04 -2.929041e-05
-3.976327e-03 -1.012993e-03 9.258750e-05
-4.290380e-03 -1.094291e-03 1.884500e-04
-2.132185e-03 -5.462941e-04 1.962526e-04
1.263969e-06 -4.947094e-06 2.026112e-04
1.316678e-01 -5.151084e-01 1.071785e-03
1.730913e-01 -6.654089e-01 7.328648e-04
2.448047e-01 -9.364315e-01 3.903523e-04
2.357523e-01 -9.028609e-01 -3.309610e-04
5.332843e-02 -2.046156e-01 -6.293086e-04
-1.322408e-01 5.076887e-01 -9.636036e-05
-1.913930e-01 7.377875e-01 2.403668e-05
-1.939267e-01 7.532412e-01 -3.740738e-04
-1.884920e-01 7.378332e-01 -7.113062e-04
1.238827e-01 -4.831642e-01 1.937604e-03
1.574891e-01 -6.044198e-01 1.086263e-03
2.120408e-01 -8.087410e-01 -6.142590e-05
1.987829e-01 -7.580471e-01 8.782016e-05
4.566518e-02 -1.753971e-01 1.069819e-03
-1.102646e-01 4.185916e-01 6.052476e-04
-1.638964e-01 6.267091e-01 -6.975164e-04
-1.696810e-01 6.558538e-01 -1.546996e-03
-1.669764e-01 6.517623e-01 -2.102593e-03
2.663117e-03 -7.184595e-03 2.039551e-03
-1.101079e-02 5.242724e-02 1.354690e-03
-4.520775e-02 1.936482e-01 4.001062e-04
-6.089217e-02 2.515004e-01 -1.486418e-04
-1.600733e-02 5.560704e-02 7.393830e-04
3.217214e-02 -1.489022e-01 1.871398e-03
3.820594e-02 -1.711416e-01 1.050558e-03
3.077361e-02 -1.326093e-01 -8.781255e-04
2.706965e-02 -1.094475e-01 -2.158400e-03
-6.901382e-02 2.702800e-01 -0.000000e+00
-1.125484e-01 4.376095e-01 4.278591e-04
-2.019242e-01 7.876605e-01 4.242302e-04
-2.212823e-01 8.589856e-01 1.030727e-03
-5.583920e-02 1.989451e-01 2.667883e-03
1.165651e-01 -4.844046e-01 3.770729e-03
1.568478e-01 -6.381466e-01 3.227701e-03
1.479525e-01 -5.920799e-01 1.709891e-03
1.419647e-01 -5.559790e-01 -0.000000e+00
7.253891e-02 -1.842836e-01 0.000000e+00
-4.765976e-01 -5.326905e-01 -3.488590e-01
-1.111802e+00 -1.057665e+00 -7.767991e-01
-1.857376e+00 -1.403253e+00 -1.224950e+00
-2.339161e+00 -1.072234e+00 -1.403623e+00
-2.125839e+00 -4.563848e-01 -1.171957e+00
-1.429750e+00 -6.520219e-02 -7.398372e-01
-7.233769e-01 1.768662e-01 -3.323273e-01
-1.479151e-01 3.757752e-01 0.000000e+00
1.530316e-01 6.491718e-02 -4.221672e-01
3.184005e-02 -2.979351e-02 -6.668513e-01
-8.629837e-02 -1.868558e-01 -1.089200e+00
-3.776762e-01 -3.433435e-01 -1.230844e+00
-8.165669e-01 -3.610285e-01 -6.166130e-01
-9.702715e-01 -2.643283e-01 1.371452e-01
-7.595763e-01 -1.669575e-01 4.617143e-01
-4.842519e-01 -8.922728e-02 5.704071e-01
-2.615641e-01 -1.921854e-02 6.362103e-01
-5.489263e-02 3.562120e-01 -3.109316e-01
5.228865e-01 6.783644e-01 -2.814849e-01
1.164557e+00 1.091689e+00 -3.576429e-01
1.802549e+00 1.307259e+00 -2.118427e-01
2.063946e+00 9.557356e-01 3.848124e-01
1.754982e+00 3.639673e-01 8.392071e-01
1.151954e+00 -4.042982e-02 8.197114e-01
5.598953e-01 -2.967737e-01 6.449452e-01
5.967299e-02 -4.901466e-01 4.856350e-01
-1.667185e-01 3.369707e-01 2.523628e-01
5.170930e-01 7.238365e-01 4.250369e-01
1.259337e+00 1.228822e+00 6.662972e-01
2.095373e+00 1.536440e+00 7.660751e-01
2.639169e+00 1.205747e+00 4.788528e-01
2.429341e+00 5.598735e-01 7.883582e-02
1.682751e+00 8.126465e-02 -1.451923e-01
8.985548e-01 -2.400082e-01 -2.633756e-01
2.386239e-01 -4.873066e-01 -3.466284e-01
4.954700e-04 -1.252910e-03 5.804544e-01
1.905154e-03 -1.348707e-03 7.729009e-01
3.849819e-03 -2.686409e-04 1.130218e+00
3.273369e-03 3.449695e-03 1.120568e+00
-9.702121e-04 4.494335e-03 2.832525e-01
-3.017174e-03 1.008753e-03 -5.740898e-01
-1.200027e-03 -1.679038e-03 -8.412898e-01
4.011251e-04 -2.138232e-03 -8.533132e-01
7.945851e-04 -2.026980e-03 -8.329583e-01
1.679670e-01 -3.393268e-01 2.547255e-01
-5.144369e-01 -7.271924e-01 4.274952e-01
-1.257599e+00 -1.232848e+00 6.696423e-01
-2.097521e+00 -1.532169e+00 7.666452e-01
-2.639519e+00 -1.193479e+00 4.757458e-01
-2.423449e+00 -5.530470e-01 7.692042e-02
-1.676128e+00 -8.244509e-02 -1.460622e-01
-8.948121e-01 2.362224e-01 -2.649290e-01
-2.371247e-01 4.828807e-01 -3.484068e-01
5.666637e-02 -3.580616e-01 -3.071115e-01
-5.199877e-01 -6.812644e-01 -2.782298e-01
-1.161702e+00 -1.094776e+00 -3.565090e-01
-1.801769e+00 -1.302391e+00 -2.087700e-01
-2.064463e+00 -9.449219e-01 3.893387e-01
-1.754232e+00 -3.594451e-01 8.382680e-01
-1.150002e+00 3.796174e-02 8.148871e-01
-5.584565e-01 2.925768e-01 6.399199e-01
-5.927185e-02 4.857166e-01 4.807274e-01
-1.508643e-01 -6.621138e-02 -4.182391e-01
-2.975774e-02 2.716681e-02 -6.629477e-01
8.967735e-02 1.848030e-01 -1.085452e+00
3.780590e-01 3.471548e-01 -1.229251e+00
8.099475e-01 3.672257e-01 -6.158695e-01
9.624154e-01 2.649460e-01 1.394939e-01
7.554552e-01 1.629422e-01 4.621870e-01
4.827171e-01 8.468164e-02 5.672411e-01
2.611814e-01 1.518425e-02 6.315381e-01
-7.188972e-02 1.826343e-01 -0.000000e+00
4.732637e-01 5.280457e-01 -3.462408e-01
1.103933e+00 1.050209e+00 -7.713205e-01
1.844390e+00 1.402158e+00 -1.218151e+00
2.328589e+00 1.078903e+00 -1.399608e+00
2.122480e+00 4.586263e-01 -1.170718e+00
1.428672e+00 6.118793e-02 -7.384988e-01
7.225314e-01 -1.814225e-01 -3.309917e-01
1.492288e-01 -3.791126e-01 -0.000000e+00
9.419340e-10 -1.724199e-09 0.000000e+00
-7.931273e-01 -4.332874e-01 -4.937240e-01
-1.766561e+00 -9.650769e-01 -1.099690e+00
-2.784358e+00 -1.521102e+00 -1.733271e+00
-3.186356e+00 -1.740714e+00 -1.983516e+00
-2.656873e+00 -1.451456e+00 -1.653911e+00
-1.676203e+00 -9.157139e-01 -1.043441e+00
-7.527412e-01 -4.112244e-01 -4.685836e-01
5.123368e-09 -9.378262e-09 0.000000e+00
2.058977e-01 1.124824e-01 -5.960514e-01
2.155116e-02 1.177346e-02 -9.427709e-01
-1.875958e-01 -1.024840e-01 -1.540992e+00
-5.944964e-01 -3.247748e-01 -1.741251e+00
-1.106417e+00 -6.044382e-01 -8.714558e-01
-1.237450e+00 -6.760218e-01 1.950840e-01
-9.495987e-01 -5.187682e-01 6.539237e-01
-5.979277e-01 -3.266494e-01 8.066962e-01
-3.105039e-01 -1.696290e-01 8.988750e-01
9.832728e-02 5.371644e-02 -4.388040e-01
9.099077e-01 4.970848e-01 -3.976940e-01
1.836974e+00 1.003543e+00 -5.061013e-01
2.672194e+00 1.459826e+00 -3.001839e-01
2.818272e+00 1.539629e+00 5.438776e-01
2.195900e+00 1.199626e+00 1.187691e+00
1.315540e+00 7.186827e-01 1.159909e+00
5.136830e-01 2.806263e-01 9.118658e-01
-1.537273e-01 -8.398162e-02 6.860371e-01
-3.942927e-02 -2.154031e-02 3.575719e-01
9.238613e-01 5.047077e-01 6.013392e-01
2.008192e+00 1.097080e+00 9.420352e-01
3.113779e+00 1.701065e+00 1.082951e+00
3.596194e+00 1.964610e+00 6.775796e-01
3.064372e+00 1.674074e+00 1.118222e-01
1.984439e+00 1.084104e+00 -2.052276e-01
9.305262e-01 5.083488e-01 -3.725908e-01
5.411139e-02 2.956118e-02 -4.907195e-01
2.645615e-06 1.446952e-06 8.209320e-01
-8.657783e-04 -4.729731e-04 1.093199e+00
8.699020e-05 4.752816e-05 1.598394e+00
1.795208e-03 9.807319e-04 1.584800e+00
4.202729e-04 2.296082e-04 4.005556e-01
-6.737619e-04 -3.680762e-04 -8.118868e-01
8.460710e-04 4.622057e-04 -1.189821e+00
1.213790e-03 6.630918e-04 -1.206892e+00
-3.796743e-06 -2.075986e-06 -1.178054e+00
3.967872e-02 2.167658e-02 3.598127e-01
-9.270579e-01 -5.064541e-01 6.043611e-01
-2.017511e+00 -1.102171e+00 9.475851e-01
-3.123289e+00 -1.706261e+00 1.084537e+00
-3.590526e+00 -1.961513e+00 6.725794e-01
-3.045724e+00 -1.663887e+00 1.083222e-01
-1.969125e+00 -1.075738e+00 -2.067698e-01
-9.240765e-01 -5.048253e-01 -3.746124e-01
-5.431028e-02 -2.966985e-02 -4.924940e-01
-9.753770e-02 -5.328509e-02 -4.352670e-01
-9.123706e-01 -4.984303e-01 -3.936374e-01
-1.843580e+00 -1.007152e+00 -5.039291e-01
-2.676492e+00 -1.462174e+00 -2.943854e-01
-2.813379e+00 -1.536956e+00 5.507574e-01
-2.185773e+00 -1.194093e+00 1.184670e+00
-1.307184e+00 -7.141181e-01 1.151709e+00
-5.101295e-01 -2.786850e-01 9.051007e-01
1.525276e-01 8.332619e-02 6.806621e-01
-2.046237e-01 -1.117864e-01 -5.923507e-01
-2.384204e-02 -1.302497e-02 -9.377936e-01
1.846689e-01 1.008851e-01 -1.534409e+00
5.920649e-01 3.234465e-01 -1.737801e+00
1.102814e+00 6.024698e-01 -8.714735e-01
1.235146e+00 6.747634e-01 1.960403e-01
9.497923e-01 5.188739e-01 6.527622e-01
5.979141e-01 3.266420e-01 8.021313e-01
3.087957e-01 1.686958e-01 8.939107e-01
1.675199e-09 -3.066431e-09 -0.000000e+00
7.861253e-01 4.294622e-01 -4.893738e-01
1.750363e+00 9.562279e-01 -1.089625e+00
2.765800e+00 1.510963e+00 -1.721749e+00
3.181993e+00 1.738331e+00 -1.980835e+00
2.665045e+00 1.455921e+00 -1.659027e+00
1.682386e+00 9.190918e-01 -1.047309e+00
7.540162e-01 4.119209e-01 -4.693855e-01
4.372321e-09 -8.003480e-09 -0.000000e+00
-1.158763e-01 1.606082e-01 0.000000e+00
-7.057504e-01 -1.132291e-01 -3.488590e-01
-1.490704e+00 -3.640897e-01 -7.767991e-01
-2.184341e+00 -8.047476e-01 -1.224950e+00
-2.166108e+00 -1.389006e+00 -1.403623e+00
-1.532630e+00 -1.542246e+00 -1.171957e+00
-8.273627e-01 -1.167864e+00 -7.398372e-01
-2.420144e-01 -7.042619e-01 -3.323273e-01
2.362851e-01 -3.274985e-01 0.000000e+00
1.373093e-01 9.369676e-02 -4.221673e-01
-7.867129e-03 4.288999e-02 -6.668513e-01
-2.038609e-01 2.834105e-02 -1.089200e+00
-4.929730e-01 -1.322943e-01 -1.230844e+00
-7.449879e-01 -4.920528e-01 -6.166130e-01
-7.466646e-01 -6.736382e-01 1.371452e-01
-5.508907e-01 -5.489538e-01 4.617143e-01
-3.367245e-01 -3.592742e-01 5.704071e-01
-1.574955e-01 -2.097148e-01 6.362103e-01
2.700834e-01 -2.386527e-01 -3.109316e-01
8.533408e-01 7.347196e-02 -2.814849e-01
1.547837e+00 3.900984e-01 -3.576429e-01
2.073942e+00 8.104781e-01 -2.118427e-01
1.919378e+00 1.220364e+00 3.848124e-01
1.254489e+00 1.280114e+00 8.392071e-01
5.883828e-01 9.911800e-01 8.197114e-01
5.278625e-02 6.314832e-01 6.449452e-01
-3.802027e-01 3.150404e-01 4.856350e-01
1.934727e-01 -3.223549e-01 2.523628e-01
8.884740e-01 4.402820e-02 4.250369e-01
1.714441e+00 3.957608e-01 6.662972e-01
2.425004e+00 9.330538e-01 7.660751e-01
2.440551e+00 1.569317e+00 4.788528e-01
1.783696e+00 1.741719e+00 7.883583e-02
9.775760e-01 1.372079e+00 -1.451923e-01
2.835313e-01 8.857848e-01 -2.633756e-01
-2.811253e-01 4.640880e-01 -3.466284e-01
-7.865854e-04 1.093876e-03 5.804544e-01
-1.055424e-04 2.331845e-03 7.729009e-01
1.854010e-03 3.384666e-03 1.130218e+00
4.671424e-03 8.905736e-04 1.120568e+00
3.257634e-03 -3.244692e-03 2.832525e-01
-7.813487e-04 -3.083892e-03 -5.740898e-01
-2.061232e-03 -1.026024e-04 -8.412898e-01
-1.582528e-03 1.492823e-03 -8.533132e-01
-1.276328e-03 1.763801e-03 -8.329583e-01
-1.947807e-01 3.246785e-01 2.547255e-01
-8.898628e-01 -3.997996e-02 4.274952e-01
-1.716890e+00 -3.921225e-01 6.696423e-01
-2.422571e+00 -9.371681e-01 7.666452e-01
-2.430416e+00 -1.576239e+00 4.757458e-01
-1.774768e+00 -1.740449e+00 7.692042e-02
-9.749912e-01 -1.365868e+00 -1.460622e-01
-2.846947e-01 -8.805900e-01 -2.649290e-01
2.782111e-01 -4.604351e-01 -3.484068e-01
-2.706815e-01 2.411446e-01 -3.071115e-01
-8.542148e-01 -6.946585e-02 -2.782298e-01
-1.548893e+00 -3.860282e-01 -3.565090e-01
-2.069424e+00 -8.124516e-01 -2.087700e-01
-1.910559e+00 -1.226642e+00 3.893386e-01
-1.250278e+00 -1.281927e+00 8.382680e-01
-5.894050e-01 -9.882042e-01 8.148871e-01
-5.554048e-02 -6.280049e-01 6.399199e-01
3.766917e-01 -3.123093e-01 4.807274e-01
-1.372273e-01 -9.117377e-02 -4.182391e-01
6.781912e-03 -3.971856e-02 -6.629477e-01
2.039593e-01 -2.438862e-02 -1.085452e+00
4.963869e-01 1.305571e-01 -1.229251e+00
7.466263e-01 4.831344e-01 -6.158695e-01
7.429397e-01 6.666938e-01 1.394939e-01
5.452853e-01 5.476555e-01 4.621870e-01
3.320703e-01 3.604387e-01 5.672411e-01
1.538940e-01 2.115725e-01 6.315381e-01
1.148393e-01 -1.591709e-01 -0.000000e+00
7.000406e-01 1.129333e-01 -3.462408e-01
1.480178e+00 3.614968e-01 -7.713205e-01
2.176403e+00 7.944115e-01 -1.218151e+00
2.166008e+00 1.376506e+00 -1.399608e+00
1.532702e+00 1.538209e+00 -1.170718e+00
8.234024e-01 1.169126e+00 -7.384988e-01
2.377236e-01 7.060122e-01 -3.309917e-01
-2.383836e-01 3.304071e-01 -0.000000e+00
-1.901481e-01 2.041099e-01 0.000000e+00
-3.086188e-01 3.300442e-01 -4.599796e-04
-5.548975e-01 5.943699e-01 -4.735056e-04
-6.060433e-01 6.477145e-01 -1.053145e-03
-1.444135e-01 1.477865e-01 -2.692554e-03
3.344526e-01 -3.692977e-01 -3.830850e-03
4.434703e-01 -4.849472e-01 -3.319613e-03
4.136287e-01 -4.487358e-01 -1.763552e-03
3.911363e-01 -4.198559e-01 0.000000e+00
5.798647e-03 -5.002410e-03 -2.116161e-03
-3.483178e-02 4.070833e-02 -1.474841e-03
-1.325809e-01 1.482115e-01 -5.115103e-04