<?xml version="1.0"?>
<VTKFile type="StructuredGrid" version="0.1">
  <StructuredGrid WholeExtent="0 8 0 8 0 8">
    <Piece Extent="0 8 0 8 0 8">
      <PointData Scalars="temperature" Vectors="velocity">
        <DataArray type="Float32" Name="temperature" format="ascii">
1.000000e+00
9.134030e-01
7.883294e-01
6.697864e-01
5.732154e-01
4.202345e-01
2.892699e-01
1.650906e-01
0.000000e+00
1.000000e+00
9.129143e-01
7.870946e-01
6.643876e-01
5.504125e-01
4.147459e-01
2.880893e-01
1.645807e-01
0.000000e+00
1.000000e+00
9.120124e-01
7.848542e-01
6.541877e-01
5.100339e-01
4.057359e-01
2.860093e-01
1.636429e-01
0.000000e+00
1.000000e+00
9.118570e-01
7.844436e-01
6.521203e-01
5.020182e-01
4.040862e-01
2.856225e-01
1.634687e-01
0.000000e+00
1.000000e+00
9.126767e-01
7.864529e-01
6.611184e-01
5.363775e-01
4.116538e-01
2.874422e-01
1.642969e-01
0.000000e+00
1.000000e+00
9.134961e-01
7.884285e-01
6.694534e-01
5.708557e-01
4.198656e-01
2.892981e-01
1.651273e-01
0.000000e+00
1.000000e+00
9.133417e-01
7.880309e-01
6.676498e-01
5.627948e-01
4.179595e-01
2.888964e-01
1.649530e-01
0.000000e+00
1.000000e+00
9.124439e-01
7.858107e-01
6.577704e-01
5.223660e-01
4.086477e-01
2.867993e-01
1.640184e-01
0.000000e+00
1.000000e+00
9.118951e-01
7.844863e-01
6.517027e-01
4.996214e-01
4.037063e-01
2.856021e-01
1.634615e-01
0.000000e+00
1.000000e+00
9.131825e-01
7.877787e-01
6.673420e-01
5.624158e-01
4.176247e-01
2.887206e-01
1.648511e-01
0.000000e+00
1.000000e+00
9.128460e-01
7.869144e-01
6.634872e-01
5.463150e-01
4.138009e-01
2.878948e-01
1.644976e-01
0.000000e+00
1.000000e+00
9.122076e-01
7.853311e-01
6.562990e-01
5.177541e-01
4.074040e-01
2.864230e-01
1.638339e-01
0.000000e+00
1.000000e+00
9.120977e-01
7.850418e-01
6.548582e-01
5.120800e-01
4.062157e-01
2.861487e-01
1.637106e-01
0.000000e+00
1.000000e+00
9.126776e-01
7.864613e-01
6.611702e-01
5.363933e-01
4.116210e-01
2.874372e-01
1.642960e-01
0.000000e+00
1.000000e+00
9.132567e-01
7.878587e-01
6.671149e-01
5.607574e-01
4.173733e-01
2.887471e-01
1.648834e-01
0.000000e+00
1.000000e+00
9.131477e-01
7.875768e-01
6.658184e-01
5.550630e-01
4.160473e-01
2.884640e-01
1.647603e-01
0.000000e+00
1.000000e+00
9.125134e-01
7.860068e-01
6.588081e-01
5.264827e-01
4.094890e-01
2.869829e-01
1.641001e-01
0.000000e+00
1.000000e+00
9.121163e-01
7.850620e-01
6.545545e-01
5.103751e-01
4.059378e-01
2.861278e-01
1.636993e-01
0.000000e+00
1.000000e+00
9.126497e-01
7.864329e-01
6.611519e-01
5.363725e-01
4.115920e-01
2.874124e-01
1.642743e-01
0.000000e+00
1.000000e+00
9.126803e-01
7.864685e-01
6.612162e-01
5.364084e-01
4.115930e-01
2.874333e-01
1.642981e-01
0.000000e+00
1.000000e+00
9.126782e-01
7.864654e-01
6.611985e-01
5.364026e-01
4.116035e-01
2.874342e-01
1.642962e-01
0.000000e+00
1.000000e+00
9.126778e-01
7.864644e-01
6.611863e-01
5.364004e-01
4.116131e-01
2.874355e-01
1.642960e-01
0.000000e+00
1.000000e+00
9.126784e-01
7.864696e-01
6.612220e-01
5.364091e-01
4.115882e-01
2.874321e-01
1.642952e-01
0.000000e+00
1.000000e+00
9.126779e-01
7.864644e-01
6.611863e-01
5.364005e-01
4.116131e-01
2.874355e-01
1.642959e-01
0.000000e+00
1.000000e+00
9.126783e-01
7.864655e-01
6.611986e-01
5.364027e-01
4.116036e-01
2.874342e-01
1.642962e-01
0.000000e+00
1.000000e+00
9.126803e-01
7.864685e-01
6.612162e-01
5.364084e-01
4.115931e-01
2.874334e-01
1.642982e-01
0.000000e+00
1.000000e+00
9.126498e-01
7.864329e-01
6.611519e-01
5.363725e-01
4.115921e-01
2.874124e-01
1.642744e-01
0.000000e+00
1.000000e+00
9.121163e-01
7.850620e-01
6.545545e-01
5.103751e-01
4.059378e-01
2.861279e-01
1.636993e-01
0.000000e+00
1.000000e+00
9.125134e-01
7.860067e-01
6.588080e-01
5.264827e-01
4.094890e-01
2.869829e-01
1.641001e-01
0.000000e+00
1.000000e+00
9.131476e-01
7.875767e-01
6.658182e-01
5.550629e-01
4.160471e-01
2.884639e-01
1.647602e-01
0.000000e+00
1.000000e+00
9.132567e-01
7.878586e-01
6.671148e-01
5.607573e-01
4.173732e-01
2.887470e-01
1.648833e-01
0.000000e+00
1.000000e+00
9.126776e-01
7.864613e-01
6.611702e-01
5.363933e-01
4.116210e-01
2.874372e-01
1.642961e-01
0.000000e+00
1.000000e+00
9.120977e-01
7.850419e-01
6.548584e-01
5.120801e-01
4.062158e-01
2.861488e-01
1.637106e-01
0.000000e+00
1.000000e+00
9.122077e-01
7.853312e-01
6.562991e-01
5.177542e-01
4.074041e-01
2.864231e-01
1.638339e-01
0.000000e+00
1.000000e+00
9.128460e-01
7.869145e-01
6.634872e-01
5.463150e-01
4.138009e-01
2.878948e-01
1.644976e-01
0.000000e+00
1.000000e+00
9.131825e-01
7.877787e-01
6.673419e-01
5.624157e-01
4.176246e-01
2.887205e-01
1.648510e-01
0.000000e+00
1.000000e+00
9.118951e-01
7.844863e-01
6.517027e-01
4.996214e-01
4.037065e-01
2.856023e-01
1.634617e-01
0.000000e+00
1.000000e+00
9.124439e-01
7.858107e-01
6.577703e-01
5.223660e-01
4.086478e-01
2.867994e-01
1.640185e-01
0.000000e+00
1.000000e+00
9.133417e-01
7.880308e-01
6.676497e-01
5.627947e-01
4.179593e-01
2.888963e-01
1.649529e-01
0.000000e+00
1.000000e+00
9.134961e-01
7.884284e-01
6.694533e-01
5.708555e-01
4.198655e-01
2.892980e-01
1.651273e-01
0.000000e+00
1.000000e+00
9.126767e-01
7.864529e-01
6.611184e-01
5.363775e-01
4.116538e-01
2.874422e-01
1.642969e-01
0.000000e+00
1.000000e+00
9.118570e-01
7.844437e-01
6.521205e-01
5.020184e-01
4.040863e-01
2.856226e-01
1.634688e-01
0.000000e+00
1.000000e+00
9.120124e-01
7.848543e-01
6.541879e-01
5.100341e-01
4.057360e-01
2.860094e-01
1.636430e-01
0.000000e+00
1.000000e+00
9.129143e-01
7.870947e-01
6.643876e-01
5.504125e-01
4.147458e-01
2.880893e-01
1.645806e-01
0.000000e+00
1.000000e+00
9.134029e-01
7.883294e-01
6.697864e-01
5.732154e-01
4.202343e-01
2.892697e-01
1.650904e-01
0.000000e+00
1.000000e+00
9.121163e-01
7.850620e-01
6.545545e-01
5.103751e-01
4.059378e-01
2.861279e-01
1.636993e-01
0.000000e+00
1.000000e+00
9.125134e-01
7.860067e-01
6.588080e-01
5.264827e-01
4.094890e-01
2.869829e-01
1.641001e-01
0.000000e+00
1.000000e+00
9.131476e-01
7.875767e-01
6.658182e-01
5.550629e-01
4.160471e-01
2.884639e-01
1.647602e-01
0.000000e+00
1.000000e+00
9.132567e-01
7.878586e-01
6.671148e-01
5.607573e-01
4.173732e-01
2.887470e-01
1.648833e-01
0.000000e+00
1.000000e+00
9.126776e-01
7.864613e-01
6.611702e-01
5.363933e-01
4.116210e-01
2.874372e-01
1.642961e-01
0.000000e+00
1.000000e+00
9.120977e-01
7.850419e-01
6.548584e-01
5.120801e-01
4.062158e-01
2.861488e-01
1.637106e-01
0.000000e+00
1.000000e+00
9.122077e-01
7.853312e-01
6.562991e-01
5.177542e-01
4.074041e-01
2.864231e-01
1.638339e-01
0.000000e+00
1.000000e+00
9.128460e-01
7.869145e-01
6.634872e-01
5.463150e-01
4.138009e-01
2.878948e-01
1.644976e-01
0.000000e+00
1.000000e+00
9.131825e-01
7.877787e-01
6.673419e-01
5.624157e-01
4.176246e-01
2.887205e-01
1.648510e-01
0.000000e+00
1.000000e+00
9.126497e-01
7.864329e-01
6.611519e-01
5.363725e-01
4.115920e-01
2.874124e-01
1.642743e-01
0.000000e+00
1.000000e+00
9.126803e-01
7.864685e-01
6.612162e-01
5.364084e-01
4.115930e-01
2.874333e-01
1.642981e-01
0.000000e+00
1.000000e+00
9.126782e-01
7.864654e-01
6.611985e-01
5.364026e-01
4.116035e-01
2.874342e-01
1.642962e-01
0.000000e+00
1.000000e+00
9.126778e-01
7.864644e-01
6.611863e-01
5.364004e-01
4.116131e-01
2.874355e-01
1.642960e-01
0.000000e+00
1.000000e+00
9.126784e-01
7.864696e-01
6.612220e-01
5.364091e-01
4.115882e-01
2.874321e-01
1.642952e-01
0.000000e+00
1.000000e+00
9.126779e-01
7.864644e-01
6.611863e-01
5.364005e-01
4.116131e-01
2.874355e-01
1.642959e-01
0.000000e+00
1.000000e+00
9.126783e-01
7.864655e-01
6.611986e-01
5.364027e-01
4.116036e-01
2.874342e-01
1.642962e-01
0.000000e+00
1.000000e+00
9.126803e-01
7.864685e-01
6.612162e-01
5.364084e-01
4.115931e-01
2.874334e-01
1.642982e-01
0.000000e+00
1.000000e+00
9.126498e-01
7.864329e-01
6.611519e-01
5.363725e-01
4.115921e-01
2.874124e-01
1.642744e-01
0.000000e+00
1.000000e+00
9.131825e-01
7.877787e-01
6.673420e-01
5.624158e-01
4.176247e-01
2.887206e-01
1.648511e-01
0.000000e+00
1.000000e+00
9.128460e-01
7.869144e-01
6.634872e-01
5.463150e-01
4.138009e-01
2.878948e-01
1.644976e-01
0.000000e+00
1.000000e+00
9.122076e-01
7.853311e-01
6.562990e-01
5.177541e-01
4.074040e-01
2.864230e-01
1.638339e-01
0.000000e+00
1.000000e+00
9.120977e-01
7.850418e-01
6.548582e-01
5.120800e-01
4.062157e-01
2.861487e-01
1.637106e-01
0.000000e+00
1.000000e+00
9.126776e-01
7.864613e-01
6.611702e-01
5.363933e-01
4.116210e-01
2.874372e-01
1.642960e-01
0.000000e+00
1.000000e+00
9.132567e-01
7.878587e-01
6.671149e-01
5.607574e-01
4.173733e-01
2.887471e-01
1.648834e-01
0.000000e+00
1.000000e+00
9.131477e-01
7.875768e-01
6.658184e-01
5.550630e-01
4.160473e-01
2.884640e-01
1.647603e-01
0.000000e+00
1.000000e+00
9.125134e-01
7.860068e-01
6.588081e-01
5.264827e-01
4.094890e-01
2.869829e-01
1.641001e-01
0.000000e+00
1.000000e+00
9.121163e-01
7.850620e-01
6.545545e-01
5.103751e-01
4.059378e-01
2.861278e-01
1.636993e-01
0.000000e+00
1.000000e+00
9.134030e-01
7.883294e-01
6.697864e-01
5.732154e-01
4.202345e-01
2.892699e-01
1.650906e-01
0.000000e+00
1.000000e+00
9.129143e-01
7.870946e-01
6.643876e-01
5.504125e-01
4.147459e-01
2.880893e-01
1.645807e-01
0.000000e+00
1.000000e+00
9.120124e-01
7.848542e-01
6.541877e-01
5.100339e-01
4.057359e-01
2.860093e-01
1.636429e-01
0.000000e+00
1.000000e+00
9.118570e-01
7.844436e-01
6.521203e-01
5.020182e-01
4.040862e-01
2.856225e-01
1.634687e-01
0.000000e+00
1.000000e+00
9.126767e-01
7.864529e-01
6.611184e-01
5.363775e-01
4.116538e-01
2.874422e-01
1.642969e-01
0.000000e+00
1.000000e+00
9.134961e-01
7.884285e-01
6.694534e-01
5.708557e-01
4.198656e-01
2.892981e-01
1.651273e-01
0.000000e+00
1.000000e+00
9.133417e-01
7.880309e-01
6.676498e-01
5.627948e-01
4.179595e-01
2.888964e-01
1.649530e-01
0.000000e+00
1.000000e+00
9.124439e-01
7.858107e-01
6.577704e-01
5.223660e-01
4.086477e-01
2.867993e-01
1.640184e-01
0.000000e+00
1.000000e+00
9.118951e-01
7.844863e-01
6.517027e-01
4.996214e-01
4.037063e-01
2.856021e-01
1.634615e-01
0.000000e+00
        </DataArray>
        <DataArray type="Float32" Name="velocity" NumberOfComponents="3" format="ascii">
0.000000e+00 0.000000e+00 0.000000e+00
9.381470e-01 0.000000e+00 5.125075e-01
2.057545e+00 0.000000e+00 1.124032e+00
3.206033e+00 0.000000e+00 1.751449e+00
3.673760e+00 0.000000e+00 2.006966e+00
3.101354e+00 0.000000e+00 1.694263e+00
1.985398e+00 0.000000e+00 1.084618e+00
8.997581e-01 0.000000e+00 4.915358e-01
0.000000e+00 0.000000e+00 0.000000e+00
-2.479072e-01 0.000000e+00 6.298099e-01
-3.171114e-02 0.000000e+00 9.778562e-01
2.168998e-01 0.000000e+00 1.557728e+00
6.859996e-01 0.000000e+00 1.731557e+00
1.254465e+00 0.000000e+00 8.888632e-01
1.410385e+00 0.000000e+00 -1.640942e-01
1.106651e+00 0.000000e+00 -6.567097e-01
7.104684e-01 0.000000e+00 -8.392456e-01
3.714412e-01 0.000000e+00 -9.436486e-01
-1.176558e-01 0.000000e+00 4.607845e-01
-1.100957e+00 0.000000e+00 4.045659e-01
-2.189996e+00 0.000000e+00 4.933596e-01
-3.134062e+00 0.000000e+00 2.622495e-01
-3.287328e+00 0.000000e+00 -5.593172e-01
-2.579084e+00 0.000000e+00 -1.183012e+00
-1.562859e+00 0.000000e+00 -1.177308e+00
-6.157143e-01 0.000000e+00 -9.459772e-01
1.829530e-01 0.000000e+00 -7.165131e-01
4.878158e-02 0.000000e+00 -3.882295e-01
-1.118604e+00 0.000000e+00 -6.403939e-01
-2.399654e+00 0.000000e+00 -9.781455e-01
-3.659817e+00 0.000000e+00 -1.098634e+00
-4.180570e+00 0.000000e+00 -6.916537e-01
-3.567121e+00 0.000000e+00 -1.292828e-01
-2.336822e+00 0.000000e+00 2.075004e-01
-1.108886e+00 0.000000e+00 3.967268e-01
-6.604148e-02 0.000000e+00 5.255928e-01
-3.233373e-06 0.000000e+00 -8.802592e-01
-1.234393e-03 0.000000e+00 -1.150915e+00
8.223645e-05 0.000000e+00 -1.632177e+00
2.469946e-03 0.000000e+00 -1.581340e+00
7.467628e-04 0.000000e+00 -4.208825e-01
-6.187251e-04 0.000000e+00 7.846525e-01
1.404068e-03 0.000000e+00 1.213033e+00
1.815944e-03 0.000000e+00 1.269758e+00
4.596748e-06 0.000000e+00 1.251427e+00
-4.841134e-02 0.000000e+00 -3.852600e-01
1.113881e+00 0.000000e+00 -6.363967e-01
2.386571e+00 0.000000e+00 -9.712668e-01
3.647065e+00 0.000000e+00 -1.096694e+00
4.189132e+00 0.000000e+00 -6.977601e-01
3.593820e+00 0.000000e+00 -1.338353e-01
2.359009e+00 0.000000e+00 2.052611e-01
1.118447e+00 0.000000e+00 3.939899e-01
6.574669e-02 0.000000e+00 5.232157e-01
1.188417e-01 0.000000e+00 4.654148e-01
1.097300e+00 0.000000e+00 4.098720e-01
2.180664e+00 0.000000e+00 4.965631e-01
3.128235e+00 0.000000e+00 2.696632e-01
3.294495e+00 0.000000e+00 -5.509915e-01
2.593734e+00 0.000000e+00 -1.186845e+00
1.575043e+00 0.000000e+00 -1.187758e+00
6.209133e-01 0.000000e+00 -9.549023e-01
-1.847858e-01 0.000000e+00 -7.236689e-01
2.497772e-01 0.000000e+00 6.345469e-01
2.832496e-02 0.000000e+00 9.843680e-01
-2.213738e-01 0.000000e+00 1.566203e+00
-6.898138e-01 0.000000e+00 1.736305e+00
-1.259693e+00 0.000000e+00 8.893284e-01
-1.413716e+00 0.000000e+00 -1.629031e-01
-1.106526e+00 0.000000e+00 -6.583897e-01
-7.106418e-01 0.000000e+00 -8.452226e-01
-3.740221e-01 0.000000e+00 -9.501849e-01
0.000000e+00 0.000000e+00 -0.000000e+00
-9.484249e-01 0.000000e+00 5.181314e-01
-2.080691e+00 0.000000e+00 1.136696e+00
-3.232172e+00 0.000000e+00 1.765759e+00
-3.680303e+00 0.000000e+00 2.010576e+00
-3.090495e+00 0.000000e+00 1.688360e+00
-1.976918e+00 0.000000e+00 1.080004e+00
-8.979348e-01 0.000000e+00 4.905483e-01
0.000000e+00 0.000000e+00 -0.000000e+00
2.540920e-02 -2.022138e-01 0.000000e+00
6.993148e-01 -2.397816e-01 3.627219e-01
1.516624e+00 -3.860924e-01 7.957670e-01
2.327679e+00 -3.293173e-01 1.239255e+00
2.594774e+00 1.662952e-01 1.417785e+00
2.128826e+00 6.021827e-01 1.194913e+00
1.330026e+00 6.370303e-01 7.643089e-01
5.730097e-01 5.236983e-01 3.462603e-01
-5.307994e-02 4.224256e-01 0.000000e+00
-1.751195e-01 -9.621517e-03 4.444684e-01
-1.673877e-02 -3.263601e-02 6.911863e-01
1.716094e-01 -1.112189e-01 1.101955e+00
5.054604e-01 -1.141837e-01 1.224954e+00
8.853036e-01 6.380676e-02 6.279467e-01
9.741364e-01 2.199938e-01 -1.171141e-01
7.578247e-01 2.163642e-01 -4.652119e-01
4.843499e-01 1.585584e-01 -5.934477e-01
2.501790e-01 1.129929e-01 -6.664112e-01
-1.298798e-01 3.680866e-01 3.249627e-01
-8.286679e-01 3.697792e-01 2.857317e-01
-1.608318e+00 4.129201e-01 3.491017e-01
-2.264210e+00 2.736451e-01 1.859847e-01
-2.322837e+00 -1.618244e-01 -3.953032e-01
-1.775456e+00 -5.273750e-01 -8.372790e-01
-1.041700e+00 -6.031333e-01 -8.330661e-01
-3.712401e-01 -5.538595e-01 -6.686488e-01
1.910237e-01 -4.841728e-01 -5.058751e-01
-1.612198e-02 4.056049e-01 -2.751460e-01
-8.465203e-01 4.120644e-01 -4.530407e-01
-1.766257e+00 4.855813e-01 -6.914276e-01
-2.645050e+00 3.286463e-01 -7.765044e-01
-2.952096e+00 -2.193069e-01 -4.893865e-01
-2.461726e+00 -6.755137e-01 -9.169414e-02
-1.575303e+00 -7.502663e-01 1.466347e-01
-7.082014e-01 -6.685022e-01 2.806252e-01
2.443889e-02 -5.695048e-01 3.720981e-01
-2.246285e-04 1.769321e-03 -6.224251e-01
1.379571e-03 2.679677e-03 -8.139693e-01
4.151360e-03 2.521022e-03 -1.154082e+00
5.660464e-03 -1.880819e-03 -1.118297e+00
1.742062e-03 -5.470923e-03 -2.975466e-01
-2.482833e-03 -2.952673e-03 5.548188e-01
-2.245277e-03 1.084059e-03 8.578225e-01
-8.470661e-04 2.665678e-03 8.979425e-01
-3.506493e-04 2.816638e-03 8.848238e-01
1.607294e-02 -4.020759e-01 -2.720156e-01
8.474928e-01 -4.066907e-01 -4.497824e-01
1.766039e+00 -4.803613e-01 -6.872350e-01
2.645752e+00 -3.346692e-01 -7.757773e-01
2.959367e+00 2.058612e-01 -4.931819e-01
2.472441e+00 6.714370e-01 -9.423667e-02
1.582052e+00 7.554049e-01 1.453077e-01
7.101666e-01 6.750794e-01 2.785007e-01
-2.549148e-02 5.754979e-01 3.697110e-01
1.307563e-01 -3.648102e-01 3.299584e-01
8.301634e-01 -3.647765e-01 2.900140e-01
1.609771e+00 -4.080490e-01 3.509079e-01
2.268142e+00 -2.786039e-01 1.900275e-01
2.328833e+00 1.498144e-01 -3.897649e-01
1.779143e+00 5.227618e-01 -8.385105e-01
1.042450e+00 6.068914e-01 -8.392802e-01
3.702503e-01 5.594696e-01 -6.753216e-01
-1.933793e-01 4.894849e-01 -5.124193e-01
1.767615e-01 1.250042e-02 4.495095e-01
1.746086e-02 3.682655e-02 6.962943e-01
-1.692830e-01 1.152739e-01 1.106889e+00
-5.030860e-01 1.101098e-01 1.227357e+00
-8.890608e-01 -7.447089e-02 6.292870e-01
-9.825329e-01 -2.254941e-01 -1.141390e-01
-7.650310e-01 -2.145772e-01 -4.647594e-01
-4.890376e-01 -1.544083e-01 -5.976236e-01
-2.531769e-01 -1.086240e-01 -6.725698e-01
-2.570315e-02 2.045531e-01 -0.000000e+00
-7.059063e-01 2.429214e-01 3.660873e-01
-1.529836e+00 3.892562e-01 8.027272e-01
-2.342673e+00 3.226617e-01 1.247857e+00
-2.602837e+00 -1.797186e-01 1.423095e+00
-2.131773e+00 -6.068296e-01 1.196848e+00
-1.333974e+00 -6.334951e-01 7.662215e-01
-5.768172e-01 -5.191170e-01 3.480182e-01
5.249818e-02 -4.177958e-01 -0.000000e+00
7.171247e-02 -2.808488e-01 0.000000e+00
1.134560e-01 -4.484897e-01 -5.622320e-04
1.998558e-01 -7.874558e-01 -6.429709e-04
2.125185e-01 -8.429768e-01 -1.444393e-03
4.703150e-02 -2.101716e-01 -3.511536e-03
-1.256471e-01 4.558141e-01 -4.900764e-03
-1.699809e-01 6.342144e-01 -4.255360e-03
-1.599587e-01 6.096006e-01 -2.277175e-03
-1.480861e-01 5.799523e-01 0.000000e+00
-2.783106e-03 1.519161e-02 -2.697709e-03
1.411000e-02 -4.348575e-02 -1.907859e-03
5.162469e-02 -1.819482e-01 -7.407067e-04
6.446947e-02 -2.376316e-01 -3.853418e-05
1.226944e-02 -5.823540e-02 -1.114568e-03
-4.188477e-02 1.339806e-01 -2.377970e-03
-4.845945e-02 1.611516e-01 -1.291293e-03
-3.707095e-02 1.285099e-01 1.188656e-03
-2.860085e-02 1.073657e-01 2.919090e-03
-1.322254e-01 5.207012e-01 -2.775366e-03
-1.598623e-01 6.418943e-01 -1.762573e-03
-2.062946e-01 8.346799e-01 -3.029361e-04
-1.888091e-01 7.639927e-01 -4.184773e-04
-4.668062e-02 1.857321e-01 -1.381065e-03
1.005367e-01 -4.113756e-01 -6.604435e-04
1.597459e-01 -6.457408e-01 1.013340e-03
1.742070e-01 -6.941400e-01 2.289551e-03
1.766325e-01 -6.949086e-01 3.061489e-03
-1.406526e-01 5.517720e-01 -1.834794e-03
-1.752287e-01 7.022803e-01 -1.460658e-03
-2.380045e-01 9.599949e-01 -9.278855e-04
-2.245142e-01 9.044329e-01 1.416770e-04
-5.400324e-02 2.161710e-01 7.274206e-04
1.229481e-01 -4.949601e-01 3.286175e-04
1.887849e-01 -7.548385e-01 3.251957e-04
2.003023e-01 -7.926685e-01 9.123054e-04
1.996312e-01 -7.825103e-01 1.361014e-03
1.118196e-06 -4.382377e-06 -2.131425e-04
4.497658e-03 1.145022e-03 -2.484086e-04
8.513222e-03 2.174537e-03 -1.938022e-04
8.034194e-03 2.052943e-03 -9.316382e-05
1.305114e-03 3.368377e-04 -1.378703e-05
-4.895453e-03 -1.247175e-03 8.581930e-05
-5.413757e-03 -1.381540e-03 1.788977e-04
-2.747019e-03 -7.025180e-04 2.032338e-04
7.490503e-07 -2.930687e-06 1.907342e-04
1.410553e-01 -5.516780e-01 1.455796e-03
1.829740e-01 -7.003100e-01 1.061746e-03
2.515254e-01 -9.565424e-01 5.868490e-04
2.367618e-01 -9.013032e-01 -3.326818e-04
5.644466e-02 -2.155415e-01 -7.450630e-04
-1.292098e-01 4.933661e-01 -1.908323e-04
-1.960628e-01 7.529826e-01 -8.303084e-05
-2.042024e-01 7.916712e-01 -5.961139e-04
-1.999216e-01 7.824304e-01 -1.035640e-03
1.335536e-01 -5.203697e-01 2.585501e-03
1.674880e-01 -6.399546e-01 1.500228e-03
2.193043e-01 -8.313612e-01 1.138418e-04
2.008122e-01 -7.609281e-01 2.654018e-04
4.836425e-02 -1.852978e-01 1.380453e-03
-1.087608e-01 4.092805e-01 7.181850e-04
-1.691964e-01 6.433307e-01 -9.610020e-04
-1.797907e-01 6.927146e-01 -2.130362e-03
-1.781008e-01 6.945316e-01 -2.875577e-03
4.823392e-03 -1.467671e-02 2.648085e-03
-8.429933e-03 4.492993e-02 1.796889e-03
-4.184175e-02 1.844419e-01 6.529213e-04
-5.720025e-02 2.394863e-01 1.985915e-05
-1.700893e-02 5.702805e-02 1.097187e-03
2.763549e-02 -1.376147e-01 2.379078e-03
3.491576e-02 -1.646069e-01 1.289948e-03
2.922757e-02 -1.305109e-01 -1.189009e-03
2.639449e-02 -1.079279e-01 -2.865256e-03
-7.171139e-02 2.808445e-01 -0.000000e+00
-1.154136e-01 4.479847e-01 5.422222e-04
-2.020744e-01 7.868866e-01 6.083207e-04
-2.176371e-01 8.416700e-01 1.441609e-03
-5.944515e-02 2.070046e-01 3.487292e-03
1.083291e-01 -4.602321e-01 4.863127e-03
1.550201e-01 -6.380309e-01 4.179503e-03
1.519724e-01 -6.116378e-01 2.225465e-03
1.480859e-01 -5.799512e-01 -0.000000e+00
7.551114e-02 -1.918345e-01 0.000000e+00
-5.030644e-01 -5.516029e-01 -3.660972e-01
-1.155979e+00 -1.075079e+00 -8.027402e-01
-1.901230e+00 -1.406367e+00 -1.247865e+00
-2.370443e+00 -1.090081e+00 -1.423096e+00
-2.161737e+00 -4.893181e-01 -1.196794e+00
-1.474313e+00 -8.351728e-02 -7.661552e-01
-7.549665e-01 1.789441e-01 -3.479697e-01
-1.541683e-01 3.916614e-01 0.000000e+00
1.611259e-01 7.378754e-02 -4.495559e-01
3.293038e-02 -2.396355e-02 -6.963809e-01
-9.338951e-02 -1.823922e-01 -1.106983e+00
-3.888454e-01 -3.378550e-01 -1.227414e+00
-8.160685e-01 -3.609108e-01 -6.292455e-01
-9.705123e-01 -2.731493e-01 1.142395e-01
-7.743571e-01 -1.784322e-01 4.648011e-01
-5.031942e-01 -9.899871e-02 5.975783e-01
-2.742055e-01 -2.611733e-02 6.725136e-01
-6.011282e-02 3.828663e-01 -3.301427e-01
5.536034e-01 7.180691e-01 -2.902633e-01
1.216890e+00 1.129768e+00 -3.511388e-01
1.856634e+00 1.331804e+00 -1.901686e-01
2.115281e+00 9.849184e-01 3.897317e-01
1.811688e+00 3.940858e-01 8.385506e-01
1.205540e+00 -3.290703e-02 8.393492e-01
5.929979e-01 -3.134956e-01 6.754125e-01
6.492903e-02 -5.222481e-01 5.125291e-01
-1.786170e-01 3.605809e-01 2.716532e-01
5.487266e-01 7.631775e-01 4.493528e-01
1.319378e+00 1.268156e+00 6.868854e-01
2.161183e+00 1.562000e+00 7.755572e-01
2.695494e+00 1.238056e+00 4.931318e-01
2.491431e+00 5.960332e-01 9.434060e-02
1.750341e+00 9.542934e-02 -1.450832e-01
9.467592e-01 -2.519841e-01 -2.781674e-01
2.534741e-01 -5.172340e-01 -3.693632e-01
6.577438e-04 -1.664746e-03 6.220080e-01
2.499065e-03 -1.693514e-03 8.134773e-01
4.857014e-03 -2.196529e-04 1.153665e+00
4.060563e-03 4.366696e-03 1.118072e+00
-1.090222e-03 5.643189e-03 2.975464e-01
-3.609304e-03 1.398121e-03 -5.546260e-01
-1.450191e-03 -2.026518e-03 -8.574877e-01
5.265377e-04 -2.749373e-03 -8.975116e-01
1.037424e-03 -2.644423e-03 -8.843778e-01
1.802741e-01 -3.637119e-01 2.747814e-01
-5.452939e-01 -7.674376e-01 4.526227e-01
-1.317061e+00 -1.272840e+00 6.911052e-01
-2.163463e+00 -1.556375e+00 7.763247e-01
-2.695547e+00 -1.222758e+00 4.893805e-01
-2.483997e+00 -5.873157e-01 9.183757e-02
-1.741948e+00 -9.669831e-02 -1.463874e-01
-9.418875e-01 2.471510e-01 -2.802803e-01
-2.515293e-01 5.114663e-01 -3.717516e-01
6.245192e-02 -3.853342e-01 -3.251487e-01
-5.498980e-01 -7.217559e-01 -2.859685e-01
-1.213287e+00 -1.133354e+00 -3.493036e-01
-1.855574e+00 -1.325569e+00 -1.860856e-01
-2.115772e+00 -9.714970e-01 3.953065e-01
-1.810660e+00 -3.882600e-01 8.373466e-01
-1.203067e+00 2.997768e-02 8.331485e-01
-5.911692e-01 3.081019e-01 6.687421e-01
-6.444483e-02 5.164605e-01 5.059760e-01
-1.583084e-01 -7.553666e-02 -4.445134e-01
-3.029654e-02 2.062000e-02 -6.912708e-01
9.735837e-02 1.799357e-01 -1.102045e+00
3.889529e-01 3.425593e-01 -1.225008e+00
8.076448e-01 3.684663e-01 -6.279136e-01
9.605012e-01 2.739547e-01 1.172020e-01
7.688903e-01 1.734155e-01 4.652398e-01
5.010733e-01 9.311318e-02 5.933916e-01
2.736760e-01 2.085007e-02 6.663462e-01
-7.464579e-02 1.896361e-01 -0.000000e+00
4.987799e-01 5.456783e-01 -3.627401e-01
1.145885e+00 1.065959e+00 -7.957984e-01
1.884855e+00 1.405009e+00 -1.239292e+00
2.356904e+00 1.097987e+00 -1.417820e+00
2.156895e+00 4.919802e-01 -1.194886e+00
1.472525e+00 7.852218e-02 -7.642600e-01
7.538118e-01 -1.847904e-01 -3.462189e-01
1.558770e-01 -3.960023e-01 -0.000000e+00
5.420707e-10 -9.922538e-10 0.000000e+00
-8.323393e-01 -4.547090e-01 -5.181337e-01
-1.826004e+00 -9.975503e-01 -1.136693e+00
-2.836583e+00 -1.549633e+00 -1.765781e+00
-3.229807e+00 -1.764452e+00 -2.010564e+00
-2.711992e+00 -1.481568e+00 -1.688223e+00
-1.734610e+00 -9.476218e-01 -1.079800e+00
-7.877877e-01 -4.303704e-01 -4.904002e-01
5.904284e-09 -1.080772e-08 0.000000e+00
2.192101e-01 1.197550e-01 -6.345895e-01
2.480133e-02 1.354903e-02 -9.844295e-01
-1.943945e-01 -1.061982e-01 -1.566302e+00
-6.054688e-01 -3.307691e-01 -1.736399e+00
-1.105599e+00 -6.039913e-01 -8.892318e-01
-1.240743e+00 -6.778212e-01 1.631012e-01
-9.710543e-01 -5.304894e-01 6.584706e-01
-6.235347e-01 -3.406386e-01 8.451296e-01
-3.281695e-01 -1.792798e-01 9.500151e-01
1.043303e-01 5.699593e-02 -4.655938e-01
9.628914e-01 5.260300e-01 -4.101041e-01
1.913508e+00 1.045354e+00 -4.968279e-01
2.744978e+00 1.499588e+00 -2.697803e-01
2.890910e+00 1.579312e+00 5.509362e-01
2.275896e+00 1.243328e+00 1.186876e+00
1.381932e+00 7.549531e-01 1.187848e+00
5.447459e-01 2.975960e-01 9.549256e-01
-1.621664e-01 -8.859194e-02 7.236983e-01
-4.244419e-02 -2.318737e-02 3.849133e-01
9.774865e-01 5.340033e-01 6.359394e-01
2.094213e+00 1.144074e+00 9.709168e-01
3.200297e+00 1.748330e+00 1.096456e+00
3.675959e+00 2.008185e+00 6.976896e-01
3.153604e+00 1.722822e+00 1.339185e-01
2.069958e+00 1.130823e+00 -2.050478e-01
9.813615e-01 5.361202e-01 -3.936360e-01
5.765387e-02 3.149644e-02 -5.228452e-01
2.835334e-06 1.551096e-06 8.798514e-01
-1.081056e-03 -5.905826e-04 1.150427e+00
7.834011e-05 4.280519e-05 1.631731e+00
2.162833e-03 1.181561e-03 1.581077e+00
6.627694e-04 3.620977e-04 4.209096e-01
-5.560129e-04 -3.037570e-04 -7.844384e-01
1.230396e-03 6.721731e-04 -1.212722e+00
1.583714e-03 8.651903e-04 -1.269302e+00
-4.028440e-06 -2.210112e-06 -1.250916e+00
4.277386e-02 2.336746e-02 3.878799e-01
-9.816321e-01 -5.362681e-01 6.399538e-01
-2.105689e+00 -1.150343e+00 9.778334e-01
-3.211495e+00 -1.754448e+00 1.098454e+00
-3.668430e+00 -2.004072e+00 6.916472e-01
-3.130183e+00 -1.710027e+00 1.294186e-01
-2.050477e+00 -1.120181e+00 -2.072545e-01
-9.729754e-01 -5.315389e-01 -3.963569e-01
-5.791978e-02 -3.164173e-02 -5.252255e-01
-1.032966e-01 -5.643118e-02 -4.609663e-01
-9.661129e-01 -5.277899e-01 -4.047813e-01
-1.921710e+00 -1.049835e+00 -4.935821e-01
-2.750107e+00 -1.502390e+00 -2.623102e-01
-2.884614e+00 -1.575872e+00 5.593140e-01
-2.263023e+00 -1.236295e+00 1.183081e+00
-1.371223e+00 -7.491023e-01 1.177417e+00
-5.401702e-01 -2.950963e-01 9.460039e-01
1.605659e-01 8.771752e-02 7.165334e-01
-2.175780e-01 -1.188634e-01 -6.298510e-01
-2.778965e-02 -1.518156e-02 -9.779147e-01
1.904422e-01 1.040391e-01 -1.557822e+00
6.020917e-01 3.289242e-01 -1.731647e+00
1.100994e+00 6.014760e-01 -8.887760e-01
1.237819e+00 6.762234e-01 1.642709e-01
9.711648e-01 5.305497e-01 6.567704e-01
6.233913e-01 3.405602e-01 8.391366e-01
3.259150e-01 1.780482e-01 9.434683e-01
1.314024e-09 -2.405305e-09 -0.000000e+00
8.233095e-01 4.497760e-01 -5.125215e-01
1.805672e+00 9.864429e-01 -1.124056e+00
2.813611e+00 1.537083e+00 -1.751512e+00
3.224026e+00 1.761294e+00 -2.007001e+00
2.721486e+00 1.486755e+00 -1.694163e+00
1.742034e+00 9.516777e-01 -1.084440e+00
7.893814e-01 4.312410e-01 -4.914008e-01
5.207421e-09 -9.532120e-09 -0.000000e+00
-1.206243e-01 1.671890e-01 0.000000e+00
-7.359647e-01 -1.252818e-01 -3.660972e-01
-1.529226e+00 -3.918551e-01 -8.027402e-01
-2.210656e+00 -8.399661e-01 -1.247865e+00
-2.198027e+00 -1.405685e+00 -1.423096e+00
-1.579738e+00 -1.554659e+00 -1.196794e+00
-8.668523e-01 -1.195467e+00 -7.661552e-01
-2.573339e-01 -7.319663e-01 -3.479697e-01
2.462742e-01 -3.413437e-01 0.000000e+00
1.491468e-01 9.571521e-02 -4.495559e-01
-2.372270e-03 4.065752e-02 -6.963809e-01
-2.039363e-01 1.996237e-02 -1.106983e+00
-4.943893e-01 -1.446583e-01 -1.227414e+00
-7.446197e-01 -4.916970e-01 -6.292455e-01
-7.542173e-01 -6.690748e-01 1.142395e-01
-5.685325e-01 -5.551917e-01 4.648011e-01
-3.551815e-01 -3.699341e-01 5.975783e-01
-1.701308e-01 -2.166247e-01 6.725136e-01
2.896918e-01 -2.574467e-01 -3.301427e-01
9.033475e-01 7.786678e-02 -2.902633e-01
1.608155e+00 4.135611e-01 -3.511388e-01
2.123817e+00 8.427268e-01 -1.901686e-01
1.971672e+00 1.247794e+00 3.897317e-01
1.310471e+00 1.311557e+00 8.385506e-01
6.236656e-01 1.032206e+00 8.393492e-01
5.660066e-02 6.683729e-01 6.754125e-01
-4.043753e-01 3.368077e-01 5.125291e-01
2.069112e-01 -3.451237e-01 2.716532e-01
9.386700e-01 4.939094e-02 4.493528e-01
1.779979e+00 4.250303e-01 6.868854e-01
2.482070e+00 9.746206e-01 7.755572e-01
2.498170e+00 1.599255e+00 4.931318e-01
1.847670e+00 1.774429e+00 9.434060e-02
1.026014e+00 1.421300e+00 -1.450832e-01
2.994988e-01 9.328180e-01 -2.781674e-01
-2.982848e-01 4.927539e-01 -3.693632e-01
-1.045457e-03 1.452941e-03 6.220080e-01
-7.479526e-05 3.017900e-03 8.134773e-01
2.439418e-03 4.205725e-03 1.153665e+00
5.868381e-03 1.057509e-03 1.118072e+00
4.159507e-03 -3.966390e-03 2.975464e-01
-7.736282e-04 -3.792537e-03 -5.546260e-01
-2.488803e-03 -1.253527e-04 -8.574877e-01
-2.029031e-03 1.928567e-03 -8.975116e-01
-1.664675e-03 2.301739e-03 -8.843778e-01
-2.086505e-01 3.482098e-01 2.747814e-01
-9.404000e-01 -4.420068e-02 4.526227e-01
-1.782669e+00 -4.205507e-01 6.911052e-01
-2.478569e+00 -9.795787e-01 7.763247e-01
-2.485326e+00 -1.607565e+00 4.893805e-01
-1.836319e+00 -1.772883e+00 9.183756e-02
-1.022547e+00 -1.413552e+00 -1.463875e-01
-3.009336e-01 -9.261072e-01 -2.802803e-01
2.944822e-01 -4.880010e-01 -3.717516e-01
-2.905047e-01 2.607485e-01 -3.251487e-01
-9.044478e-01 -7.275687e-02 -2.859685e-01
-1.609227e+00 -4.085922e-01 -3.493036e-01
-2.117999e+00 -8.452034e-01 -1.860856e-01
-1.960643e+00 -1.255459e+00 3.953065e-01
-1.305013e+00 -1.313840e+00 8.373466e-01
-6.247943e-01 -1.028543e+00 8.331485e-01
-6.015125e-02 -6.639199e-01 6.687421e-01
3.997668e-01 -3.332733e-01 5.059760e-01
-1.490963e-01 -9.239930e-02 -4.445134e-01
9.818402e-04 -3.663470e-02 -6.912708e-01
2.040136e-01 -1.529544e-02 -1.102045e+00
4.984058e-01 1.422070e-01 -1.225008e+00
7.464261e-01 4.805265e-01 -6.279136e-01
7.494860e-01 6.602155e-01 1.172020e-01
5.613573e-01 5.533021e-01 4.652397e-01
3.490831e-01 3.713293e-01 5.933916e-01
1.654125e-01 2.190251e-01 6.663462e-01
1.192419e-01 -1.652731e-01 -0.000000e+00
7.286644e-01 1.248775e-01 -3.627401e-01
1.516098e+00 3.882893e-01 -7.957984e-01
2.200666e+00 8.269212e-01 -1.239292e+00
2.197365e+00 1.390021e+00 -1.417820e+00
1.579362e+00 1.549146e+00 -1.194886e+00
8.616829e-01 1.196661e+00 -7.642600e-01
2.517905e-01 7.341534e-01 -3.462189e-01
-2.490037e-01 3.451269e-01 -0.000000e+00
-1.975797e-01 2.120872e-01 0.000000e+00
-3.160906e-01 3.377900e-01 -5.622346e-04
-5.546387e-01 5.936370e-01 -6.429779e-04
-5.945163e-01 6.342905e-01 -1.444398e-03
-1.514421e-01 1.531319e-01 -3.511533e-03
3.156669e-01 -3.520058e-01 -4.900757e-03
4.418320e-01 -4.857015e-01 -4.255358e-03
4.265351e-01 -4.639692e-01 -2.277175e-03
4.080017e-01 -4.379597e-01 0.000000e+00
1.127958e-02 -1.054996e-02 -2.697711e-03
-2.896834e-02 3.536861e-02 -1.907864e-03
-1.252112e-01 1.417477e-01 -7.407125e-04