<?xml version="1.0"?>
<VTKFile type="StructuredGrid" version="0.1">
  <StructuredGrid WholeExtent="0 8 0 8 0 8">
    <Piece Extent="0 8 0 8 0 8">
      <PointData Scalars="temperature" Vectors="velocity">
        <DataArray type="Float32" Name="temperature" format="ascii">
1.000000e+00
9.285406e-01
8.057776e-01
6.882855e-01
5.858386e-01
4.390160e-01
3.072432e-01
1.806263e-01
0.000000e+00
1.000000e+00
9.278232e-01
8.038070e-01
6.813549e-01
5.651597e-01
4.319465e-01
3.053448e-01
1.798354e-01
0.000000e+00
1.000000e+00
9.265063e-01
8.002165e-01
6.682928e-01
5.285207e-01
4.203043e-01
3.020386e-01
1.783896e-01
0.000000e+00
1.000000e+00
9.262810e-01
7.995578e-01
6.656634e-01
5.212761e-01
4.181771e-01
3.014312e-01
1.781234e-01
0.000000e+00
1.000000e+00
9.274846e-01
8.027907e-01
6.772153e-01
5.525414e-01
4.279981e-01
3.043220e-01
1.794039e-01
0.000000e+00
1.000000e+00
9.286851e-01
8.059423e-01
6.879614e-01
5.839670e-01
4.386371e-01
3.072991e-01
1.806919e-01
0.000000e+00
1.000000e+00
9.284632e-01
8.053153e-01
6.856528e-01
5.766618e-01
4.361847e-01
3.066565e-01
1.804243e-01
0.000000e+00
1.000000e+00
9.271530e-01
8.017706e-01
6.729845e-01
5.399511e-01
4.241507e-01
3.033048e-01
1.789803e-01
0.000000e+00
1.000000e+00
9.263572e-01
7.996484e-01
6.652408e-01
5.193454e-01
4.177588e-01
3.014122e-01
1.781254e-01
0.000000e+00
1.000000e+00
9.282230e-01
8.049108e-01
6.851595e-01
5.760724e-01
4.356652e-01
3.063592e-01
1.802568e-01
0.000000e+00
1.000000e+00
9.277275e-01
8.035294e-01
6.802171e-01
5.614817e-01
4.307395e-01
3.050310e-01
1.797076e-01
0.000000e+00
1.000000e+00
9.267956e-01
8.009932e-01
6.710104e-01
5.355617e-01
4.224741e-01
3.026913e-01
1.786845e-01
0.000000e+00
1.000000e+00
9.266362e-01
8.005294e-01
6.691770e-01
5.304306e-01
4.209422e-01
3.022601e-01
1.784959e-01
0.000000e+00
1.000000e+00
9.274878e-01
8.028126e-01
6.772852e-01
5.525632e-01
4.279558e-01
3.043079e-01
1.794011e-01
0.000000e+00
1.000000e+00
9.283361e-01
8.050423e-01
6.849448e-01
5.747636e-01
4.354093e-01
3.064079e-01
1.803120e-01
0.000000e+00
1.000000e+00
9.281793e-01
8.045975e-01
6.832863e-01
5.696052e-01
4.337031e-01
3.059558e-01
1.801231e-01
0.000000e+00
1.000000e+00
9.272536e-01
8.020898e-01
6.742983e-01
5.436558e-01
4.252272e-01
3.035890e-01
1.791031e-01
0.000000e+00
1.000000e+00
9.266792e-01
8.005783e-01
6.688637e-01
5.290511e-01
4.206345e-01
3.022375e-01
1.784887e-01
0.000000e+00
1.000000e+00
9.274533e-01
8.027762e-01
6.772600e-01
5.525316e-01
4.279122e-01
3.042689e-01
1.793696e-01
0.000000e+00
1.000000e+00
9.274929e-01
8.028304e-01
6.773456e-01
5.525820e-01
4.279180e-01
3.042951e-01
1.794028e-01
0.000000e+00
1.000000e+00
9.274902e-01
8.028247e-01
6.773239e-01
5.525755e-01
4.279326e-01
3.042995e-01
1.794006e-01
0.000000e+00
1.000000e+00
9.274892e-01
8.028217e-01
6.773093e-01
5.525726e-01
4.279443e-01
3.043028e-01
1.794003e-01
0.000000e+00
1.000000e+00
9.274910e-01
8.028346e-01
6.773552e-01
5.525850e-01
4.279135e-01
3.042939e-01
1.793982e-01
0.000000e+00
1.000000e+00
9.274893e-01
8.028218e-01
6.773095e-01
5.525728e-01
4.279445e-01
3.043029e-01
1.794003e-01
0.000000e+00
1.000000e+00
9.274903e-01
8.028248e-01
6.773241e-01
5.525758e-01
4.279328e-01
3.042996e-01
1.794007e-01
0.000000e+00
1.000000e+00
9.274930e-01
8.028305e-01
6.773457e-01
5.525821e-01
4.279182e-01
3.042952e-01
1.794029e-01
0.000000e+00
1.000000e+00
9.274534e-01
8.027762e-01
6.772600e-01
5.525316e-01
4.279123e-01
3.042690e-01
1.793697e-01
0.000000e+00
1.000000e+00
9.266792e-01
8.005783e-01
6.688636e-01
5.290511e-01
4.206345e-01
3.022376e-01
1.784887e-01
0.000000e+00
1.000000e+00
9.272535e-01
8.020897e-01
6.742982e-01
5.436557e-01
4.252272e-01
3.035889e-01
1.791031e-01
0.000000e+00
1.000000e+00
9.281793e-01
8.045973e-01
6.832861e-01
5.696049e-01
4.337029e-01
3.059556e-01
1.801230e-01
0.000000e+00
1.000000e+00
9.283361e-01
8.050422e-01
6.849446e-01
5.747634e-01
4.354091e-01
3.064078e-01
1.803120e-01
0.000000e+00
1.000000e+00
9.274878e-01
8.028126e-01
6.772852e-01
5.525632e-01
4.279558e-01
3.043079e-01
1.794011e-01
0.000000e+00
1.000000e+00
9.266362e-01
8.005296e-01
6.691772e-01
5.304309e-01
4.209424e-01
3.022602e-01
1.784960e-01
0.000000e+00
1.000000e+00
9.267957e-01
8.009934e-01
6.710107e-01
5.355619e-01
4.224743e-01
3.026915e-01
1.786846e-01
0.000000e+00
1.000000e+00
9.277275e-01
8.035295e-01
6.802172e-01
5.614817e-01
4.307395e-01
3.050310e-01
1.797077e-01
0.000000e+00
1.000000e+00
9.282230e-01
8.049108e-01
6.851595e-01
5.760724e-01
4.356651e-01
3.063590e-01
1.802567e-01
0.000000e+00
1.000000e+00
9.263573e-01
7.996484e-01
6.652407e-01
5.193454e-01
4.177590e-01
3.014125e-01
1.781257e-01
0.000000e+00
1.000000e+00
9.271530e-01
8.017705e-01
6.729844e-01
5.399510e-01
4.241507e-01
3.033049e-01
1.789804e-01
0.000000e+00
1.000000e+00
9.284631e-01
8.053151e-01
6.856525e-01
5.766615e-01
4.361844e-01
3.066563e-01
1.804241e-01
0.000000e+00
1.000000e+00
9.286850e-01
8.059421e-01
6.879612e-01
5.839667e-01
4.386368e-01
3.072989e-01
1.806918e-01
0.000000e+00
1.000000e+00
9.274846e-01
8.027907e-01
6.772153e-01
5.525414e-01
4.279981e-01
3.043220e-01
1.794039e-01
0.000000e+00
1.000000e+00
9.262810e-01
7.995580e-01
6.656637e-01
5.212764e-01
4.181773e-01
3.014314e-01
1.781235e-01
0.000000e+00
1.000000e+00
9.265064e-01
8.002167e-01
6.682930e-01
5.285210e-01
4.203046e-01
3.020388e-01
1.783897e-01
0.000000e+00
1.000000e+00
9.278232e-01
8.038071e-01
6.813550e-01
5.651597e-01
4.319465e-01
3.053447e-01
1.798353e-01
0.000000e+00
1.000000e+00
9.285405e-01
8.057775e-01
6.882855e-01
5.858385e-01
4.390158e-01
3.072428e-01
1.806260e-01
0.000000e+00
1.000000e+00
9.266792e-01
8.005783e-01
6.688636e-01
5.290511e-01
4.206345e-01
3.022376e-01
1.784887e-01
0.000000e+00
1.000000e+00
9.272535e-01
8.020897e-01
6.742982e-01
5.436557e-01
4.252272e-01
3.035889e-01
1.791031e-01
0.000000e+00
1.000000e+00
9.281793e-01
8.045973e-01
6.832861e-01
5.696049e-01
4.337029e-01
3.059556e-01
1.801230e-01
0.000000e+00
1.000000e+00
9.283361e-01
8.050422e-01
6.849446e-01
5.747634e-01
4.354091e-01
3.064078e-01
1.803120e-01
0.000000e+00
1.000000e+00
9.274878e-01
8.028126e-01
6.772852e-01
5.525632e-01
4.279558e-01
3.043079e-01
1.794011e-01
0.000000e+00
1.000000e+00
9.266362e-01
8.005296e-01
6.691772e-01
5.304309e-01
4.209424e-01
3.022602e-01
1.784960e-01
0.000000e+00
1.000000e+00
9.267957e-01
8.009934e-01
6.710107e-01
5.355619e-01
4.224743e-01
3.026915e-01
1.786846e-01
0.000000e+00
1.000000e+00
9.277275e-01
8.035295e-01
6.802172e-01
5.614817e-01
4.307395e-01
3.050310e-01
1.797077e-01
0.000000e+00
1.000000e+00
9.282230e-01
8.049108e-01
6.851595e-01
5.760724e-01
4.356651e-01
3.063590e-01
1.802567e-01
0.000000e+00
1.000000e+00
9.274533e-01
8.027762e-01
6.772600e-01
5.525316e-01
4.279122e-01
3.042689e-01
1.793696e-01
0.000000e+00
1.000000e+00
9.274929e-01
8.028304e-01
6.773456e-01
5.525820e-01
4.279180e-01
3.042951e-01
1.794028e-01
0.000000e+00
1.000000e+00
9.274902e-01
8.028247e-01
6.773239e-01
5.525755e-01
4.279326e-01
3.042995e-01
1.794006e-01
0.000000e+00
1.000000e+00
9.274892e-01
8.028217e-01
6.773093e-01
5.525726e-01
4.279443e-01
3.043028e-01
1.794003e-01
0.000000e+00
1.000000e+00
9.274910e-01
8.028346e-01
6.773552e-01
5.525850e-01
4.279135e-01
3.042939e-01
1.793982e-01
0.000000e+00
1.000000e+00
9.274893e-01
8.028218e-01
6.773095e-01
5.525728e-01
4.279445e-01
3.043029e-01
1.794003e-01
0.000000e+00
1.000000e+00
9.274903e-01
8.028248e-01
6.773241e-01
5.525758e-01
4.279328e-01
3.042996e-01
1.794007e-01
0.000000e+00
1.000000e+00
9.274930e-01
8.028305e-01
6.773457e-01
5.525821e-01
4.279182e-01
3.042952e-01
1.794029e-01
0.000000e+00
1.000000e+00
9.274534e-01
8.027762e-01
6.772600e-01
5.525316e-01
4.279123e-01
3.042690e-01
1.793697e-01
0.000000e+00
1.000000e+00
9.282230e-01
8.049108e-01
6.851595e-01
5.760724e-01
4.356652e-01
3.063592e-01
1.802568e-01
0.000000e+00
1.000000e+00
9.277275e-01
8.035294e-01
6.802171e-01
5.614817e-01
4.307395e-01
3.050310e-01
1.797076e-01
0.000000e+00
1.000000e+00
9.267956e-01
8.009932e-01
6.710104e-01
5.355617e-01
4.224741e-01
3.026913e-01
1.786845e-01
0.000000e+00
1.000000e+00
9.266362e-01
8.005294e-01
6.691770e-01
5.304306e-01
4.209422e-01
3.022601e-01
1.784959e-01
0.000000e+00
1.000000e+00
9.274878e-01
8.028126e-01
6.772852e-01
5.525632e-01
4.279558e-01
3.043079e-01
1.794011e-01
0.000000e+00
1.000000e+00
9.283361e-01
8.050423e-01
6.849448e-01
5.747636e-01
4.354093e-01
3.064079e-01
1.803120e-01
0.000000e+00
1.000000e+00
9.281793e-01
8.045975e-01
6.832863e-01
5.696052e-01
4.337031e-01
3.059558e-01
1.801231e-01
0.000000e+00
1.000000e+00
9.272536e-01
8.020898e-01
6.742983e-01
5.436558e-01
4.252272e-01
3.035890e-01
1.791031e-01
0.000000e+00
1.000000e+00
9.266792e-01
8.005783e-01
6.688637e-01
5.290511e-01
4.206345e-01
3.022375e-01
1.784887e-01
0.000000e+00
1.000000e+00
9.285406e-01
8.057776e-01
6.882855e-01
5.858386e-01
4.390160e-01
3.072432e-01
1.806263e-01
0.000000e+00
1.000000e+00
9.278232e-01
8.038070e-01
6.813549e-01
5.651597e-01
4.319465e-01
3.053448e-01
1.798354e-01
0.000000e+00
1.000000e+00
9.265063e-01
8.002165e-01
6.682928e-01
5.285207e-01
4.203043e-01
3.020386e-01
1.783896e-01
0.000000e+00
1.000000e+00
9.262810e-01
7.995578e-01
6.656634e-01
5.212761e-01
4.181771e-01
3.014312e-01
1.781234e-01
0.000000e+00
1.000000e+00
9.274846e-01
8.027907e-01
6.772153e-01
5.525414e-01
4.279981e-01
3.043220e-01
1.794039e-01
0.000000e+00
1.000000e+00
9.286851e-01
8.059423e-01
6.879614e-01
5.839670e-01
4.386371e-01
3.072991e-01
1.806919e-01
0.000000e+00
1.000000e+00
9.284632e-01
8.053153e-01
6.856528e-01
5.766618e-01
4.361847e-01
3.066565e-01
1.804243e-01
0.000000e+00
1.000000e+00
9.271530e-01
8.017706e-01
6.729845e-01
5.399511e-01
4.241507e-01
3.033048e-01
1.789803e-01
0.000000e+00
1.000000e+00
9.263572e-01
7.996484e-01
6.652408e-01
5.193454e-01
4.177588e-01
3.014122e-01
1.781254e-01
0.000000e+00
        </DataArray>
        <DataArray type="Float32" Name="velocity" NumberOfComponents="3" format="ascii">
0.000000e+00 0.000000e+00 0.000000e+00
1.019660e+00 0.000000e+00 5.570381e-01
2.178872e+00 0.000000e+00 1.190313e+00
3.316069e+00 0.000000e+00 1.811561e+00
3.775712e+00 0.000000e+00 2.062663e+00
3.233035e+00 0.000000e+00 1.766199e+00
2.121679e+00 0.000000e+00 1.159068e+00
9.805912e-01 0.000000e+00 5.356947e-01
0.000000e+00 0.000000e+00 0.000000e+00
-2.772615e-01 0.000000e+00 7.043847e-01
-4.379766e-02 0.000000e+00 1.055566e+00
2.242117e-01 0.000000e+00 1.603520e+00
7.009487e-01 0.000000e+00 1.727193e+00
1.248376e+00 0.000000e+00 9.239463e-01
1.416696e+00 0.000000e+00 -1.065667e-01
1.153141e+00 0.000000e+00 -6.665319e-01
7.681482e-01 0.000000e+00 -9.152012e-01
4.113860e-01 0.000000e+00 -1.045129e+00
-1.304591e-01 0.000000e+00 5.109269e-01
-1.225630e+00 0.000000e+00 4.239953e-01
-2.373339e+00 0.000000e+00 4.711837e-01
-3.314686e+00 0.000000e+00 2.022734e-01
-3.465762e+00 0.000000e+00 -5.792913e-01
-2.766562e+00 0.000000e+00 -1.187094e+00
-1.716051e+00 0.000000e+00 -1.230644e+00
-6.880537e-01 0.000000e+00 -1.028904e+00
2.015118e-01 0.000000e+00 -7.891961e-01
5.618895e-02 0.000000e+00 -4.471812e-01
-1.244458e+00 0.000000e+00 -7.139088e-01
-2.603412e+00 0.000000e+00 -1.041990e+00
-3.870386e+00 0.000000e+00 -1.133514e+00
-4.374702e+00 0.000000e+00 -7.332735e-01
-3.773057e+00 0.000000e+00 -1.699511e-01
-2.529843e+00 0.000000e+00 2.098895e-01
-1.224432e+00 0.000000e+00 4.429901e-01
-7.478637e-02 0.000000e+00 5.951893e-01
-3.677580e-06 0.000000e+00 -1.001191e+00
-1.672134e-03 0.000000e+00 -1.267705e+00
5.057458e-05 0.000000e+00 -1.703061e+00
3.232744e-03 0.000000e+00 -1.587437e+00
1.523229e-03 0.000000e+00 -4.636074e-01
1.072250e-04 0.000000e+00 7.367926e-01
2.524683e-03 0.000000e+00 1.262251e+00
2.732128e-03 0.000000e+00 1.399895e+00
5.156078e-06 0.000000e+00 1.403700e+00
-5.561700e-02 0.000000e+00 -4.426031e-01
1.237591e+00 0.000000e+00 -7.077415e-01
2.586090e+00 0.000000e+00 -1.032513e+00
3.855114e+00 0.000000e+00 -1.130721e+00
4.387966e+00 0.000000e+00 -7.410714e-01
3.810276e+00 0.000000e+00 -1.765389e-01
2.561489e+00 0.000000e+00 2.060086e-01
1.238631e+00 0.000000e+00 4.386141e-01
7.431392e-02 0.000000e+00 5.913941e-01
1.322410e-01 0.000000e+00 5.178897e-01
1.220209e+00 0.000000e+00 4.320630e-01
2.360730e+00 0.000000e+00 4.771053e-01
3.307500e+00 0.000000e+00 2.131752e-01
3.476260e+00 0.000000e+00 -5.683367e-01
2.787453e+00 0.000000e+00 -1.192426e+00
1.733674e+00 0.000000e+00 -1.245583e+00
6.956209e-01 0.000000e+00 -1.042573e+00
-2.043824e-01 0.000000e+00 -8.004142e-01
2.799593e-01 0.000000e+00 7.112229e-01
3.875363e-02 0.000000e+00 1.065332e+00
-2.312701e-01 0.000000e+00 1.615948e+00
-7.072429e-01 0.000000e+00 1.735026e+00
-1.255932e+00 0.000000e+00 9.259533e-01
-1.421505e+00 0.000000e+00 -1.049406e-01
-1.153462e+00 0.000000e+00 -6.695508e-01
-7.688644e-01 0.000000e+00 -9.242987e-01
-4.153481e-01 0.000000e+00 -1.055172e+00
0.000000e+00 0.000000e+00 -0.000000e+00
-1.034581e+00 0.000000e+00 5.651992e-01
-2.210895e+00 0.000000e+00 1.207828e+00
-3.351401e+00 0.000000e+00 1.830894e+00
-3.785859e+00 0.000000e+00 2.068242e+00
-3.220487e+00 0.000000e+00 1.759375e+00
-2.111118e+00 0.000000e+00 1.153319e+00
-9.781715e-01 0.000000e+00 5.343822e-01
0.000000e+00 0.000000e+00 -0.000000e+00
2.684520e-02 -2.136419e-01 0.000000e+00
7.580876e-01 -2.430205e-01 3.943583e-01
1.601860e+00 -3.719283e-01 8.429328e-01
2.402363e+00 -2.992324e-01 1.281785e+00
2.666942e+00 1.607444e-01 1.456525e+00
2.223290e+00 5.793392e-01 1.244560e+00
1.423889e+00 6.470867e-01 8.158711e-01
6.252560e-01 5.576648e-01 3.768931e-01
-5.738179e-02 4.566609e-01 0.000000e+00
-1.974538e-01 2.840189e-03 4.968191e-01
-2.632016e-02 -1.838984e-02 7.459869e-01
1.757333e-01 -9.363688e-02 1.134423e+00
5.145999e-01 -9.629895e-02 1.221859e+00
8.809795e-01 5.967786e-02 6.524610e-01
9.793514e-01 2.028432e-01 -7.688459e-02
7.902824e-01 2.088572e-01 -4.725284e-01
5.244710e-01 1.586729e-01 -6.471084e-01
2.785265e-01 1.126038e-01 -7.377432e-01
-1.459547e-01 4.243581e-01 3.599509e-01
-9.220122e-01 4.142263e-01 2.993049e-01
-1.739847e+00 4.336806e-01 3.334122e-01
-2.390841e+00 2.668401e-01 1.436477e-01
-2.449874e+00 -1.643987e-01 -4.094639e-01
-1.909648e+00 -5.346784e-01 -8.404454e-01
-1.147426e+00 -6.429722e-01 -8.709190e-01
-4.159501e-01 -6.159927e-01 -7.271256e-01
2.120280e-01 -5.469614e-01 -5.568359e-01
-1.787218e-02 4.618007e-01 -3.170847e-01
-9.402853e-01 4.542690e-01 -5.052100e-01
-1.911373e+00 5.003994e-01 -7.365217e-01
-2.791557e+00 3.128630e-01 -8.011298e-01
-3.090303e+00 -2.219110e-01 -5.189091e-01
-2.609872e+00 -6.776242e-01 -1.205389e-01
-1.709493e+00 -7.908163e-01 1.483097e-01
-7.830196e-01 -7.356421e-01 3.134521e-01
2.659424e-02 -6.364824e-01 4.215355e-01
-3.437911e-04 2.715131e-03 -7.079876e-01
2.181093e-03 3.847992e-03 -8.965280e-01
5.986881e-03 3.249818e-03 -1.204265e+00
7.845664e-03 -2.749537e-03 -1.122593e+00
2.774133e-03 -7.437107e-03 -3.277661e-01
-2.805094e-03 -4.165907e-03 5.209783e-01
-2.829464e-03 1.395352e-03 8.926605e-01
-1.183531e-03 3.885127e-03 9.899673e-01
-5.261927e-04 4.216836e-03 9.925134e-01
1.780072e-02 -4.563869e-01 -3.122588e-01
9.418506e-01 -4.466064e-01 -5.001521e-01
1.911935e+00 -4.938538e-01 -7.305777e-01
2.793948e+00 -3.212808e-01 -7.999094e-01
3.101257e+00 2.039810e-01 -5.237388e-01
2.625105e+00 6.716942e-01 -1.243253e-01
1.719374e+00 7.975536e-01 1.458551e-01
7.860678e-01 7.451875e-01 3.099871e-01
-2.819928e-02 6.454344e-01 4.177191e-01
1.472581e-01 -4.193371e-01 3.674562e-01
9.241859e-01 -4.071286e-01 3.058986e-01
1.742266e+00 -4.275856e-01 3.371252e-01
2.396658e+00 -2.738889e-01 1.499755e-01
2.458401e+00 1.482925e-01 -4.019809e-01
1.915180e+00 5.280609e-01 -8.422214e-01
1.148762e+00 6.478230e-01 -8.800052e-01
4.144551e-01 6.240943e-01 -7.374803e-01
-2.156729e-01 5.548742e-01 -5.671184e-01
1.998047e-01 1.551528e-03 5.041252e-01
2.727459e-02 2.429639e-02 7.536760e-01
-1.730563e-01 9.861870e-02 1.141999e+00
-5.123590e-01 9.036710e-02 1.226412e+00
-8.868336e-01 -7.410463e-02 6.554806e-01
-9.914215e-01 -2.107227e-01 -7.266189e-02
-8.010169e-01 -2.068168e-01 -4.723497e-01
-5.317401e-01 -1.527711e-01 -6.535629e-01
-2.831065e-01 -1.061234e-01 -7.472193e-01
-2.729674e-02 2.172353e-01 -0.000000e+00
-7.675698e-01 2.474195e-01 3.992053e-01
-1.620395e+00 3.754800e-01 8.527525e-01
-2.423411e+00 2.898906e-01 1.293853e+00
-2.679489e+00 -1.786291e-01 1.464570e+00
-2.229207e+00 -5.862167e-01 1.248257e+00
-1.430462e+00 -6.428668e-01 8.191606e-01
-6.309956e-01 -5.511647e-01 3.795681e-01
5.651834e-02 -4.497894e-01 -0.000000e+00
7.596963e-02 -2.975212e-01 0.000000e+00
1.170465e-01 -4.641330e-01 -7.760331e-04
1.980647e-01 -7.836916e-01 -1.082229e-03
2.032690e-01 -8.139230e-01 -2.413524e-03
4.831666e-02 -2.282078e-01 -5.268980e-03
-1.178750e-01 4.088292e-01 -7.137168e-03
-1.726710e-01 6.303261e-01 -6.204775e-03
-1.710203e-01 6.449049e-01 -3.360656e-03
-1.597619e-01 6.256782e-01 0.000000e+00
-7.370662e-03 3.512505e-02 -3.934101e-03
1.026771e-02 -2.333207e-02 -2.869091e-03
4.754329e-02 -1.589104e-01 -1.420543e-03
5.916511e-02 -2.133792e-01 -6.719737e-04
1.152962e-02 -6.110538e-02 -2.027806e-03
-3.916326e-02 1.102800e-01 -3.405273e-03
-4.747383e-02 1.441127e-01 -1.696704e-03
-3.702349e-02 1.198867e-01 1.923385e-03
-2.743531e-02 1.002922e-01 4.496001e-03
-1.518251e-01 5.988904e-01 -4.161666e-03
-1.772765e-01 7.173726e-01 -2.727570e-03
-2.163888e-01 8.853098e-01 -8.836035e-04
-1.901820e-01 7.785352e-01 -9.788389e-04
-5.182096e-02 2.070324e-01 -2.021591e-03
9.529505e-02 -3.972726e-01 -8.570936e-04
1.671913e-01 -6.830501e-01 1.650362e-03
1.929146e-01 -7.730700e-01 3.624580e-03
1.993996e-01 -7.858624e-01 4.796490e-03
-1.598022e-01 6.272395e-01 -2.762965e-03
-1.917057e-01 7.746447e-01 -2.237667e-03
-2.463175e-01 1.004872e+00 -1.417250e-03
-2.233467e-01 9.104528e-01 5.379956e-05
-5.929974e-02 2.397873e-01 9.171750e-04
1.157738e-01 -4.711433e-01 5.636705e-04
1.958336e-01 -7.882439e-01 6.599070e-04
2.199707e-01 -8.733182e-01 1.470266e-03
2.234139e-01 -8.760353e-01 2.117512e-03
1.187418e-06 -4.653990e-06 -2.481321e-04
6.744913e-03 1.718705e-03 -3.102046e-04
1.224787e-02 3.127133e-03 -2.382355e-04
1.128841e-02 2.885615e-03 -1.064686e-04
2.058724e-03 5.288636e-04 -1.358193e-05
-6.507243e-03 -1.657780e-03 9.772041e-05
-7.551074e-03 -1.927449e-03 2.184108e-04
-3.984763e-03 -1.019194e-03 2.380826e-04
5.090526e-07 -1.990206e-06 2.293698e-04
1.604221e-01 -6.270907e-01 2.309980e-03
2.032203e-01 -7.717123e-01 1.714553e-03
2.657620e-01 -9.999088e-01 1.002366e-03
2.407066e-01 -9.060149e-01 -2.862171e-04
6.317478e-02 -2.387924e-01 -9.305167e-04
-1.239825e-01 4.690539e-01 -4.083580e-04
-2.058721e-01 7.856828e-01 -3.605840e-04
-2.255610e-01 8.718886e-01 -1.080871e-03
-2.238805e-01 8.759130e-01 -1.720550e-03
1.538183e-01 -5.983904e-01 3.885956e-03
1.884215e-01 -7.145352e-01 2.396790e-03
2.347265e-01 -8.806318e-01 6.300410e-04
2.066224e-01 -7.743355e-01 7.870796e-04
5.415136e-02 -2.064333e-01 2.001637e-03
-1.064995e-01 3.944180e-01 9.306350e-04
-1.805235e-01 6.796489e-01 -1.577145e-03
-2.011597e-01 7.709649e-01 -3.415659e-03
-2.017129e-01 7.852717e-01 -4.553826e-03
1.033775e-02 -3.437525e-02 3.840664e-03
-2.120623e-03 2.540463e-02 2.743800e-03
-3.435925e-02 1.622715e-01 1.305608e-03
-5.019853e-02 2.156688e-01 5.996018e-04
-1.895558e-02 5.921215e-02 2.002000e-03
1.870914e-02 -1.154969e-01 3.410906e-03
2.763834e-02 -1.491742e-01 1.676497e-03
2.516742e-02 -1.229123e-01 -1.891721e-03
2.403511e-02 -1.011577e-01 -4.417554e-03
-7.596815e-02 2.975154e-01 -0.000000e+00
-1.197599e-01 4.634338e-01 7.547179e-04
-2.018227e-01 7.827285e-01 1.037093e-03
-2.117710e-01 8.117533e-01 2.380010e-03
-6.693986e-02 2.234556e-01 5.230928e-03
9.267197e-02 -4.152591e-01 7.072348e-03
1.508130e-01 -6.359038e-01 6.118947e-03
1.592058e-01 -6.479195e-01 3.300470e-03
1.597611e-01 -6.256754e-01 -0.000000e+00
8.019538e-02 -2.037347e-01 0.000000e+00
-5.550214e-01 -5.851320e-01 -3.992177e-01
-1.242089e+00 -1.106407e+00 -8.527816e-01
-1.987848e+00 -1.416308e+00 -1.293886e+00
-2.437222e+00 -1.127811e+00 -1.464591e+00
-2.237405e+00 -5.541598e-01 -1.248233e+00
-1.563510e+00 -1.215436e-01 -8.191056e-01
-8.178938e-01 1.810883e-01 -3.795287e-01
-1.659791e-01 4.216665e-01 0.000000e+00
1.761179e-01 9.444755e-02 -5.042208e-01
3.552351e-02 -8.272107e-03 -7.537928e-01
-1.047066e-01 -1.695775e-01 -1.142125e+00
-4.064879e-01 -3.249748e-01 -1.226509e+00
-8.139907e-01 -3.601808e-01 -6.554563e-01
-9.712697e-01 -2.903977e-01 7.275713e-02
-8.022415e-01 -2.025070e-01 4.723989e-01
-5.399126e-01 -1.209293e-01 6.535652e-01
-2.992837e-01 -4.267979e-02 7.472092e-01
-7.175195e-02 4.386288e-01 -3.677163e-01
6.157840e-01 8.003174e-01 -3.062244e-01
1.323786e+00 1.210443e+00 -3.374118e-01
1.971659e+00 1.389293e+00 -1.501642e-01
2.228212e+00 1.048373e+00 4.019409e-01
1.933580e+00 4.546494e-01 8.422925e-01
1.318463e+00 -1.788269e-02 8.801033e-01
6.627554e-01 -3.490467e-01 7.376345e-01
7.671006e-02 -5.903554e-01 5.672938e-01
-2.031236e-01 4.090619e-01 3.118141e-01
6.123752e-01 8.434443e-01 4.996147e-01
1.440936e+00 1.349953e+00 7.301518e-01
2.297641e+00 1.621323e+00 7.996645e-01
2.819100e+00 1.307740e+00 5.237007e-01
2.625507e+00 6.689955e-01 1.244553e-01
1.891081e+00 1.242631e-01 -1.455806e-01
1.046968e+00 -2.771437e-01 -3.095920e-01
2.846302e-01 -5.799365e-01 -4.173112e-01
1.007144e-03 -2.551533e-03 7.074889e-01
3.762199e-03 -2.335111e-03 8.959121e-01
6.813556e-03 1.841438e-05 1.203781e+00
5.567243e-03 6.179709e-03 1.122359e+00
-1.135209e-03 7.860046e-03 3.277770e-01
-4.464437e-03 2.314077e-03 -5.207633e-01
-1.820424e-03 -2.583052e-03 -8.922717e-01
8.197040e-04 -3.980793e-03 -9.894816e-01
1.553873e-03 -3.957530e-03 -9.920207e-01
2.056653e-01 -4.138578e-01 3.166378e-01
-6.073258e-01 -8.494294e-01 5.046859e-01
-1.437305e+00 -1.355431e+00 7.361251e-01
-2.299578e+00 -1.612781e+00 8.009274e-01
-2.818084e+00 -1.286746e+00 5.189185e-01
-2.614982e+00 -6.564772e-01 1.207095e-01
-1.879182e+00 -1.254377e-01 -1.480092e-01
-1.039716e+00 2.702253e-01 -3.130466e-01
-2.817522e-01 5.713067e-01 -4.211292e-01
7.530219e-02 -4.424242e-01 -3.602118e-01
-6.104805e-01 -8.055197e-01 -2.996159e-01
-1.318752e+00 -1.214644e+00 -3.336674e-01
-1.969943e+00 -1.380319e+00 -1.437946e-01
-2.228451e+00 -1.030145e+00 4.094636e-01
-1.931889e+00 -4.461762e-01 8.405449e-01
-1.314955e+00 1.427363e-02 8.710328e-01
-6.601722e-01 3.412251e-01 7.272816e-01
-7.610970e-02 5.816681e-01 5.570030e-01
-1.719526e-01 -9.718663e-02 -4.969123e-01
-3.186514e-02 3.530724e-03 -7.461000e-01
1.094240e-01 1.664732e-01 -1.134543e+00
4.055863e-01 3.312457e-01 -1.221955e+00
8.019193e-01 3.700322e-01 -6.524430e-01
9.568930e-01 2.915318e-01 7.696667e-02
7.937985e-01 1.955757e-01 4.725639e-01
5.363672e-01 1.122696e-01 6.470985e-01
2.983778e-01 3.480311e-02 7.377224e-01
-7.886611e-02 2.003577e-01 -0.000000e+00
5.488021e-01 5.767140e-01 -3.943787e-01
1.227507e+00 1.094392e+00 -8.429796e-01
1.964869e+00 1.414405e+00 -1.281846e+00
2.417603e+00 1.137482e+00 -1.456579e+00
2.228886e+00 5.573568e-01 -1.244564e+00
1.559744e+00 1.146885e-01 -8.158339e-01
8.159634e-01 -1.895447e-01 -3.768620e-01
1.685147e-01 -4.281080e-01 -0.000000e+00
-2.733045e-09 5.002806e-09 0.000000e+00
-9.079553e-01 -4.960182e-01 -5.652049e-01
-1.940306e+00 -1.059994e+00 -1.207846e+00
-2.941247e+00 -1.606811e+00 -1.830935e+00
-3.322487e+00 -1.815083e+00 -2.068258e+00
-2.826125e+00 -1.543919e+00 -1.759271e+00
-1.852405e+00 -1.011973e+00 -1.153127e+00
-8.582202e-01 -4.688478e-01 -5.342446e-01
6.393160e-09 -1.170260e-08 0.000000e+00
2.457156e-01 1.342351e-01 -7.113200e-01
3.394536e-02 1.854445e-02 -1.065439e+00
-2.030902e-01 -1.109487e-01 -1.616082e+00
-6.208019e-01 -3.391456e-01 -1.735148e+00
-1.102321e+00 -6.022007e-01 -9.258813e-01
-1.247615e+00 -6.815750e-01 1.051223e-01
-1.012266e+00 -5.530034e-01 6.696663e-01
-6.746615e-01 -3.685693e-01 9.242682e-01
-3.644589e-01 -1.991048e-01 1.055069e+00
1.161037e-01 6.342772e-02 -5.181344e-01
1.070740e+00 5.849477e-01 -4.323793e-01
2.071524e+00 1.131679e+00 -4.774158e-01
2.902315e+00 1.585542e+00 -2.133486e-01
3.050430e+00 1.666457e+00 5.682883e-01
2.445933e+00 1.336219e+00 1.192503e+00
1.521159e+00 8.310128e-01 1.245712e+00
6.103051e-01 3.334112e-01 1.042673e+00
-1.793804e-01 -9.799598e-02 8.005189e-01
-4.875740e-02 -2.663628e-02 4.421658e-01
1.086029e+00 5.933005e-01 7.071935e-01
2.269317e+00 1.239734e+00 1.032084e+00
3.382896e+00 1.848085e+00 1.130475e+00
3.850494e+00 2.103535e+00 7.410224e-01
3.343612e+00 1.826624e+00 1.766565e-01
2.247699e+00 1.227924e+00 -2.057512e-01
1.086835e+00 5.937409e-01 -4.382104e-01
6.516657e-02 3.560065e-02 -5.909756e-01
3.221776e-06 1.769544e-06 1.000690e+00
-1.465779e-03 -8.007463e-04 1.267094e+00
4.573778e-05 2.499751e-05 1.702569e+00
2.839362e-03 1.551161e-03 1.587182e+00
1.335115e-03 7.293836e-04 4.636564e-01
9.171061e-05 5.010091e-05 -7.365581e-01
2.207152e-03 1.205755e-03 -1.261911e+00
2.390231e-03 1.305770e-03 -1.399400e+00
-4.518499e-06 -2.479610e-06 -1.403174e+00
4.926484e-02 2.691351e-02 4.467412e-01
-1.092057e+00 -5.965935e-01 7.133801e-01
-2.284520e+00 -1.248039e+00 1.041603e+00
-3.396293e+00 -1.855404e+00 1.133329e+00
-3.838850e+00 -2.097173e+00 7.332917e-01
-3.310943e+00 -1.808776e+00 1.701242e-01
-2.219928e+00 -1.212752e+00 -2.095956e-01
-1.074376e+00 -5.869341e-01 -4.425714e-01
-6.558923e-02 -3.583157e-02 -5.947733e-01
-1.145472e-01 -6.257743e-02 -5.111729e-01
-1.075512e+00 -5.875547e-01 -4.242912e-01
-2.082608e+00 -1.137734e+00 -4.714496e-01
-2.908632e+00 -1.588993e+00 -2.023874e-01
-3.041214e+00 -1.661423e+00 5.792988e-01
-2.427579e+00 -1.326193e+00 1.187212e+00
-1.505677e+00 -8.225552e-01 1.230793e+00
-6.036497e-01 -3.297753e-01 1.029007e+00
1.768699e-01 9.662446e-02 7.892910e-01
-2.433575e-01 -1.329468e-01 -7.044784e-01
-3.839229e-02 -2.097380e-02 -1.055668e+00
1.968649e-01 1.075478e-01 -1.603647e+00
6.152461e-01 3.361105e-01 -1.727311e+00
1.095670e+00 5.985670e-01 -9.238822e-01
1.243390e+00 6.792671e-01 1.067283e-01
1.011986e+00 5.528502e-01 6.666260e-01
6.740418e-01 3.682307e-01 9.151533e-01
3.609930e-01 1.972114e-01 1.045013e+00
-1.859172e-09 3.403192e-09 -0.000000e+00
8.948482e-01 4.888578e-01 -5.570554e-01
1.912177e+00 1.044627e+00 -1.190356e+00
2.910203e+00 1.589851e+00 -1.811642e+00
3.313537e+00 1.810193e+00 -2.062722e+00
2.837100e+00 1.549915e+00 -1.766134e+00
1.861651e+00 1.017024e+00 -1.158903e+00
8.603358e-01 4.700036e-01 -5.355709e-01
5.698152e-09 -1.043040e-08 -0.000000e+00
-1.281071e-01 1.775604e-01 0.000000e+00
-7.922509e-01 -1.508863e-01 -3.992177e-01
-1.602113e+00 -4.473874e-01 -8.527816e-01
-2.265821e+00 -9.074822e-01 -1.293886e+00
-2.265857e+00 -1.441493e+00 -1.464591e+00
-1.675184e+00 -1.583297e+00 -1.248233e+00
-9.470433e-01 -1.249978e+00 -8.191056e-01
-2.895294e-01 -7.860763e-01 -3.795287e-01
2.651412e-01 -3.674940e-01 0.000000e+00
1.746317e-01 9.716786e-02 -5.042208e-01
1.223268e-02 3.436146e-02 -7.537928e-01
-1.992678e-01 3.515545e-03 -1.142125e+00
-4.930832e-01 -1.664631e-01 -1.226509e+00
-7.428827e-01 -4.903431e-01 -6.554563e-01
-7.691404e-01 -6.603927e-01 7.275713e-02
-6.038567e-01 -5.656479e-01 4.723989e-01
-3.934744e-01 -3.889824e-01 6.535652e-01
-1.976175e-01 -2.287786e-01 7.472092e-01
3.303257e-01 -2.973693e-01 -3.677163e-01
1.006153e+00 8.575107e-02 -3.062244e-01
1.733798e+00 4.599223e-01 -3.374118e-01
2.234342e+00 9.084557e-01 -1.501642e-01
2.086083e+00 1.308537e+00 4.019409e-01
1.427292e+00 1.381403e+00 8.422925e-01
6.973210e-01 1.119111e+00 8.801033e-01
6.437559e-02 7.462802e-01 7.376345e-01
-4.553204e-01 3.835197e-01 5.672938e-01
2.344656e-01 -3.919397e-01 3.118141e-01
1.040602e+00 5.958106e-02 4.996147e-01
1.914487e+00 4.831233e-01 7.301518e-01
2.605717e+00 1.057394e+00 7.996645e-01
2.623592e+00 1.665616e+00 5.237007e-01
1.981508e+00 1.847828e+00 1.244553e-01
1.126319e+00 1.524150e+00 -1.455806e-01
3.324708e-01 1.030734e+00 -3.095920e-01
-3.342134e-01 5.528490e-01 -4.173112e-01
-1.602888e-03 2.226095e-03 7.074889e-01
6.778441e-05 4.427463e-03 8.959121e-01
3.696869e-03 5.723477e-03 1.203781e+00
8.208034e-03 1.345778e-03 1.122359e+00
6.000643e-03 -5.202040e-03 3.277770e-01
-4.649112e-04 -5.006992e-03 -5.207633e-01
-3.157121e-03 -1.362232e-04 -8.922717e-01
-2.906815e-03 2.840567e-03 -9.894816e-01
-2.490577e-03 3.445789e-03 -9.920207e-01
-2.371279e-01 3.966697e-01 3.166378e-01
-1.042910e+00 -5.209829e-02 5.046859e-01
-1.917135e+00 -4.771085e-01 7.361251e-01
-2.599576e+00 -1.063639e+00 8.009274e-01
-2.605377e+00 -1.676104e+00 5.189185e-01
-1.965287e+00 -1.845735e+00 1.207095e-01
-1.120879e+00 -1.513503e+00 -1.480092e-01
-3.343743e-01 -1.020895e+00 -3.130466e-01
3.285067e-01 -5.457646e-01 -4.211292e-01
-3.316012e-01 3.024074e-01 -3.602118e-01
-1.007665e+00 -7.847753e-02 -2.996159e-01
-1.734612e+00 -4.534172e-01 -3.336674e-01
-2.225863e+00 -9.118600e-01 -1.437946e-01
-2.070874e+00 -1.318587e+00 4.094636e-01
-1.419248e+00 -1.384559e+00 8.405448e-01
-6.984625e-01 -1.114209e+00 8.710328e-01
-6.956152e-02 -7.398805e-01 7.272816e-01
4.483346e-01 -3.783207e-01 5.570030e-01
-1.746861e-01 -9.218295e-02 -4.969123e-01
-1.424582e-02 -2.872124e-02 -7.461000e-01
1.992044e-01 2.131299e-03 -1.134543e+00
4.978729e-01 1.623163e-01 -1.221955e+00
7.446502e-01 4.748625e-01 -6.524430e-01
7.623271e-01 6.476824e-01 7.696665e-02
5.934625e-01 5.622883e-01 4.725638e-01
3.842721e-01 3.906779e-01 6.470985e-01
1.905001e-01 2.322721e-01 7.377224e-01
1.259836e-01 -1.746173e-01 -0.000000e+00
7.818071e-01 1.502011e-01 -3.943787e-01
1.584124e+00 4.416090e-01 -8.429796e-01
2.251804e+00 8.891742e-01 -1.281846e+00
2.263394e+00 1.419759e+00 -1.456579e+00
1.673272e+00 1.574402e+00 -1.244564e+00
9.392403e-01 1.250513e+00 -8.158339e-01
2.813706e-01 7.890209e-01 -3.768620e-01
-2.691916e-01 3.731080e-01 -0.000000e+00
-2.093089e-01 2.246776e-01 0.000000e+00
-3.273139e-01 3.492634e-01 -7.760337e-04
-5.524390e-01 5.900962e-01 -1.082233e-03
-5.750660e-01 6.108095e-01 -2.413525e-03
-1.659246e-01 1.639583e-01 -5.268973e-03
2.803297e-01 -3.200797e-01 -7.137158e-03
4.371066e-01 -4.858643e-01 -6.204771e-03
4.502661e-01 -4.923523e-01 -3.360656e-03
4.401703e-01 -4.724903e-01 0.000000e+00
2.557431e-02 -2.518033e-02 -3.934103e-03
-1.408561e-02 2.124637e-02 -2.869095e-03
-1.080307e-01 1.258659e-01 -1.420548e-03