<?xml version="1.0"?>
<VTKFile type="StructuredGrid" version="0.1">
  <StructuredGrid WholeExtent="0 8 0 8 0 8">
    <Piece Extent="0 8 0 8 0 8">
      <PointData Scalars="temperature" Vectors="velocity">
        <DataArray type="Float32" Name="temperature" format="ascii">
1.000000e+00
8.750000e-01
7.500000e-01
6.250000e-01
4.999970e-01
3.750000e-01
2.500000e-01
1.250000e-01
0.000000e+00
1.000000e+00
8.750000e-01
7.500000e-01
6.250000e-01
4.995686e-01
3.750000e-01
2.500000e-01
1.250000e-01
0.000000e+00
1.000000e+00
8.750000e-01
7.500000e-01
6.250000e-01
4.972942e-01
3.750000e-01
2.500000e-01
1.250000e-01
0.000000e+00
1.000000e+00
8.750000e-01
7.500000e-01
6.250000e-01
4.931517e-01
3.750000e-01
2.500000e-01
1.250000e-01
0.000000e+00
1.000000e+00
8.750000e-01
7.500000e-01
6.250000e-01
4.876833e-01
3.750000e-01
2.500000e-01
1.250000e-01
0.000000e+00
1.000000e+00
8.750000e-01
7.500000e-01
6.250000e-01
4.819190e-01
3.750000e-01
2.500000e-01
1.250000e-01
0.000000e+00
1.000000e+00
8.750000e-01
7.500000e-01
6.250000e-01
4.769997e-01
3.750000e-01
2.500000e-01
1.250000e-01
0.000000e+00
1.000000e+00
8.750000e-01
7.500000e-01
6.250000e-01
4.737342e-01
3.750000e-01
2.500000e-01
1.250000e-01
0.000000e+00
1.000000e+00
8.750000e-01
7.500000e-01
6.250000e-01
4.723882e-01
3.750000e-01
2.500000e-01
1.250000e-01
0.000000e+00
1.000000e+00
8.750000e-01
7.500000e-01
6.250000e-01
5.004647e-01
3.750000e-01
2.500000e-01
1.250000e-01
0.000000e+00
1.000000e+00
8.750000e-01
7.500000e-01
6.250000e-01
4.999145e-01
3.750000e-01
2.500000e-01
1.250000e-01
0.000000e+00
1.000000e+00
8.750000e-01
7.500000e-01
6.250000e-01
4.973342e-01
3.750000e-01
2.500000e-01
1.250000e-01
0.000000e+00
1.000000e+00
8.750000e-01
7.500000e-01
6.250000e-01
4.927086e-01
3.750000e-01
2.500000e-01
1.250000e-01
0.000000e+00
1.000000e+00
8.750000e-01
7.500000e-01
6.250000e-01
4.867198e-01
3.750000e-01
2.500000e-01
1.250000e-01
0.000000e+00
1.000000e+00
8.750000e-01
7.500000e-01
6.250000e-01
4.806359e-01
3.750000e-01
2.500000e-01
1.250000e-01
0.000000e+00
1.000000e+00
8.750000e-01
7.500000e-01
6.250000e-01
4.757920e-01
3.750000e-01
2.500000e-01
1.250000e-01
0.000000e+00
1.000000e+00
8.750000e-01
7.500000e-01
6.250000e-01
4.730240e-01
3.750000e-01
2.500000e-01
1.250000e-01
0.000000e+00
1.000000e+00
8.750000e-01
7.500000e-01
6.250000e-01
4.724636e-01
3.750000e-01
2.500000e-01
1.250000e-01
0.000000e+00
1.000000e+00
8.750000e-01
7.500000e-01
6.250000e-01
5.027793e-01
3.750000e-01
2.500000e-01
1.250000e-01
0.000000e+00
1.000000e+00
8.750000e-01
7.500000e-01
6.250000e-01
5.022656e-01
3.750000e-01
2.500000e-01
1.250000e-01
0.000000e+00
1.000000e+00
8.750000e-01
7.500000e-01
6.250000e-01
4.995339e-01
3.750000e-01
2.500000e-01
1.250000e-01
0.000000e+00
1.000000e+00
8.750000e-01
7.500000e-01
6.250000e-01
4.945565e-01
3.750000e-01
2.500000e-01
1.250000e-01
0.000000e+00
1.000000e+00
8.750000e-01
7.500000e-01
6.250000e-01
4.881363e-01
3.750000e-01
2.500000e-01
1.250000e-01
0.000000e+00
1.000000e+00
8.750000e-01
7.500000e-01
6.250000e-01
4.817658e-01
3.750000e-01
2.500000e-01
1.250000e-01
0.000000e+00
1.000000e+00
8.750000e-01
7.500000e-01
6.250000e-01
4.769602e-01
3.750000e-01
2.500000e-01
1.250000e-01
0.000000e+00
1.000000e+00
8.750000e-01
7.500000e-01
6.250000e-01
4.745686e-01
3.750000e-01
2.500000e-01
1.250000e-01
0.000000e+00
1.000000e+00
8.750000e-01
7.500000e-01
6.250000e-01
4.745898e-01
3.750000e-01
2.500000e-01
1.250000e-01
0.000000e+00
1.000000e+00
8.750000e-01
7.500000e-01
6.250000e-01
5.069580e-01
3.750000e-01
2.500000e-01
1.250000e-01
0.000000e+00
1.000000e+00
8.750000e-01
7.500000e-01
6.250000e-01
5.066681e-01
3.750000e-01
2.500000e-01
1.250000e-01
0.000000e+00
1.000000e+00
8.750000e-01
7.500000e-01
6.250000e-01
5.039996e-01
3.750000e-01
2.500000e-01
1.250000e-01
0.000000e+00
1.000000e+00
8.750000e-01
7.500000e-01
6.250000e-01
4.988884e-01
3.750000e-01
2.500000e-01
1.250000e-01
0.000000e+00
1.000000e+00
8.750000e-01
7.500000e-01
6.250000e-01
4.922067e-01
3.750000e-01
2.500000e-01
1.250000e-01
0.000000e+00
1.000000e+00
8.750000e-01
7.500000e-01
6.250000e-01
4.856061e-01
3.750000e-01
2.500000e-01
1.250000e-01
0.000000e+00
1.000000e+00
8.750000e-01
7.500000e-01
6.250000e-01
4.807387e-01
3.750000e-01
2.500000e-01
1.250000e-01
0.000000e+00
1.000000e+00
8.750000e-01
7.500000e-01
6.250000e-01
4.784707e-01
3.750000e-01
2.500000e-01
1.250000e-01
0.000000e+00
1.000000e+00
8.750000e-01
7.500000e-01
6.250000e-01
4.787164e-01
3.750000e-01
2.500000e-01
1.250000e-01
0.000000e+00
1.000000e+00
8.750000e-01
7.500000e-01
6.250000e-01
5.124539e-01
3.750000e-01
2.500000e-01
1.250000e-01
0.000000e+00
1.000000e+00
8.750000e-01
7.500000e-01
6.250000e-01
5.124797e-01
3.750000e-01
2.500000e-01
1.250000e-01
0.000000e+00
1.000000e+00
8.750000e-01
7.500000e-01
6.250000e-01
5.100277e-01
3.750000e-01
2.500000e-01
1.250000e-01
0.000000e+00
1.000000e+00
8.750000e-01
7.500000e-01
6.250000e-01
5.049958e-01
3.750000e-01
2.500000e-01
1.250000e-01
0.000000e+00
1.000000e+00
8.750000e-01
7.500000e-01
6.250000e-01
4.982631e-01
3.750000e-01
2.500000e-01
1.250000e-01
0.000000e+00
1.000000e+00
8.750000e-01
7.500000e-01
6.250000e-01
4.915348e-01
3.750000e-01
2.500000e-01
1.250000e-01
0.000000e+00
1.000000e+00
8.750000e-01
7.500000e-01
6.250000e-01
4.865213e-01
3.750000e-01
2.500000e-01
1.250000e-01
0.000000e+00
1.000000e+00
8.750000e-01
7.500000e-01
6.250000e-01
4.841121e-01
3.750000e-01
2.500000e-01
1.250000e-01
0.000000e+00
1.000000e+00
8.750000e-01
7.500000e-01
6.250000e-01
4.842119e-01
3.750000e-01
2.500000e-01
1.250000e-01
0.000000e+00
1.000000e+00
8.750000e-01
7.500000e-01
6.250000e-01
5.182333e-01
3.750000e-01
2.500000e-01
1.250000e-01
0.000000e+00
1.000000e+00
8.750000e-01
7.500000e-01
6.250000e-01
5.184647e-01
3.750000e-01
2.500000e-01
1.250000e-01
0.000000e+00
1.000000e+00
8.750000e-01
7.500000e-01
6.250000e-01
5.162039e-01
3.750000e-01
2.500000e-01
1.250000e-01
0.000000e+00
1.000000e+00
8.750000e-01
7.500000e-01
6.250000e-01
5.113491e-01
3.750000e-01
2.500000e-01
1.250000e-01
0.000000e+00
1.000000e+00
8.750000e-01
7.500000e-01
6.250000e-01
5.047494e-01
3.750000e-01
2.500000e-01
1.250000e-01
0.000000e+00
1.000000e+00
8.750000e-01
7.500000e-01
6.250000e-01
4.980521e-01
3.750000e-01
2.500000e-01
1.250000e-01
0.000000e+00
1.000000e+00
8.750000e-01
7.500000e-01
6.250000e-01
4.929216e-01
3.750000e-01
2.500000e-01
1.250000e-01
0.000000e+00
1.000000e+00
8.750000e-01
7.500000e-01
6.250000e-01
4.902507e-01
3.750000e-01
2.500000e-01
1.250000e-01
0.000000e+00
1.000000e+00
8.750000e-01
7.500000e-01
6.250000e-01
4.899908e-01
3.750000e-01
2.500000e-01
1.250000e-01
0.000000e+00
1.000000e+00
8.750000e-01
7.500000e-01
6.250000e-01
5.231556e-01
3.750000e-01
2.500000e-01
1.250000e-01
0.000000e+00
1.000000e+00
8.750000e-01
7.500000e-01
6.250000e-01
5.232983e-01
3.750000e-01
2.500000e-01
1.250000e-01
0.000000e+00
1.000000e+00
8.750000e-01
7.500000e-01
6.250000e-01
5.210300e-01
3.750000e-01
2.500000e-01
1.250000e-01
0.000000e+00
1.000000e+00
8.750000e-01
7.500000e-01
6.250000e-01
5.163117e-01
3.750000e-01
2.500000e-01
1.250000e-01
0.000000e+00
1.000000e+00
8.750000e-01
7.500000e-01
6.250000e-01
5.099591e-01
3.750000e-01
2.500000e-01
1.250000e-01
0.000000e+00
1.000000e+00
8.750000e-01
7.500000e-01
6.250000e-01
5.034794e-01
3.750000e-01
2.500000e-01
1.250000e-01
0.000000e+00
1.000000e+00
8.750000e-01
7.500000e-01
6.250000e-01
4.983896e-01
3.750000e-01
2.500000e-01
1.250000e-01
0.000000e+00
1.000000e+00
8.750000e-01
7.500000e-01
6.250000e-01
4.955349e-01
3.750000e-01
2.500000e-01
1.250000e-01
0.000000e+00
1.000000e+00
8.750000e-01
7.500000e-01
6.250000e-01
4.949243e-01
3.750000e-01
2.500000e-01
1.250000e-01
0.000000e+00
1.000000e+00
8.750000e-01
7.500000e-01
6.250000e-01
5.264143e-01
3.750000e-01
2.500000e-01
1.250000e-01
0.000000e+00
1.000000e+00
8.750000e-01
7.500000e-01
6.250000e-01
5.261308e-01
3.750000e-01
2.500000e-01
1.250000e-01
0.000000e+00
1.000000e+00
8.750000e-01
7.500000e-01
6.250000e-01
5.236120e-01
3.750000e-01
2.500000e-01
1.250000e-01
0.000000e+00
1.000000e+00
8.750000e-01
7.500000e-01
6.250000e-01
5.189310e-01
3.750000e-01
2.500000e-01
1.250000e-01
0.000000e+00
1.000000e+00
8.750000e-01
7.500000e-01
6.250000e-01
5.128759e-01
3.750000e-01
2.500000e-01
1.250000e-01
0.000000e+00
1.000000e+00
8.750000e-01
7.500000e-01
6.250000e-01
5.067718e-01
3.750000e-01
2.500000e-01
1.250000e-01
0.000000e+00
1.000000e+00
8.750000e-01
7.500000e-01
6.250000e-01
5.019227e-01
3.750000e-01
2.500000e-01
1.250000e-01
0.000000e+00
1.000000e+00
8.750000e-01
7.500000e-01
6.250000e-01
4.990732e-01
3.750000e-01
2.500000e-01
1.250000e-01
0.000000e+00
1.000000e+00
8.750000e-01
7.500000e-01
6.250000e-01
4.982675e-01
3.750000e-01
2.500000e-01
1.250000e-01
0.000000e+00
1.000000e+00
8.750000e-01
7.500000e-01
6.250000e-01
5.277480e-01
3.750000e-01
2.500000e-01
1.250000e-01
0.000000e+00
1.000000e+00
8.750000e-01
7.500000e-01
6.250000e-01
5.268029e-01
3.750000e-01
2.500000e-01
1.250000e-01
0.000000e+00
1.000000e+00
8.750000e-01
7.500000e-01
6.250000e-01
5.238771e-01
3.750000e-01
2.500000e-01
1.250000e-01
0.000000e+00
1.000000e+00
8.750000e-01
7.500000e-01
6.250000e-01
5.191655e-01
3.750000e-01
2.500000e-01
1.250000e-01
0.000000e+00
1.000000e+00
8.750000e-01
7.500000e-01
6.250000e-01
5.134243e-01
3.750000e-01
2.500000e-01
1.250000e-01
0.000000e+00
1.000000e+00
8.750000e-01
7.500000e-01
6.250000e-01
5.077858e-01
3.750000e-01
2.500000e-01
1.250000e-01
0.000000e+00
1.000000e+00
8.750000e-01
7.500000e-01
6.250000e-01
5.033233e-01
3.750000e-01
2.500000e-01
1.250000e-01
0.000000e+00
1.000000e+00
8.750000e-01
7.500000e-01
6.250000e-01
5.006529e-01
3.750000e-01
2.500000e-01
1.250000e-01
0.000000e+00
1.000000e+00
8.750000e-01
7.500000e-01
6.250000e-01
4.998262e-01
3.750000e-01
2.500000e-01
1.250000e-01
0.000000e+00
        </DataArray>
        <DataArray type="Float32" Name="velocity" NumberOfComponents="3" format="ascii">
-1.692047e-01 1.688050e-01 -3.991634e-03
-1.694328e-01 1.692540e-01 -3.990027e-03
-1.435998e-01 1.436413e-01 -3.355333e-03
-9.091621e-02 9.116158e-02 -2.071331e-03
-1.568984e-02 1.611281e-02 -2.407863e-04
5.450792e-02 -5.398981e-02 1.470640e-03
1.008404e-01 -1.003263e-01 2.606195e-03
1.272454e-01 -1.267987e-01 3.259989e-03
1.394710e-01 -1.391278e-01 3.569369e-03
1.583636e-01 -2.170405e-01 5.370731e-01
1.743660e-01 -2.027043e-01 5.377367e-01
1.621446e-01 -1.596965e-01 4.566002e-01
1.177522e-01 -8.807650e-02 2.897507e-01
4.687887e-02 7.519574e-03 5.142399e-02
-2.344750e-02 9.344182e-02 -1.714053e-01
-7.444140e-02 1.466321e-01 -3.190473e-01
-1.090931e-01 1.721636e-01 -4.034418e-01
-1.302963e-01 1.785847e-01 -4.420703e-01
3.492083e-01 -7.036391e-01 1.059141e+00
4.570771e-01 -6.229572e-01 1.072796e+00
4.814510e-01 -4.610143e-01 9.229544e-01
4.091519e-01 -2.173543e-01 5.992172e-01
2.498818e-01 9.355196e-02 1.269423e-01
7.086495e-02 3.604607e-01 -3.172146e-01
-7.959390e-02 5.125968e-01 -6.146903e-01
-1.971871e-01 5.753544e-01 -7.881115e-01
-2.853506e-01 5.759796e-01 -8.704205e-01
3.471356e-01 -1.182735e+00 1.446087e+00
6.351244e-01 -1.005047e+00 1.507825e+00
7.883269e-01 -7.069324e-01 1.337129e+00
7.788342e-01 -2.835765e-01 9.110165e-01
6.156115e-01 2.389734e-01 2.639065e-01
3.777267e-01 6.729585e-01 -3.576870e-01
1.349055e-01 9.061610e-01 -7.865225e-01
-8.825907e-02 9.863195e-01 -1.048829e+00
-2.801521e-01 9.615339e-01 -1.184331e+00
1.681823e-01 -1.502432e+00 1.597325e+00
7.064118e-01 -1.237672e+00 1.758647e+00
1.063582e+00 -8.371702e-01 1.640174e+00
1.195711e+00 -2.897410e-01 1.204080e+00
1.105262e+00 3.729682e-01 4.857929e-01
8.596620e-01 9.092047e-01 -2.308819e-01
5.346047e-01 1.184902e+00 -7.546056e-01
1.937338e-01 1.264726e+00 -1.099360e+00
-1.297487e-01 1.206943e+00 -1.299716e+00
-8.972023e-02 -1.532272e+00 1.480932e+00
7.182835e-01 -1.234014e+00 1.790920e+00
1.300411e+00 -8.139885e-01 1.797697e+00
1.603787e+00 -2.495023e-01 1.449639e+00
1.621639e+00 4.227474e-01 7.804094e-01
1.392325e+00 9.577197e-01 6.245300e-02
9.986712e-01 1.224537e+00 -5.071935e-01
5.406578e-01 1.290933e+00 -9.222303e-01
8.139718e-02 1.211452e+00 -1.196574e+00
-2.931334e-01 -1.243323e+00 1.160760e+00
7.376255e-01 -9.783042e-01 1.635448e+00
1.504138e+00 -6.352644e-01 1.810990e+00
1.944049e+00 -1.815417e-01 1.622826e+00
2.044835e+00 3.600121e-01 1.091536e+00
1.824914e+00 7.815067e-01 4.529665e-01
1.369880e+00 9.889433e-01 -1.179265e-01
8.161823e-01 1.032418e+00 -5.799803e-01
2.426252e-01 9.465094e-01 -9.236810e-01
-3.430147e-01 -6.943272e-01 7.414893e-01
8.229850e-01 -5.294704e-01 1.370950e+00
1.678978e+00 -3.449012e-01 1.713843e+00
2.176687e+00 -9.246889e-02 1.703296e+00
2.295903e+00 2.027912e-01 1.356475e+00
2.044981e+00 4.271234e-01 8.369221e-01
1.534348e+00 5.415213e-01 2.967144e-01
9.182671e-01 5.696944e-01 -1.933086e-01
2.778809e-01 4.973958e-01 -5.883231e-01
-2.073374e-01 -9.421075e-09 3.260633e-01
1.002422e+00 -3.176723e-08 1.096786e+00
1.834085e+00 -5.098383e-08 1.554615e+00
2.284873e+00 -6.091766e-08 1.695304e+00
2.324346e+00 -4.754498e-08 1.510121e+00
2.007667e+00 -7.504975e-08 1.111689e+00
1.453545e+00 -5.566398e-08 6.295093e-01
8.009587e-01 -3.883805e-08 1.395569e-01
1.836933e-01 -8.055747e-08 -2.888801e-01
2.446318e-01 -1.814963e-01 -5.086779e-01
2.290444e-01 -1.985772e-01 -5.096207e-01
1.808538e-01 -1.835080e-01 -4.331387e-01
1.001103e-01 -1.321868e-01 -2.753174e-01
-7.817860e-03 -5.090638e-02 -4.961880e-02
-1.048597e-01 2.942416e-02 1.615507e-01
-1.649904e-01 8.734185e-02 3.015990e-01
-1.940886e-01 1.262302e-01 3.818060e-01
-2.018197e-01 1.498004e-01 4.184958e-01
5.929678e-01 -6.044144e-01 3.195293e-02
5.957881e-01 -6.013023e-01 3.217025e-02
5.071741e-01 -5.066835e-01 2.749789e-02
3.230096e-01 -3.169858e-01 1.765989e-02
5.989438e-02 -4.896505e-02 3.283927e-03
-1.872786e-01 2.010739e-01 -1.008899e-02
-3.524835e-01 3.664047e-01 -1.887198e-02
-4.478884e-01 4.601364e-01 -2.393449e-02
-4.924613e-01 5.019154e-01 -2.623862e-02
7.939084e-01 -1.137516e+00 5.397436e-01
8.953304e-01 -1.053577e+00 5.640673e-01
8.439295e-01 -8.218453e-01 5.015797e-01
6.313193e-01 -4.377522e-01 3.447756e-01
2.758495e-01 6.825403e-02 1.024123e-01
-8.952698e-02 5.145156e-01 -1.304631e-01
-3.628124e-01 7.846468e-01 -2.903814e-01
-5.482528e-01 9.149570e-01 -3.883932e-01
-6.648408e-01 9.480855e-01 -4.384660e-01
7.836624e-01 -1.649101e+00 8.824686e-01
1.078232e+00 -1.452411e+00 9.816316e-01
1.161248e+00 -1.064195e+00 9.252340e-01
1.017720e+00 -4.793139e-01 6.917572e-01
6.636020e-01 2.563737e-01 2.937034e-01
2.341558e-01 8.795021e-01 -1.081296e-01
-1.401503e-01 1.231554e+00 -4.020734e-01
-4.382098e-01 1.375519e+00 -5.972548e-01
-6.668527e-01 1.381270e+00 -7.110823e-01
5.840375e-01 -1.949329e+00 9.546491e-01
1.142733e+00 -1.663015e+00 1.198201e+00
1.434557e+00 -1.162894e+00 1.233656e+00
1.444004e+00 -4.491254e-01 1.031550e+00
1.174498e+00 4.224433e-01 5.969266e-01
7.363699e-01 1.142996e+00 1.144728e-01
2.760368e-01 1.530058e+00 -2.755197e-01
-1.462679e-01 1.667997e+00 -5.669680e-01
-5.129145e-01 1.647422e+00 -7.652810e-01
3.140567e-01 -1.889197e+00 7.524914e-01
1.141329e+00 -1.585506e+00 1.189562e+00
1.657565e+00 -1.076234e+00 1.392217e+00
1.842131e+00 -3.695819e-01 1.321947e+00
1.690421e+00 4.762829e-01 9.745178e-01
1.271484e+00 1.168014e+00 5.087022e-01
7.428662e-01 1.530467e+00 7.036833e-02
2.063460e-01 1.647830e+00 -3.028496e-01
-2.960808e-01 1.619538e+00 -5.966409e-01
1.267410e-01 -1.449759e+00 3.743475e-01
1.151578e+00 -1.216146e+00 1.012574e+00
1.834351e+00 -8.119996e-01 1.406972e+00
2.147877e+00 -2.627651e-01 1.523130e+00
2.075487e+00 3.883186e-01 1.339538e+00
1.668942e+00 9.234540e-01 9.616024e-01
1.087751e+00 1.200301e+00 5.215805e-01
4.640610e-01 1.291094e+00 8.889496e-02
-1.339409e-01 1.278122e+00 -2.952877e-01
1.100170e-01 -7.523025e-01 -2.367410e-02
1.229867e+00 -6.478289e-01 7.590721e-01
1.974960e+00 -4.296449e-01 1.317925e+00
2.322146e+00 -1.342592e-01 1.607828e+00
2.255679e+00 2.019207e-01 1.602416e+00
1.821896e+00 4.858362e-01 1.340403e+00
1.199198e+00 6.392117e-01 9.303162e-01
5.316062e-01 6.920448e-01 4.735359e-01
-1.188280e-01 7.112512e-01 4.294550e-02
3.116356e-01 -3.358495e-08 -3.903553e-01
1.373434e+00 3.728772e-08 5.216420e-01
2.090598e+00 -3.632021e-08 1.180342e+00
2.369296e+00 -5.685071e-08 1.590553e+00
2.211929e+00 -5.889598e-08 1.726282e+00
1.732538e+00 -9.546171e-08 1.566750e+00
1.086304e+00 -7.895037e-08 1.203639e+00
4.138773e-01 -9.442793e-08 7.494089e-01
-1.864842e-01 -8.683248e-08 2.335905e-01
7.613701e-01 -3.973283e-01 -9.891926e-01
6.775658e-01 -5.072235e-01 -1.004653e+00
5.042141e-01 -5.252949e-01 -8.674062e-01
2.411042e-01 -4.383550e-01 -5.666348e-01
-9.558958e-02 -2.574821e-01 -1.255633e-01
-3.855957e-01 -5.768977e-02 2.900230e-01
-5.520892e-01 1.071786e-01 5.690985e-01
-6.221265e-01 2.335751e-01 7.325637e-01
-6.253255e-01 3.266441e-01 8.105003e-01
1.145591e+00 -8.534542e-01 -4.433538e-01
1.073174e+00 -9.387908e-01 -4.654116e-01
8.478737e-01 -8.665247e-01 -4.155953e-01
4.647182e-01 -6.295098e-01 -2.879115e-01
-4.523656e-02 -2.477443e-01 -8.888508e-02
-4.987658e-01 1.372228e-01 1.030797e-01
-7.772069e-01 4.187245e-01 2.354715e-01
-9.157769e-01 6.042687e-01 3.171276e-01
-9.566236e-01 7.158157e-01 3.593060e-01
1.380296e+00 -1.437434e+00 5.362360e-02
1.397742e+00 -1.423036e+00 5.950888e-02
1.199382e+00 -1.193941e+00 5.602474e-02
7.743567e-01 -7.400712e-01 4.170639e-02
1.535477e-01 -9.416792e-02 1.759379e-02
-4.336809e-01 5.061510e-01 -6.579543e-03
-8.273891e-01 8.988639e-01 -2.427654e-02
-1.058574e+00 1.120220e+00 -3.595309e-02
-1.168712e+00 1.215888e+00 -4.276897e-02
1.392137e+00 -1.998153e+00 3.561053e-01
1.596376e+00 -1.839676e+00 4.584001e-01
1.524738e+00 -1.429202e+00 4.819371e-01
1.158528e+00 -7.496900e-01 4.097493e-01
5.239084e-01 1.497881e-01 2.483647e-01
-1.371580e-01 9.414933e-01 6.604077e-02
-6.364884e-01 1.417909e+00 -8.564605e-02
-9.813664e-01 1.645851e+00 -1.999996e-01
-1.198834e+00 1.700970e+00 -2.782101e-01
1.198584e+00 -2.307737e+00 3.612892e-01
1.662833e+00 -2.031489e+00 6.442774e-01
1.793785e+00 -1.490925e+00 7.935103e-01
1.574384e+00 -6.714341e-01 7.848634e-01
1.016302e+00 3.695933e-01 6.166127e-01
3.433322e-01 1.257669e+00 3.720718e-01
-2.406534e-01 1.760217e+00 1.242407e-01
-7.078249e-01 1.971484e+00 -9.492144e-02
-1.058070e+00 1.986142e+00 -2.702576e-01
9.296900e-01 -2.192725e+00 9.275547e-02
1.650691e+00 -1.885127e+00 6.080663e-01
1.996460e+00 -1.336521e+00 9.582434e-01
1.947160e+00 -5.366250e-01 1.111798e+00
1.503909e+00 4.549236e-01 1.060187e+00
8.544132e-01 1.288293e+00 8.484785e-01
2.092541e-01 1.746843e+00 5.515089e-01
-3.639701e-01 1.924524e+00 2.392036e-01
-8.397835e-01 1.918984e+00 -4.618568e-02
7.425589e-01 -1.647636e+00 -3.015878e-01
1.641106e+00 -1.413364e+00 4.287609e-01
2.137401e+00 -9.838706e-01 9.841580e-01
2.210574e+00 -3.732628e-01 1.336751e+00
1.848403e+00 3.750150e-01 1.456822e+00
1.220474e+00 1.006418e+00 1.338624e+00
5.357655e-01 1.347654e+00 1.037173e+00
-1.135734e-01 1.482482e+00 6.599634e-01
-6.755468e-01 1.484950e+00 2.793258e-01
7.333146e-01 -8.502770e-01 -6.578596e-01
1.687681e+00 -7.376481e-01 2.058153e-01
2.227879e+00 -5.076345e-01 9.152619e-01
2.330342e+00 -1.841612e-01 1.428464e+00
1.982950e+00 1.958619e-01 1.710619e+00
1.344795e+00 5.197006e-01 1.691565e+00
6.383672e-01 6.991438e-01 1.410349e+00
-3.596466e-02 7.695211e-01 1.002683e+00
-6.383468e-01 7.828400e-01 5.659703e-01
9.274580e-01 1.612255e-08 -9.175218e-01
1.795070e+00 -7.045018e-09 3.396577e-02
2.292167e+00 -4.973872e-08 8.121250e-01
2.321182e+00 -7.833707e-09 1.399085e+00
1.890518e+00 -2.709182e-09 1.773053e+00
1.225973e+00 -1.008178e-07 1.827186e+00
5.170685e-01 -1.916777e-07 1.583780e+00
-1.356808e-01 -1.885848e-07 1.174314e+00
-6.794330e-01 -1.727917e-07 6.721540e-01
1.273468e+00 -4.241407e-01 -1.327812e+00
1.089292e+00 -7.132583e-01 -1.395959e+00
7.719407e-01 -8.546699e-01 -1.249164e+00
3.173509e-01 -8.208723e-01 -8.632213e-01
-2.458162e-01 -6.229909e-01 -2.691057e-01
-7.157266e-01 -3.523889e-01 3.049493e-01
-9.708870e-01 -8.741725e-02 7.040710e-01
-1.061736e+00 1.487479e-01 9.512339e-01
-1.040249e+00 3.473913e-01 1.081079e+00
1.690602e+00 -8.988438e-01 -7.553867e-01
1.506126e+00 -1.163779e+00 -8.511148e-01
1.119273e+00 -1.207701e+00 -8.110716e-01
5.245252e-01 -1.017380e+00 -6.158419e-01
-2.304579e-01 -6.121930e-01 -2.751263e-01
-8.753928e-01 -1.440719e-01 7.257259e-02
-1.245673e+00 2.470422e-01 3.297837e-01
-1.403836e+00 5.464224e-01 5.028795e-01
-1.420526e+00 7.665663e-01 6.061146e-01
1.971092e+00 -1.525583e+00 -2.511033e-01
1.850946e+00 -1.672677e+00 -3.289673e-01
1.470649e+00 -1.541232e+00 -3.501557e-01
8.124336e-01 -1.113505e+00 -3.012399e-01
-7.605743e-02 -4.196510e-01 -1.872008e-01
-8.699828e-01 2.783463e-01 -5.631242e-02
-1.359532e+00 7.848733e-01 5.404753e-02
-1.606116e+00 1.117631e+00 1.381214e-01
-1.681772e+00 1.312104e+00 1.961177e-01
2.030057e+00 -2.139055e+00 2.873435e-02
2.068034e+00 -2.106476e+00 5.510858e-02
1.789547e+00 -1.763321e+00 6.963413e-02
1.165058e+00 -1.080830e+00 7.036184e-02
2.409097e-01 -1.091436e-01 5.718577e-02
-6.389093e-01 7.923490e-01 3.681119e-02
-1.234256e+00 1.380773e+00 1.545333e-02
-1.586256e+00 1.708882e+00 -4.009377e-03
-1.756035e+00 1.846377e+00 -2.010127e-02
1.874588e+00 -2.482154e+00 -1.499332e-02
2.142195e+00 -2.289306e+00 2.176769e-01
2.041689e+00 -1.784628e+00 3.801190e-01
1.541590e+00 -9.400567e-01 4.667597e-01
6.781076e-01 1.875937e-01 4.678579e-01
-2.192285e-01 1.183930e+00 3.964903e-01
-8.943825e-01 1.787083e+00 2.808329e-01
-1.355236e+00 2.080062e+00 1.508425e-01
-1.641069e+00 2.155480e+00 2.757557e-02
1.622702e+00 -2.354050e+00 -3.255379e-01
2.121671e+00 -2.097602e+00 1.657056e-01
2.215372e+00 -1.564736e+00 5.512309e-01
1.870489e+00 -7.327797e-01 8.211944e-01
1.116119e+00 3.367308e-01 9.574243e-01
2.450552e-01 1.260350e+00 9.275509e-01
-4.807638e-01 1.797390e+00 7.622885e-01
-1.034094e+00 2.035166e+00 5.328498e-01
-1.430530e+00 2.071950e+00 2.887857e-01
1.431771e+00 -1.760950e+00 -7.202972e-01
2.084660e+00 -1.553679e+00 -3.878794e-03
2.315344e+00 -1.130238e+00 5.947519e-01
2.088433e+00 -4.963374e-01 1.067359e+00
1.421753e+00 3.046088e-01 1.375829e+00
5.857484e-01 9.928728e-01 1.435330e+00
-1.639572e-01 1.383425e+00 1.259957e+00
-7.764553e-01 1.552194e+00 9.583766e-01
-1.245255e+00 1.577507e+00 6.116731e-01
1.389205e+00 -8.976562e-01 -1.019381e+00
2.086810e+00 -8.006101e-01 -1.820983e-01
2.357011e+00 -5.741335e-01 5.548870e-01
2.167279e+00 -2.405901e-01 1.168185e+00
1.533347e+00 1.605985e-01 1.614232e+00
7.097576e-01 5.089096e-01 1.752461e+00
-4.329838e-02 7.099098e-01 1.586507e+00
-6.684486e-01 7.961803e-01 1.250969e+00
-1.168532e+00 8.225388e-01 8.476788e-01
1.510663e+00 -1.292345e-08 -1.161445e+00
2.136174e+00 -2.368768e-08 -2.836965e-01
2.369967e+00 -3.742215e-08 4.892138e-01
2.129252e+00 -5.463568e-08 1.136688e+00
1.444968e+00 -6.346114e-09 1.625769e+00
6.164959e-01 -7.030921e-08 1.811084e+00
-1.223808e-01 -1.257821e-07 1.672705e+00
-7.245136e-01 -1.636286e-07 1.340922e+00
-1.174071e+00 -1.992536e-07 9.026625e-01
1.628541e+00 -2.783223e-01 -1.424931e+00
1.351841e+00 -8.139009e-01 -1.601202e+00
9.224143e-01 -1.151065e+00 -1.521608e+00
3.303604e-01 -1.246736e+00 -1.146268e+00
-3.889806e-01 -1.106558e+00 -5.055061e-01
-9.745496e-01 -8.151974e-01 1.431424e-01
-1.279438e+00 -4.605228e-01 6.262162e-01
-1.372591e+00 -1.034240e-01 9.519343e-01
-1.317885e+00 2.273790e-01 1.147075e+00
2.039956e+00 -7.563931e-01 -7.963918e-01
1.759526e+00 -1.269993e+00 -1.038440e+00
1.248397e+00 -1.503102e+00 -1.095816e+00
5.065902e-01 -1.442309e+00 -9.425108e-01
-4.067606e-01 -1.095999e+00 -5.794412e-01
-1.168103e+00 -6.000720e-01 -1.638078e-01
-1.583974e+00 -1.147148e-01 1.814473e-01
-1.740416e+00 3.093053e-01 4.466357e-01
-1.730991e+00 6.630758e-01 6.332572e-01
2.344298e+00 -1.406461e+00 -2.628161e-01
2.099084e+00 -1.787932e+00 -5.109080e-01
1.573860e+00 -1.830334e+00 -6.493205e-01
7.528608e-01 -1.517176e+00 -6.583229e-01
-3.062532e-01 -8.663837e-01 -5.347422e-01
-1.221418e+00 -1.333372e-01 -3.425316e-01
-1.751284e+00 4.656058e-01 -1.399783e-01
-1.987251e+00 9.180454e-01 4.373936e-02
-2.022911e+00 1.236655e+00 1.935155e-01
2.451086e+00 -2.061785e+00 1.890281e-02
2.320599e+00 -2.227408e+00 -1.346395e-01
1.863377e+00 -2.029363e+00 -2.422476e-01
1.049487e+00 -1.435966e+00 -3.020827e-01
-6.600324e-02 -4.898819e-01 -3.061177e-01
-1.071042e+00 4.520015e-01 -2.621940e-01
-1.698787e+00 1.126293e+00 -1.883647e-01
-2.023357e+00 1.558153e+00 -1.041807e-01
-2.131702e+00 1.800387e+00 -2.399798e-02
2.350265e+00 -2.446321e+00 -4.708778e-02
2.402054e+00 -2.405200e+00 1.287612e-02
2.083774e+00 -2.008993e+00 6.111313e-02
1.362993e+00 -1.226464e+00 9.640059e-02
2.866252e-01 -1.086399e-01 1.163936e-01
-7.403709e-01 9.275037e-01 1.161209e-01
-1.435952e+00 1.601502e+00 9.802603e-02
-1.850289e+00 1.977728e+00 7.110541e-02
-2.050570e+00 2.133628e+00 4.163346e-02
2.138990e+00 -2.347905e+00 -3.796305e-01
2.379704e+00 -2.192535e+00 -4.744161e-02
2.222583e+00 -1.732324e+00 2.353779e-01
1.633512e+00 -9.393570e-01 4.651451e-01
6.510818e-01 1.288538e-01 6.287692e-01
-3.474678e-01 1.083488e+00 6.747679e-01
-1.080685e+00 1.671128e+00 6.059603e-01
-1.567095e+00 1.965602e+00 4.753260e-01
-1.854302e+00 2.055046e+00 3.194566e-01
1.948147e+00 -1.763030e+00 -7.698950e-01
2.321976e+00 -1.615302e+00 -2.048798e-01
2.285910e+00 -1.235614e+00 2.953737e-01
1.806966e+00 -6.241589e-01 7.286896e-01
9.146320e-01 1.765437e-01 1.061746e+00
-3.996965e-02 8.835066e-01 1.192453e+00
-7.830437e-01 1.304245e+00 1.108104e+00
-1.313797e+00 1.507165e+00 9.001044e-01
-1.660218e+00 1.562428e+00 6.383598e-01
1.860606e+00 -9.003202e-01 -1.029668e+00
2.281002e+00 -8.264540e-01 -3.457766e-01
2.290953e+00 -6.211776e-01 2.834544e-01
1.861510e+00 -2.997414e-01 8.447751e-01
1.020684e+00 1.021605e-01 1.297250e+00
9.772364e-02 4.580353e-01 1.492453e+00
-6.370228e-01 6.717766e-01 1.410354e+00
-1.174903e+00 7.725815e-01 1.166750e+00
-1.546356e+00 8.080886e-01 8.476861e-01
1.893681e+00 -1.298714e-07 -1.101286e+00
2.269372e+00 -1.134671e-07 -3.986611e-01
2.266018e+00 -5.718709e-08 2.521210e-01
1.819023e+00 -6.218511e-08 8.255903e-01
9.670089e-01 -9.508648e-08 1.295800e+00
6.158772e-02 -6.568601e-08 1.518807e+00
-6.525364e-01 -1.368287e-07 1.454708e+00
-1.167165e+00 -1.996427e-07 1.214550e+00
-1.505542e+00 -2.162015e-07 8.755606e-01
1.693350e+00 -5.534486e-02 -1.253731e+00
1.375711e+00 -8.539080e-01 -1.590670e+00
9.159090e-01 -1.405573e+00 -1.653580e+00
2.929279e-01 -1.658831e+00 -1.388101e+00
-4.519832e-01 -1.610925e+00 -8.214798e-01
-1.048951e+00 -1.322979e+00 -1.912440e-01
-1.351167e+00 -8.932127e-01 3.282744e-01
-1.432325e+00 -4.172095e-01 7.222869e-01
-1.354573e+00 4.837192e-02 9.937540e-01
2.038534e+00 -5.352655e-01 -5.630305e-01
1.728137e+00 -1.303238e+00 -1.004308e+00
1.189992e+00 -1.743353e+00 -1.237521e+00
4.320137e-01 -1.837075e+00 -1.227869e+00
-4.823885e-01 -1.586486e+00 -9.667112e-01
-1.235764e+00 -1.093481e+00 -5.792096e-01
-1.637092e+00 -5.334229e-01 -1.916163e-01
-1.775094e+00 4.585294e-03 1.532748e-01
-1.755234e+00 4.898483e-01 4.365055e-01
2.316162e+00 -1.193205e+00 4.629721e-03
2.020084e+00 -1.811960e+00 -4.719245e-01
1.460452e+00 -2.047308e+00 -8.085694e-01
6.250909e-01 -1.879985e+00 -9.782866e-01
-4.238581e-01 -1.318787e+00 -9.714392e-01
-1.314582e+00 -5.917728e-01 -8.133330e-01
-1.814591e+00 7.405234e-02 -5.637324e-01
-2.019531e+00 6.305010e-01 -2.893010e-01
-2.030157e+00 1.068073e+00 -3.172052e-02
2.439060e+00 -1.862507e+00 2.933529e-01
2.218106e+00 -2.238120e+00 -1.047230e-01
1.697411e+00 -2.211558e+00 -4.206036e-01
8.510418e-01 -1.749355e+00 -6.480337e-01
-2.584414e-01 -8.883442e-01 -7.717920e-01
-1.230489e+00 4.291510e-02 -7.595373e-01
-1.810365e+00 7.718992e-01 -6.339185e-01
-2.082629e+00 1.292796e+00 -4.530818e-01
-2.145166e+00 1.637814e+00 -2.577564e-01
2.393027e+00 -2.276239e+00 2.202974e-01
2.297588e+00 -2.403911e+00 3.015060e-02
1.872589e+00 -2.148626e+00 -1.318517e-01
1.086827e+00 -1.477645e+00 -2.638339e-01
-2.990149e-03 -4.347420e-01 -3.591510e-01
-9.964401e-01 5.843680e-01 -3.866056e-01
-1.627589e+00 1.297599e+00 -3.479682e-01
-1.963507e+00 1.741437e+00 -2.741305e-01
-2.088365e+00 1.976412e+00 -1.856159e-01
2.238187e+00 -2.218860e+00 -1.198676e-01
2.281415e+00 -2.185062e+00 -3.638092e-02
1.976351e+00 -1.828845e+00 3.836028e-02
1.289534e+00 -1.120376e+00 1.037592e-01
2.715118e-01 -1.117538e-01 1.555740e-01
-6.975525e-01 8.245047e-01 1.771715e-01
-1.353261e+00 1.435652e+00 1.664585e-01
-1.740778e+00 1.776572e+00 1.370138e-01
-1.927038e+00 1.920170e+00 9.880639e-02
2.074288e+00 -1.684953e+00 -5.097624e-01
2.221449e+00 -1.607451e+00 -1.879737e-01
2.014195e+00 -1.293111e+00 1.076501e-01
1.419381e+00 -7.354041e-01 3.764457e-01
4.803371e-01 2.697438e-02 5.980963e-01
-4.457810e-01 7.181354e-01 7.016106e-01
-1.103180e+00 1.151630e+00 6.729485e-01
-1.520629e+00 1.379701e+00 5.644706e-01
-1.749690e+00 1.463170e+00 4.184876e-01
1.967352e+00 -8.665958e-01 -7.613965e-01
2.160859e+00 -8.210982e-01 -3.108756e-01
2.001391e+00 -6.470974e-01 1.158526e-01
1.460112e+00 -3.516618e-01 5.107200e-01
5.776537e-01 3.458435e-02 8.459312e-01
-3.098485e-01 3.838799e-01 1.008813e+00
-9.540639e-01 6.022435e-01 9.779782e-01
-1.375752e+00 7.141743e-01 8.302602e-01
-1.624627e+00 7.584389e-01 6.233373e-01
1.934590e+00 -8.348567e-08 -8.134970e-01
2.115071e+00 -1.056433e-07 -3.438157e-01
1.960789e+00 -1.097395e-07 1.059632e-01
1.428757e+00 -8.597957e-08 5.151227e-01
5.632406e-01 -9.019420e-08 8.647119e-01
-2.975491e-01 -9.177086e-08 1.047668e+00
-9.200297e-01 -1.141964e-07 1.027143e+00
-1.326818e+00 -1.074562e-07 8.773013e-01
-1.561219e+00 -1.138383e-07 6.564940e-01
1.434170e+00 1.165468e-01 -8.863981e-01
1.142020e+00 -8.967180e-01 -1.400586e+00
7.488849e-01 -1.621937e+00 -1.648753e+00
2.242286e-01 -1.998611e+00 -1.562923e+00
-4.036464e-01 -2.019219e+00 -1.155768e+00
-8.976670e-01 -1.729525e+00 -6.213948e-01
-1.144916e+00 -1.233664e+00 -1.074216e-01
-1.203589e+00 -6.614877e-01 3.331410e-01
-1.117397e+00 -8.367513e-02 6.773397e-01
1.654940e+00 -3.796014e-01 -1.570524e-01
1.399548e+00 -1.335087e+00 -8.079771e-01
9.473525e-01 -1.930202e+00 -1.242875e+00
3.241251e-01 -2.139438e+00 -1.431890e+00