<?xml version="1.0"?>
<VTKFile type="StructuredGrid" version="0.1">
  <StructuredGrid WholeExtent="0 8 0 8 0 8">
    <Piece Extent="0 8 0 8 0 8">
      <PointData Scalars="temperature" Vectors="velocity">
        <DataArray type="Float32" Name="temperature" format="ascii">
1.000000e+00
8.750000e-01
7.500000e-01
6.250000e-01
5.000030e-01
3.750000e-01
2.500000e-01
1.250000e-01
0.000000e+00
1.000000e+00
8.750000e-01
7.500000e-01
6.250000e-01
4.988291e-01
3.750000e-01
2.500000e-01
1.250000e-01
0.000000e+00
1.000000e+00
8.750000e-01
7.500000e-01
6.250000e-01
4.958411e-01
3.750000e-01
2.500000e-01
1.250000e-01
0.000000e+00
1.000000e+00
8.750000e-01
7.500000e-01
6.250000e-01
4.911596e-01
3.750000e-01
2.500000e-01
1.250000e-01
0.000000e+00
1.000000e+00
8.750000e-01
7.500000e-01
6.250000e-01
4.854627e-01
3.750000e-01
2.500000e-01
1.250000e-01
0.000000e+00
1.000000e+00
8.750000e-01
7.500000e-01
6.250000e-01
4.798501e-01
3.750000e-01
2.500000e-01
1.250000e-01
0.000000e+00
1.000000e+00
8.750000e-01
7.500000e-01
6.250000e-01
4.754310e-01
3.750000e-01
2.500000e-01
1.250000e-01
0.000000e+00
1.000000e+00
8.750000e-01
7.500000e-01
6.250000e-01
4.729005e-01
3.750000e-01
2.500000e-01
1.250000e-01
0.000000e+00
1.000000e+00
8.750000e-01
7.500000e-01
6.250000e-01
4.723834e-01
3.750000e-01
2.500000e-01
1.250000e-01
0.000000e+00
1.000000e+00
8.750000e-01
7.500000e-01
6.250000e-01
5.012159e-01
3.750000e-01
2.500000e-01
1.250000e-01
0.000000e+00
1.000000e+00
8.750000e-01
7.500000e-01
6.250000e-01
5.001640e-01
3.750000e-01
2.500000e-01
1.250000e-01
0.000000e+00
1.000000e+00
8.750000e-01
7.500000e-01
6.250000e-01
4.971203e-01
3.750000e-01
2.500000e-01
1.250000e-01
0.000000e+00
1.000000e+00
8.750000e-01
7.500000e-01
6.250000e-01
4.921915e-01
3.750000e-01
2.500000e-01
1.250000e-01
0.000000e+00
1.000000e+00
8.750000e-01
7.500000e-01
6.250000e-01
4.861711e-01
3.750000e-01
2.500000e-01
1.250000e-01
0.000000e+00
1.000000e+00
8.750000e-01
7.500000e-01
6.250000e-01
4.803694e-01
3.750000e-01
2.500000e-01
1.250000e-01
0.000000e+00
1.000000e+00
8.750000e-01
7.500000e-01
6.250000e-01
4.760679e-01
3.750000e-01
2.500000e-01
1.250000e-01
0.000000e+00
1.000000e+00
8.750000e-01
7.500000e-01
6.250000e-01
4.739824e-01
3.750000e-01
2.500000e-01
1.250000e-01
0.000000e+00
1.000000e+00
8.750000e-01
7.500000e-01
6.250000e-01
4.741173e-01
3.750000e-01
2.500000e-01
1.250000e-01
0.000000e+00
1.000000e+00
8.750000e-01
7.500000e-01
6.250000e-01
5.042427e-01
3.750000e-01
2.500000e-01
1.250000e-01
0.000000e+00
1.000000e+00
8.750000e-01
7.500000e-01
6.250000e-01
5.035095e-01
3.750000e-01
2.500000e-01
1.250000e-01
0.000000e+00
1.000000e+00
8.750000e-01
7.500000e-01
6.250000e-01
5.006085e-01
3.750000e-01
2.500000e-01
1.250000e-01
0.000000e+00
1.000000e+00
8.750000e-01
7.500000e-01
6.250000e-01
4.955975e-01
3.750000e-01
2.500000e-01
1.250000e-01
0.000000e+00
1.000000e+00
8.750000e-01
7.500000e-01
6.250000e-01
4.893465e-01
3.750000e-01
2.500000e-01
1.250000e-01
0.000000e+00
1.000000e+00
8.750000e-01
7.500000e-01
6.250000e-01
4.833522e-01
3.750000e-01
2.500000e-01
1.250000e-01
0.000000e+00
1.000000e+00
8.750000e-01
7.500000e-01
6.250000e-01
4.790601e-01
3.750000e-01
2.500000e-01
1.250000e-01
0.000000e+00
1.000000e+00
8.750000e-01
7.500000e-01
6.250000e-01
4.772121e-01
3.750000e-01
2.500000e-01
1.250000e-01
0.000000e+00
1.000000e+00
8.750000e-01
7.500000e-01
6.250000e-01
4.777151e-01
3.750000e-01
2.500000e-01
1.250000e-01
0.000000e+00
1.000000e+00
8.750000e-01
7.500000e-01
6.250000e-01
5.089582e-01
3.750000e-01
2.500000e-01
1.250000e-01
0.000000e+00
1.000000e+00
8.750000e-01
7.500000e-01
6.250000e-01
5.087153e-01
3.750000e-01
2.500000e-01
1.250000e-01
0.000000e+00
1.000000e+00
8.750000e-01
7.500000e-01
6.250000e-01
5.061568e-01
3.750000e-01
2.500000e-01
1.250000e-01
0.000000e+00
1.000000e+00
8.750000e-01
7.500000e-01
6.250000e-01
5.012589e-01
3.750000e-01
2.500000e-01
1.250000e-01
0.000000e+00
1.000000e+00
8.750000e-01
7.500000e-01
6.250000e-01
4.949077e-01
3.750000e-01
2.500000e-01
1.250000e-01
0.000000e+00
1.000000e+00
8.750000e-01
7.500000e-01
6.250000e-01
4.887201e-01
3.750000e-01
2.500000e-01
1.250000e-01
0.000000e+00
1.000000e+00
8.750000e-01
7.500000e-01
6.250000e-01
4.842738e-01
3.750000e-01
2.500000e-01
1.250000e-01
0.000000e+00
1.000000e+00
8.750000e-01
7.500000e-01
6.250000e-01
4.823589e-01
3.750000e-01
2.500000e-01
1.250000e-01
0.000000e+00
1.000000e+00
8.750000e-01
7.500000e-01
6.250000e-01
4.828452e-01
3.750000e-01
2.500000e-01
1.250000e-01
0.000000e+00
1.000000e+00
8.750000e-01
7.500000e-01
6.250000e-01
5.146795e-01
3.750000e-01
2.500000e-01
1.250000e-01
0.000000e+00
1.000000e+00
8.750000e-01
7.500000e-01
6.250000e-01
5.149387e-01
3.750000e-01
2.500000e-01
1.250000e-01
0.000000e+00
1.000000e+00
8.750000e-01
7.500000e-01
6.250000e-01
5.127873e-01
3.750000e-01
2.500000e-01
1.250000e-01
0.000000e+00
1.000000e+00
8.750000e-01
7.500000e-01
6.250000e-01
5.081239e-01
3.750000e-01
2.500000e-01
1.250000e-01
0.000000e+00
1.000000e+00
8.750000e-01
7.500000e-01
6.250000e-01
5.017983e-01
3.750000e-01
2.500000e-01
1.250000e-01
0.000000e+00
1.000000e+00
8.750000e-01
7.500000e-01
6.250000e-01
4.954563e-01
3.750000e-01
2.500000e-01
1.250000e-01
0.000000e+00
1.000000e+00
8.750000e-01
7.500000e-01
6.250000e-01
4.907425e-01
3.750000e-01
2.500000e-01
1.250000e-01
0.000000e+00
1.000000e+00
8.750000e-01
7.500000e-01
6.250000e-01
4.885059e-01
3.750000e-01
2.500000e-01
1.250000e-01
0.000000e+00
1.000000e+00
8.750000e-01
7.500000e-01
6.250000e-01
4.886484e-01
3.750000e-01
2.500000e-01
1.250000e-01
0.000000e+00
1.000000e+00
8.750000e-01
7.500000e-01
6.250000e-01
5.203040e-01
3.750000e-01
2.500000e-01
1.250000e-01
0.000000e+00
1.000000e+00
8.750000e-01
7.500000e-01
6.250000e-01
5.208344e-01
3.750000e-01
2.500000e-01
1.250000e-01
0.000000e+00
1.000000e+00
8.750000e-01
7.500000e-01
6.250000e-01
5.189294e-01
3.750000e-01
2.500000e-01
1.250000e-01
0.000000e+00
1.000000e+00
8.750000e-01
7.500000e-01
6.250000e-01
5.144663e-01
3.750000e-01
2.500000e-01
1.250000e-01
0.000000e+00
1.000000e+00
8.750000e-01
7.500000e-01
6.250000e-01
5.082472e-01
3.750000e-01
2.500000e-01
1.250000e-01
0.000000e+00
1.000000e+00
8.750000e-01
7.500000e-01
6.250000e-01
5.018586e-01
3.750000e-01
2.500000e-01
1.250000e-01
0.000000e+00
1.000000e+00
8.750000e-01
7.500000e-01
6.250000e-01
4.969163e-01
3.750000e-01
2.500000e-01
1.250000e-01
0.000000e+00
1.000000e+00
8.750000e-01
7.500000e-01
6.250000e-01
4.942986e-01
3.750000e-01
2.500000e-01
1.250000e-01
0.000000e+00
1.000000e+00
8.750000e-01
7.500000e-01
6.250000e-01
4.939753e-01
3.750000e-01
2.500000e-01
1.250000e-01
0.000000e+00
1.000000e+00
8.750000e-01
7.500000e-01
6.250000e-01
5.247232e-01
3.750000e-01
2.500000e-01
1.250000e-01
0.000000e+00
1.000000e+00
8.750000e-01
7.500000e-01
6.250000e-01
5.251165e-01
3.750000e-01
2.500000e-01
1.250000e-01
0.000000e+00
1.000000e+00
8.750000e-01
7.500000e-01
6.250000e-01
5.231350e-01
3.750000e-01
2.500000e-01
1.250000e-01
0.000000e+00
1.000000e+00
8.750000e-01
7.500000e-01
6.250000e-01
5.187164e-01
3.750000e-01
2.500000e-01
1.250000e-01
0.000000e+00
1.000000e+00
8.750000e-01
7.500000e-01
6.250000e-01
5.126372e-01
3.750000e-01
2.500000e-01
1.250000e-01
0.000000e+00
1.000000e+00
8.750000e-01
7.500000e-01
6.250000e-01
5.063611e-01
3.750000e-01
2.500000e-01
1.250000e-01
0.000000e+00
1.000000e+00
8.750000e-01
7.500000e-01
6.250000e-01
5.013762e-01
3.750000e-01
2.500000e-01
1.250000e-01
0.000000e+00
1.000000e+00
8.750000e-01
7.500000e-01
6.250000e-01
4.985249e-01
3.750000e-01
2.500000e-01
1.250000e-01
0.000000e+00
1.000000e+00
8.750000e-01
7.500000e-01
6.250000e-01
4.978354e-01
3.750000e-01
2.500000e-01
1.250000e-01
0.000000e+00
1.000000e+00
8.750000e-01
7.500000e-01
6.250000e-01
5.272447e-01
3.750000e-01
2.500000e-01
1.250000e-01
0.000000e+00
1.000000e+00
8.750000e-01
7.500000e-01
6.250000e-01
5.270947e-01
3.750000e-01
2.500000e-01
1.250000e-01
0.000000e+00
1.000000e+00
8.750000e-01
7.500000e-01
6.250000e-01
5.247241e-01
3.750000e-01
2.500000e-01
1.250000e-01
0.000000e+00
1.000000e+00
8.750000e-01
7.500000e-01
6.250000e-01
5.201931e-01
3.750000e-01
2.500000e-01
1.250000e-01
0.000000e+00
1.000000e+00
8.750000e-01
7.500000e-01
6.250000e-01
5.142704e-01
3.750000e-01
2.500000e-01
1.250000e-01
0.000000e+00
1.000000e+00
8.750000e-01
7.500000e-01
6.250000e-01
5.082613e-01
3.750000e-01
2.500000e-01
1.250000e-01
0.000000e+00
1.000000e+00
8.750000e-01
7.500000e-01
6.250000e-01
5.034579e-01
3.750000e-01
2.500000e-01
1.250000e-01
0.000000e+00
1.000000e+00
8.750000e-01
7.500000e-01
6.250000e-01
5.006048e-01
3.750000e-01
2.500000e-01
1.250000e-01
0.000000e+00
1.000000e+00
8.750000e-01
7.500000e-01
6.250000e-01
4.997555e-01
3.750000e-01
2.500000e-01
1.250000e-01
0.000000e+00
1.000000e+00
8.750000e-01
7.500000e-01
6.250000e-01
5.277480e-01
3.750000e-01
2.500000e-01
1.250000e-01
0.000000e+00
1.000000e+00
8.750000e-01
7.500000e-01
6.250000e-01
5.268029e-01
3.750000e-01
2.500000e-01
1.250000e-01
0.000000e+00
1.000000e+00
8.750000e-01
7.500000e-01
6.250000e-01
5.238771e-01
3.750000e-01
2.500000e-01
1.250000e-01
0.000000e+00
1.000000e+00
8.750000e-01
7.500000e-01
6.250000e-01
5.191655e-01
3.750000e-01
2.500000e-01
1.250000e-01
0.000000e+00
1.000000e+00
8.750000e-01
7.500000e-01
6.250000e-01
5.134243e-01
3.750000e-01
2.500000e-01
1.250000e-01
0.000000e+00
1.000000e+00
8.750000e-01
7.500000e-01
6.250000e-01
5.077858e-01
3.750000e-01
2.500000e-01
1.250000e-01
0.000000e+00
1.000000e+00
8.750000e-01
7.500000e-01
6.250000e-01
5.033233e-01
3.750000e-01
2.500000e-01
1.250000e-01
0.000000e+00
1.000000e+00
8.750000e-01
7.500000e-01
6.250000e-01
5.006529e-01
3.750000e-01
2.500000e-01
1.250000e-01
0.000000e+00
1.000000e+00
8.750000e-01
7.500000e-01
6.250000e-01
4.998262e-01
3.750000e-01
2.500000e-01
1.250000e-01
0.000000e+00
        </DataArray>
        <DataArray type="Float32" Name="velocity" NumberOfComponents="3" format="ascii">
-1.692047e-01 1.688050e-01 -3.991583e-03
-1.694328e-01 1.692540e-01 -3.989955e-03
-1.435998e-01 1.436413e-01 -3.355275e-03
-9.091622e-02 9.116159e-02 -2.071244e-03
-1.568981e-02 1.611280e-02 -2.407045e-04
5.450796e-02 -5.398984e-02 1.470710e-03
1.008404e-01 -1.003264e-01 2.606269e-03
1.272455e-01 -1.267987e-01 3.260074e-03
1.394711e-01 -1.391279e-01 3.569482e-03
-4.617903e-01 6.185123e-01 4.827585e-01
-5.054999e-01 5.804428e-01 4.888516e-01
-4.665701e-01 4.593253e-01 4.206114e-01
-3.371422e-01 2.546053e-01 2.730948e-01
-1.305833e-01 -1.907376e-02 5.889585e-02
7.469782e-02 -2.638127e-01 -1.429668e-01
2.230741e-01 -4.144866e-01 -2.781959e-01
3.213320e-01 -4.884748e-01 -3.572370e-01
3.806345e-01 -5.092637e-01 -3.947488e-01
-6.054555e-01 1.137361e+00 9.063278e-01
-7.687152e-01 1.013853e+00 9.435493e-01
-7.929924e-01 7.560546e-01 8.356939e-01
-6.600399e-01 3.627417e-01 5.694729e-01
-3.854798e-01 -1.405212e-01 1.652906e-01
-8.149295e-02 -5.731637e-01 -2.221309e-01
1.685422e-01 -8.216068e-01 -4.889577e-01
3.590877e-01 -9.265694e-01 -6.516769e-01
4.982403e-01 -9.324229e-01 -7.354378e-01
-5.646921e-01 1.602704e+00 1.155738e+00
-9.271557e-01 1.373574e+00 1.271744e+00
-1.098815e+00 9.762306e-01 1.186731e+00
-1.046697e+00 4.047859e-01 8.727037e-01
-7.846750e-01 -3.035402e-01 3.556466e-01
-4.309816e-01 -8.943039e-01 -1.608165e-01
-8.848315e-02 -1.215657e+00 -5.362391e-01
2.131698e-01 -1.331022e+00 -7.836318e-01
4.646512e-01 -1.305358e+00 -9.275577e-01
-3.771986e-01 1.859954e+00 1.154208e+00
-9.911028e-01 1.547793e+00 1.406348e+00
-1.367479e+00 1.060709e+00 1.422992e+00
-1.458936e+00 3.862531e-01 1.160282e+00
-1.272691e+00 -4.341688e-01 6.408692e-01
-9.132358e-01 -1.102160e+00 8.246675e-02
-4.895268e-01 -1.451092e+00 -3.639286e-01
-7.043677e-02 -1.559080e+00 -6.904217e-01
3.131568e-01 -1.498358e+00 -9.085182e-01
-1.510893e-01 1.793042e+00 9.062515e-01
-1.013569e+00 1.460882e+00 1.338385e+00
-1.594009e+00 9.786147e-01 1.522037e+00
-1.838457e+00 3.218083e-01 1.399717e+00
-1.745647e+00 -4.650781e-01 9.890298e-01
-1.394773e+00 -1.095839e+00 4.749858e-01
-9.038663e-01 -1.416630e+00 3.521312e-03
-3.747648e-01 -1.504317e+00 -3.901265e-01
1.352586e-01 -1.423026e+00 -6.900826e-01
-1.064636e-02 1.398203e+00 5.072155e-01
-1.057107e+00 1.115733e+00 1.119570e+00
-1.784069e+00 7.375795e-01 1.494256e+00
-2.131060e+00 2.300518e-01 1.562045e+00
-2.092831e+00 -3.794672e-01 1.325069e+00
-1.736430e+00 -8.584197e-01 9.190989e-01
-1.186414e+00 -1.099232e+00 4.607257e-01
-5.738969e-01 -1.157194e+00 2.420493e-02
3.310122e-02 -1.071730e+00 -3.481892e-01
-3.319256e-02 7.583319e-01 7.580456e-02
-1.167258e+00 5.883908e-01 8.390798e-01
-1.939619e+00 3.908356e-01 1.378325e+00
-2.305738e+00 1.165693e-01 1.626198e+00
-2.253861e+00 -2.062731e-01 1.580661e+00
-1.850757e+00 -4.543950e-01 1.299975e+00
-1.249388e+00 -5.839838e-01 8.780552e-01
-5.908271e-01 -6.196441e-01 4.190808e-01
6.176705e-02 -5.487901e-01 -9.361735e-04
-2.287821e-01 1.528044e-08 -2.920232e-01
-1.358772e+00 6.296399e-08 5.919124e-01
-2.069077e+00 1.015215e-07 1.221831e+00
-2.354733e+00 1.169746e-07 1.596568e+00
-2.197100e+00 1.049382e-07 1.690640e+00
-1.719381e+00 1.427716e-07 1.520297e+00
-1.082323e+00 1.058190e-07 1.155517e+00
-4.040791e-01 6.614299e-08 7.017993e-01
2.050736e-01 1.061534e-07 2.617611e-01
-5.952669e-01 4.325991e-01 -5.265689e-01
-5.560588e-01 4.783411e-01 -5.324530e-01
-4.378347e-01 4.454678e-01 -4.571795e-01
-2.401051e-01 3.259921e-01 -2.957084e-01
2.312552e-02 1.324726e-01 -6.180383e-02
2.577849e-01 -6.127066e-02 1.583652e-01
4.014474e-01 -2.026457e-01 3.056198e-01
4.711342e-01 -2.975341e-01 3.914294e-01
4.894647e-01 -3.558317e-01 4.321164e-01
-9.297593e-01 9.083854e-01 -3.647670e-02
-9.247561e-01 9.147520e-01 -3.761121e-02
-7.789463e-01 7.802669e-01 -3.294763e-02
-4.871054e-01 4.989600e-01 -2.200780e-02
-7.415345e-02 9.528162e-02 -5.494885e-03
3.106325e-01 -2.842927e-01 1.015211e-02
5.641248e-01 -5.377906e-01 2.072332e-02
7.075864e-01 -6.845724e-01 2.709100e-02
7.715734e-01 -7.538422e-01 3.024823e-02
-1.109513e+00 1.467657e+00 3.817687e-01
-1.216864e+00 1.378069e+00 4.195311e-01
-1.120658e+00 1.091695e+00 3.908641e-01
-8.118259e-01 6.017731e-01 2.889851e-01
-3.156338e-01 -5.243442e-02 1.175581e-01
1.842737e-01 -6.344148e-01 -5.374061e-02
5.484532e-01 -9.918501e-01 -1.771933e-01
7.876287e-01 -1.170366e+00 -2.581812e-01
9.307082e-01 -1.224027e+00 -3.044281e-01
-1.088432e+00 1.965613e+00 6.030329e-01
-1.392812e+00 1.756169e+00 7.410468e-01
-1.434424e+00 1.310128e+00 7.548147e-01
-1.198651e+00 6.204466e-01 6.236057e-01
-7.082605e-01 -2.576130e-01 3.515840e-01
-1.464907e-01 -1.008737e+00 5.400166e-02
3.187418e-01 -1.440878e+00 -1.829967e-01
6.719397e-01 -1.626745e+00 -3.565550e-01
9.292778e-01 -1.648605e+00 -4.722957e-01
-9.050680e-01 2.211064e+00 5.473102e-01
-1.459975e+00 1.914635e+00 8.586184e-01
-1.697751e+00 1.365847e+00 1.002817e+00
-1.604293e+00 5.648622e-01 9.534356e-01
-1.190557e+00 -4.248732e-01 7.027864e-01
-6.170355e-01 -1.251843e+00 3.692989e-01
-6.762176e-02 -1.705355e+00 5.711664e-02
4.049355e-01 -1.878318e+00 -2.088351e-01
7.941891e-01 -1.872092e+00 -4.162599e-01
-6.807345e-01 2.070371e+00 2.475471e-01
-1.472492e+00 1.764602e+00 7.725838e-01
-1.905641e+00 1.224220e+00 1.112467e+00
-1.961094e+00 4.579550e-01 1.232333e+00
-1.644030e+00 -4.700400e-01 1.113904e+00
-1.080478e+00 -1.237522e+00 8.319865e-01
-4.664666e-01 -1.648824e+00 4.886747e-01
1.093533e-01 -1.793344e+00 1.453014e-01
6.196962e-01 -1.778766e+00 -1.622237e-01
-5.533037e-01 1.548972e+00 -1.701670e-01
-1.500111e+00 1.320507e+00 5.583698e-01
-2.062148e+00 9.023672e-01 1.097730e+00
-2.212926e+00 3.224491e-01 1.417822e+00
-1.947481e+00 -3.742316e-01 1.481537e+00
-1.385129e+00 -9.535651e-01 1.305020e+00
-7.238273e-01 -1.260110e+00 9.706498e-01
-7.588087e-02 -1.369418e+00 5.730700e-01
5.100111e-01 -1.368246e+00 1.773248e-01
-5.855602e-01 7.881567e-01 -5.448014e-01
-1.586678e+00 6.895377e-01 3.128362e-01
-2.175438e+00 4.683297e-01 1.001480e+00
-2.330273e+00 1.619667e-01 1.482271e+00
-2.048654e+00 -1.901191e-01 1.715890e+00
-1.451166e+00 -4.905134e-01 1.651212e+00
-7.557861e-01 -6.568586e-01 1.349260e+00
-7.977187e-02 -7.186719e-01 9.344901e-01
5.395192e-01 -7.448333e-01 4.991378e-01
-8.115146e-01 7.047563e-08 -8.337210e-01
-1.721470e+00 4.741065e-08 1.168293e-01
-2.258036e+00 7.199585e-08 8.760815e-01
-2.325184e+00 1.021515e-07 1.442248e+00
-1.940903e+00 7.984540e-08 1.781685e+00
-1.300019e+00 7.524987e-08 1.804233e+00
-5.925317e-01 3.762913e-08 1.548132e+00
7.390370e-02 5.490596e-08 1.143320e+00
6.254296e-01 6.555727e-08 6.425439e-01
-1.086137e+00 5.434896e-01 -9.898468e-01
-9.618178e-01 7.117822e-01 -1.025630e+00
-7.118257e-01 7.496385e-01 -9.033322e-01
-3.346981e-01 6.382794e-01 -6.099294e-01
1.455614e-01 3.914103e-01 -1.682777e-01
5.564480e-01 1.117429e-01 2.536869e-01
7.901870e-01 -1.236898e-01 5.429986e-01
8.865134e-01 -3.073552e-01 7.181381e-01
8.878153e-01 -4.446202e-01 8.075162e-01
-1.469891e+00 1.033767e+00 -4.792374e-01
-1.362388e+00 1.166239e+00 -5.232417e-01
-1.063635e+00 1.099644e+00 -4.846969e-01
-5.673785e-01 8.235054e-01 -3.547930e-01
8.736000e-02 3.607853e-01 -1.393199e-01
6.641743e-01 -1.157351e-01 7.477366e-02
1.012701e+00 -4.719650e-01 2.282336e-01
1.180753e+00 -7.137578e-01 3.281660e-01
1.223678e+00 -8.659243e-01 3.845998e-01
-1.702912e+00 1.632344e+00 -4.720022e-02
-1.685037e+00 1.655275e+00 -5.708665e-02
-1.413619e+00 1.422707e+00 -5.743005e-02
-8.759411e-01 9.211429e-01 -4.654350e-02
-1.102985e-01 1.864383e-01 -2.522187e-02
6.008751e-01 -5.090647e-01 -2.399857e-03
1.065402e+00 -9.756200e-01 1.564966e-02
1.326866e+00 -1.250058e+00 2.866159e-02
1.439414e+00 -1.381242e+00 3.723551e-02
-1.725644e+00 2.179378e+00 1.677530e-01
-1.883460e+00 2.052100e+00 2.678888e-01
-1.729015e+00 1.636082e+00 3.173073e-01
-1.242521e+00 9.104655e-01 3.025749e-01
-4.574819e-01 -7.205157e-02 2.262502e-01
3.293870e-01 -9.517455e-01 1.235033e-01
8.977706e-01 -1.495528e+00 2.477036e-02
1.269157e+00 -1.770915e+00 -5.893554e-02
1.484208e+00 -1.857225e+00 -1.230987e-01
-1.564950e+00 2.447996e+00 8.539151e-02
-1.956493e+00 2.201188e+00 3.814960e-01
-1.981320e+00 1.659574e+00 5.796246e-01
-1.621625e+00 8.058812e-01 6.612112e-01
-8.981322e-01 -3.000274e-01 6.177277e-01
-9.348812e-02 -1.258342e+00 4.851199e-01
5.556344e-01 -1.816019e+00 3.072357e-01
1.039856e+00 -2.067385e+00 1.241497e-01
1.375966e+00 -2.109336e+00 -3.925682e-02
-1.345480e+00 2.279081e+00 -2.399727e-01
-1.955648e+00 1.999763e+00 2.951812e-01
-2.161576e+00 1.457462e+00 7.073374e-01
-1.943134e+00 6.396700e-01 9.714898e-01
-1.312221e+00 -3.922358e-01 1.071062e+00
-5.226076e-01 -1.272464e+00 9.937650e-01
1.818675e-01 -1.770485e+00 7.798945e-01
7.582541e-01 -1.978949e+00 5.094633e-01
1.202443e+00 -1.996079e+00 2.364944e-01
-1.203207e+00 1.686028e+00 -6.403885e-01
-1.951675e+00 1.475064e+00 1.019415e-01
-2.274470e+00 1.055771e+00 7.153412e-01
-2.150199e+00 4.410582e-01 1.178667e+00
-1.580421e+00 -3.254792e-01 1.453528e+00
-8.060255e-01 -9.810707e-01 1.476199e+00
-6.974133e-02 -1.345363e+00 1.264445e+00
5.669903e-01 -1.500114e+00 9.348431e-01
1.078780e+00 -1.518527e+00 5.719813e-01
-1.213621e+00 8.600453e-01 -9.530876e-01
-1.988657e+00 7.601165e-01 -9.839464e-02
-2.331152e+00 5.383191e-01 6.478343e-01
-2.218855e+00 2.163284e-01 1.251783e+00
-1.654770e+00 -1.678592e-01 1.671164e+00
-8.716794e-01 -4.991788e-01 1.782278e+00
-1.235168e-01 -6.884236e-01 1.590890e+00
5.240570e-01 -7.683787e-01 1.237891e+00
1.059965e+00 -7.888754e-01 8.270449e-01
-1.392587e+00 1.210571e-07 -1.130371e+00
-2.067354e+00 1.173643e-07 -2.250665e-01
-2.357606e+00 6.786242e-08 5.601762e-01
-2.171486e+00 1.360760e-08 1.203370e+00
-1.531673e+00 5.372401e-11 1.678785e+00
-7.321915e-01 1.556949e-08 1.845346e+00
7.487487e-03 5.351997e-08 1.689301e+00
6.231069e-01 2.205079e-08 1.342470e+00
1.092483e+00 3.116361e-08 8.867744e-01
-1.517921e+00 4.656276e-01 -1.284207e+00
-1.290961e+00 8.383309e-01 -1.394751e+00
-9.091669e-01 1.033387e+00 -1.284964e+00
-3.658298e-01 1.016636e+00 -9.278340e-01
3.042805e-01 7.990316e-01 -3.530186e-01
8.599702e-01 4.836970e-01 2.157258e-01
1.158619e+00 1.636266e-01 6.243101e-01
1.261598e+00 -1.281258e-01 8.891137e-01
1.230335e+00 -3.776964e-01 1.039998e+00
-1.930950e+00 9.517814e-01 -7.226888e-01
-1.703665e+00 1.298250e+00 -8.702409e-01
-1.251376e+00 1.390810e+00 -8.732568e-01
-5.675447e-01 1.212949e+00 -7.083203e-01
2.940678e-01 7.832160e-01 -3.820239e-01
1.024190e+00 2.650040e-01 -3.128834e-02
1.436893e+00 -1.839863e-01 2.436670e-01
1.606234e+00 -5.397031e-01 4.417793e-01
1.614367e+00 -8.111354e-01 5.709518e-01
-2.212128e+00 1.578224e+00 -2.472286e-01
-2.039917e+00 1.803895e+00 -3.831980e-01
-1.588431e+00 1.718584e+00 -4.467941e-01
-8.375491e-01 1.301613e+00 -4.207347e-01
1.582908e-01 5.819160e-01 -3.082962e-01
1.035807e+00 -1.657776e-01 -1.610080e-01
1.564500e+00 -7.287132e-01 -2.202377e-02
1.818275e+00 -1.116245e+00 9.456221e-02
1.880702e+00 -1.359342e+00 1.834302e-01
-2.286757e+00 2.177034e+00 -8.926302e-03
-2.251771e+00 2.218816e+00 -4.284945e-02
-1.885199e+00 1.921153e+00 -6.551511e-02
-1.155778e+00 1.252005e+00 -7.499204e-02
-1.169122e-01 2.608471e-01 -7.057037e-02
8.468080e-01 -6.830798e-01 -5.597182e-02
1.475675e+00 -1.321950e+00 -3.617966e-02
1.826143e+00 -1.699796e+00 -1.549223e-02
1.972826e+00 -1.882179e+00 3.373842e-03
-2.166249e+00 2.495674e+00 -9.221318e-02
-2.327075e+00 2.370832e+00 7.894155e-02
-2.110295e+00 1.910841e+00 2.094009e-01
-1.482365e+00 1.085162e+00 2.981808e-01
-4.886443e-01 -5.075441e-02 3.355853e-01
4.966079e-01 -1.076590e+00 3.170546e-01
1.198156e+00 -1.719714e+00 2.548238e-01
1.644204e+00 -2.054628e+00 1.724956e-01
1.891406e+00 -2.169138e+00 8.793300e-02
-1.956640e+00 2.344758e+00 -4.207978e-01
-2.309347e+00 2.145105e+00 3.356057e-03
-2.253214e+00 1.653004e+00 3.559782e-01
-1.753638e+00 8.435971e-01 6.323700e-01
-8.499033e-01 -2.230167e-01 8.140971e-01
1.139261e-01 -1.161810e+00 8.476769e-01
8.576996e-01 -1.725924e+00 7.447097e-01
1.380735e+00 -1.995027e+00 5.696714e-01
1.719928e+00 -2.062402e+00 3.692391e-01
-1.792737e+00 1.741642e+00 -8.008190e-01
-2.266245e+00 1.573796e+00 -1.646223e-01
-2.319695e+00 1.181788e+00 3.907974e-01
-1.917167e+00 5.685988e-01 8.615000e-01
-1.088905e+00 -2.238642e-01 1.209981e+00
-1.591964e-01 -9.161743e-01 1.332353e+00
5.988679e-01 -1.321777e+00 1.222791e+00
1.165743e+00 -1.509992e+00 9.815614e-01
1.560678e+00 -1.554799e+00 6.856884e-01
-1.745029e+00 8.830767e-01 -1.057255e+00
-2.245899e+00 8.046066e-01 -3.177052e-01
-2.326138e+00 5.957848e-01 3.565396e-01
-1.954815e+00 2.750583e-01 9.485929e-01
-1.160249e+00 -1.195499e-01 1.416407e+00
-2.508208e-01 -4.670700e-01 1.606584e+00
5.000025e-01 -6.739156e-01 1.505586e+00
1.068419e+00 -7.692278e-01 1.236000e+00
1.482339e+00 -8.031506e-01 8.909644e-01
-1.822441e+00 1.051932e-07 -1.135659e+00
-2.254360e+00 1.064957e-07 -3.821582e-01
-2.301626e+00 8.433078e-08 3.059847e-01
-1.892537e+00 3.609185e-08 9.072403e-01
-1.067498e+00 -5.278180e-08 1.391763e+00
-1.676950e-01 5.102692e-10 1.614291e+00
5.589587e-01 -2.120444e-08 1.537411e+00
1.099007e+00 -4.481185e-08 1.276017e+00
1.463373e+00 -4.439231e-08 9.119048e-01
-1.737088e+00 2.385018e-01 -1.331873e+00
-1.433263e+00 8.701928e-01 -1.570915e+00
-9.723917e-01 1.281781e+00 -1.549254e+00
-3.406242e-01 1.424099e+00 -1.224750e+00
4.242619e-01 1.300232e+00 -6.252316e-01
1.042758e+00 9.937282e-01 4.155197e-03
1.361359e+00 5.997991e-01 4.937475e-01
1.454321e+00 1.927237e-01 8.412808e-01
1.388389e+00 -1.900276e-01 1.066006e+00
-2.121398e+00 7.091693e-01 -6.903286e-01
-1.815567e+00 1.323875e+00 -1.010960e+00
-1.275172e+00 1.633981e+00 -1.141180e+00
-5.007448e-01 1.623321e+00 -1.050540e+00
4.474000e-01 1.296927e+00 -7.348493e-01
1.232593e+00 7.862496e-01 -3.382168e-01
1.655544e+00 2.607245e-01 1.864753e-02
1.807983e+00 -2.149080e-01 3.130708e-01
1.788682e+00 -6.237284e-01 5.354099e-01
-2.407266e+00 1.346833e+00 -1.497487e-01
-2.126572e+00 1.831938e+00 -4.939034e-01
-1.568303e+00 1.954056e+00 -7.170955e-01
-7.164858e-01 1.694999e+00 -7.962103e-01
3.692913e-01 1.068669e+00 -7.230829e-01
1.297693e+00 3.247997e-01 -5.480406e-01
1.825343e+00 -3.121468e-01 -3.274270e-01
2.049677e+00 -8.157334e-01 -1.066669e-01
2.068749e+00 -1.188792e+00 8.714367e-02
-2.513252e+00 1.987827e+00 1.340083e-01
-2.325439e+00 2.254600e+00 -1.319388e-01
-1.819614e+00 2.136652e+00 -3.346985e-01
-9.672533e-01 1.600606e+00 -4.698092e-01
1.746986e-01 6.854762e-01 -5.244872e-01
1.185904e+00 -2.602855e-01 -4.924189e-01
1.800367e+00 -9.672203e-01 -3.928985e-01
2.101202e+00 -1.445933e+00 -2.629748e-01
2.181543e+00 -1.739542e+00 -1.298889e-01
-2.432804e+00 2.363344e+00 6.998425e-02
-2.393419e+00 2.413649e+00 3.158873e-03
-2.000420e+00 2.092435e+00 -5.313160e-02
-1.222693e+00 1.367132e+00 -9.785722e-02
-1.109480e-01 2.849522e-01 -1.280123e-01
9.200572e-01 -7.469998e-01 -1.350542e-01
1.591167e+00 -1.445397e+00 -1.197597e-01
1.966211e+00 -1.860923e+00 -9.252037e-02
2.122116e+00 -2.061257e+00 -6.086173e-02
-2.249907e+00 2.269074e+00 -2.530163e-01
-2.362489e+00 2.186726e+00 -6.098764e-02
-2.100866e+00 1.789084e+00 1.071463e-01
-1.432976e+00 1.046656e+00 2.503305e-01
-4.022279e-01 1.343314e-02 3.606298e-01
6.004281e-01 -9.312716e-01 4.018406e-01
1.298312e+00 -1.534036e+00 3.717667e-01
1.729275e+00 -1.857319e+00 3.022809e-01
1.954072e+00 -1.980392e+00 2.152865e-01
-2.073355e+00 1.703783e+00 -6.231078e-01
-2.291212e+00 1.603660e+00 -2.105116e-01
-2.128801e+00 1.267928e+00 1.638487e-01
-1.555608e+00 6.933145e-01 5.000545e-01
-6.081924e-01 -8.009979e-02 7.716931e-01
3.482745e-01 -7.758883e-01 8.941544e-01
1.045895e+00 -1.204248e+00 8.504080e-01
1.506924e+00 -1.424425e+00 7.087447e-01
1.776311e+00 -1.499934e+00 5.226017e-01
-1.970742e+00 8.700759e-01 -8.551138e-01
-2.224325e+00 8.171747e-01 -3.326660e-01
-2.101560e+00 6.347185e-01 1.582920e-01
-1.576971e+00 3.328501e-01 6.095883e-01
-6.858490e-01 -5.540915e-02 9.879136e-01
2.296803e-01 -4.045479e-01 1.167374e+00
9.094598e-01 -6.209143e-01 1.124934e+00
1.369031e+00 -7.295627e-01 9.508550e-01
1.654076e+00 -7.721046e-01 7.123634e-01
-1.955535e+00 1.489486e-07 -8.934773e-01
-2.173854e+00 1.209405e-07 -3.643035e-01
-2.046019e+00 6.339103e-08 1.376462e-01
-1.520632e+00 1.698433e-08 5.899108e-01
-6.399278e-01 -4.196674e-09 9.735460e-01
2.444032e-01 -5.033336e-08 1.171981e+00
8.963013e-01 -6.834169e-08 1.144138e+00
1.330398e+00 -7.655304e-08 9.747797e-01
1.586381e+00 -8.705653e-08 7.248121e-01
-1.631919e+00 -2.524460e-02 -1.132485e+00
-1.316846e+00 8.641396e-01 -1.540743e+00
-8.730951e-01 1.492192e+00 -1.670701e+00
-2.743445e-01 1.802771e+00 -1.467164e+00
4.394635e-01 1.789583e+00 -9.540706e-01
1.007084e+00 1.504907e+00 -3.515736e-01
1.291139e+00 1.049854e+00 1.714441e-01
1.362643e+00 5.336482e-01 5.878318e-01
1.278001e+00 2.236412e-02 8.922688e-01
-1.916576e+00 4.385842e-01 -4.155842e-01
-1.616392e+00 1.304643e+00 -9.452645e-01
-1.104654e+00 1.827321e+00 -1.264144e+00
-3.906655e-01 1.985434e+00 -1.333196e+00
4.665991e-01 1.776697e+00 -1.137777e+00
1.170009e+00 1.291078e+00 -7.834602e-01
1.540469e+00 7.065184e-01 -3.906385e-01
1.662884e+00 1.268359e-01 -1.714067e-02
1.639019e+00 -4.077111e-01 3.043269e-01
-2.144045e+00 1.080021e+00 1.800816e-01
-1.853756e+00 1.801266e+00 -4.067509e-01
-1.324546e+00 2.123807e+00 -8.470015e-01
-5.459919e-01 2.027038e+00 -1.111094e+00
4.232476e-01 1.514899e+00 -1.182449e+00
1.241388e+00 8.007062e-01 -1.062908e+00
1.695022e+00 1.128562e-01 -8.052853e-01
1.874734e+00 -4.851055e-01 -4.954331e-01
1.875258e+00 -9.723438e-01 -1.901444e-01
-2.237482e+00 1.738376e+00 4.961791e-01
-2.005913e+00 2.214608e+00 -3.415145e-02
-1.507363e+00 2.275588e+00 -4.717156e-01
-7.204533e-01 1.886703e+00 -8.084918e-01
2.962543e-01 1.079994e+00 -1.021862e+00
1.178481e+00 1.672607e-01 -1.051576e+00
1.695474e+00 -5.794195e-01 -9.142125e-01
1.928642e+00 -1.138409e+00 -6.899245e-01
1.970766e+00 -1.530624e+00 -4.365679e-01
-2.188609e+00 2.153726e+00 4.478075e-01
-2.053968e+00 2.371519e+00 1.057850e-01
-1.631526e+00 2.196660e+00 -1.939051e-01
-8.954175e-01 1.595340e+00 -4.486612e-01
1.005048e-01 6.067845e-01 -6.431472e-01
9.941368e-01 -3.899013e-01 -7.152028e-01
1.547564e+00 -1.115095e+00 -6.607388e-01
1.828189e+00 -1.590667e+00 -5.355096e-01
1.917615e+00 -1.866228e+00 -3.792200e-01
-2.047343e+00 2.114884e+00 1.286254e-01
-2.018844e+00 2.151620e+00 4.550229e-02
-1.691626e+00 1.860367e+00 -3.038228e-02
-1.038524e+00 1.209965e+00 -9.848490e-02
-1.077838e-01 2.484043e-01 -1.543395e-01
7.571210e-01 -6.655918e-01 -1.798475e-01
1.322643e+00 -1.282940e+00 -1.718337e-01
1.639024e+00 -1.646818e+00 -1.439966e-01
1.773309e+00 -1.820648e+00 -1.065981e-01
-1.892967e+00 1.613660e+00 -2.444590e-01
-1.943181e+00 1.580916e+00 -9.806662e-02
-1.694648e+00 1.310656e+00 3.828840e-02
-1.120811e+00 7.928645e-01 1.648853e-01
-2.639723e-01 6.369308e-02 2.719656e-01
5.547163e-01 -6.098070e-01 3.248775e-01
1.112182e+00 -1.045787e+00 3.158272e-01
1.445446e+00 -1.287360e+00 2.685600e-01
1.609100e+00 -1.388576e+00 2.033430e-01
-1.776564e+00 8.326120e-01 -4.846019e-01
-1.862636e+00 8.063355e-01 -2.112842e-01
-1.655688e+00 6.544487e-01 5.104900e-02
-1.133517e+00 3.792523e-01 2.979002e-01
-3.355741e-01 8.372484e-03 5.123383e-01
4.380964e-01 -3.320948e-01 6.213577e-01
9.750805e-01 -5.509306e-01 6.097231e-01
1.305475e+00 -6.689199e-01 5.245181e-01
1.480694e+00 -7.190991e-01 4.008303e-01
-1.710224e+00 1.702867e-08 -5.288074e-01
-1.789971e+00 7.122036e-08 -2.368598e-01
-1.594158e+00 6.968866e-08 4.698495e-02
-1.093041e+00 5.277146e-08 3.076367e-01
-3.268184e-01 -2.895100e-10 5.349437e-01
4.110554e-01 -4.917928e-08 6.605449e-01
9.216616e-01 -6.807678e-08 6.566053e-01
1.235871e+00 -8.591167e-08 5.680476e-01
1.399431e+00 -1.106856e-07 4.327090e-01
-1.205244e+00 -1.952680e-01 -7.736203e-01
-9.488383e-01 8.865559e-01 -1.350952e+00
-6.206713e-01 1.671847e+00 -1.657585e+00
-1.847245e-01 2.097567e+00 -1.627133e+00
3.371934e-01 2.152486e+00 -1.269345e+00
7.420575e-01 1.872468e+00 -7.609578e-01
9.418342e-01 1.362273e+00 -2.454598e-01
9.836128e-01 7.626361e-01 2.139504e-01
8.973786e-01 1.519205e-01 5.876915e-01
-1.336982e+00 2.865386e-01 -2.120734e-02
-1.130833e+00 1.316001e+00 -7.463491e-01