<?xml version="1.0"?>
<VTKFile type="StructuredGrid" version="0.1">
  <StructuredGrid WholeExtent="0 8 0 8 0 8">
    <Piece Extent="0 8 0 8 0 8">
      <PointData Scalars="temperature" Vectors="velocity">
        <DataArray type="Float32" Name="temperature" format="ascii">
1.000000e+00
8.750000e-01
7.500000e-01
6.250000e-01
4.722520e-01
3.750000e-01
2.500000e-01
1.250000e-01
0.000000e+00
1.000000e+00
8.750000e-01
7.500000e-01
6.250000e-01
4.735857e-01
3.750000e-01
2.500000e-01
1.250000e-01
0.000000e+00
1.000000e+00
8.750000e-01
7.500000e-01
6.250000e-01
4.768444e-01
3.750000e-01
2.500000e-01
1.250000e-01
0.000000e+00
1.000000e+00
8.750000e-01
7.500000e-01
6.250000e-01
4.817667e-01
3.750000e-01
2.500000e-01
1.250000e-01
0.000000e+00
1.000000e+00
8.750000e-01
7.500000e-01
6.250000e-01
4.875461e-01
3.750000e-01
2.500000e-01
1.250000e-01
0.000000e+00
1.000000e+00
8.750000e-01
7.500000e-01
6.250000e-01
4.930420e-01
3.750000e-01
2.500000e-01
1.250000e-01
0.000000e+00
1.000000e+00
8.750000e-01
7.500000e-01
6.250000e-01
4.972207e-01
3.750000e-01
2.500000e-01
1.250000e-01
0.000000e+00
1.000000e+00
8.750000e-01
7.500000e-01
6.250000e-01
4.995353e-01
3.750000e-01
2.500000e-01
1.250000e-01
0.000000e+00
1.000000e+00
8.750000e-01
7.500000e-01
6.250000e-01
5.000030e-01
3.750000e-01
2.500000e-01
1.250000e-01
0.000000e+00
1.000000e+00
8.750000e-01
7.500000e-01
6.250000e-01
4.727553e-01
3.750000e-01
2.500000e-01
1.250000e-01
0.000000e+00
1.000000e+00
8.750000e-01
7.500000e-01
6.250000e-01
4.733683e-01
3.750000e-01
2.500000e-01
1.250000e-01
0.000000e+00
1.000000e+00
8.750000e-01
7.500000e-01
6.250000e-01
4.762010e-01
3.750000e-01
2.500000e-01
1.250000e-01
0.000000e+00
1.000000e+00
8.750000e-01
7.500000e-01
6.250000e-01
4.811197e-01
3.750000e-01
2.500000e-01
1.250000e-01
0.000000e+00
1.000000e+00
8.750000e-01
7.500000e-01
6.250000e-01
4.872824e-01
3.750000e-01
2.500000e-01
1.250000e-01
0.000000e+00
1.000000e+00
8.750000e-01
7.500000e-01
6.250000e-01
4.933447e-01
3.750000e-01
2.500000e-01
1.250000e-01
0.000000e+00
1.000000e+00
8.750000e-01
7.500000e-01
6.250000e-01
4.980291e-01
3.750000e-01
2.500000e-01
1.250000e-01
0.000000e+00
1.000000e+00
8.750000e-01
7.500000e-01
6.250000e-01
5.006480e-01
3.750000e-01
2.500000e-01
1.250000e-01
0.000000e+00
1.000000e+00
8.750000e-01
7.500000e-01
6.250000e-01
5.012159e-01
3.750000e-01
2.500000e-01
1.250000e-01
0.000000e+00
1.000000e+00
8.750000e-01
7.500000e-01
6.250000e-01
4.752768e-01
3.750000e-01
2.500000e-01
1.250000e-01
0.000000e+00
1.000000e+00
8.750000e-01
7.500000e-01
6.250000e-01
4.753675e-01
3.750000e-01
2.500000e-01
1.250000e-01
0.000000e+00
1.000000e+00
8.750000e-01
7.500000e-01
6.250000e-01
4.778916e-01
3.750000e-01
2.500000e-01
1.250000e-01
0.000000e+00
1.000000e+00
8.750000e-01
7.500000e-01
6.250000e-01
4.828434e-01
3.750000e-01
2.500000e-01
1.250000e-01
0.000000e+00
1.000000e+00
8.750000e-01
7.500000e-01
6.250000e-01
4.893586e-01
3.750000e-01
2.500000e-01
1.250000e-01
0.000000e+00
1.000000e+00
8.750000e-01
7.500000e-01
6.250000e-01
4.959014e-01
3.750000e-01
2.500000e-01
1.250000e-01
0.000000e+00
1.000000e+00
8.750000e-01
7.500000e-01
6.250000e-01
5.009625e-01
3.750000e-01
2.500000e-01
1.250000e-01
0.000000e+00
1.000000e+00
8.750000e-01
7.500000e-01
6.250000e-01
5.037323e-01
3.750000e-01
2.500000e-01
1.250000e-01
0.000000e+00
1.000000e+00
8.750000e-01
7.500000e-01
6.250000e-01
5.042427e-01
3.750000e-01
2.500000e-01
1.250000e-01
0.000000e+00
1.000000e+00
8.750000e-01
7.500000e-01
6.250000e-01
4.796960e-01
3.750000e-01
2.500000e-01
1.250000e-01
0.000000e+00
1.000000e+00
8.750000e-01
7.500000e-01
6.250000e-01
4.795901e-01
3.750000e-01
2.500000e-01
1.250000e-01
0.000000e+00
1.000000e+00
8.750000e-01
7.500000e-01
6.250000e-01
4.820259e-01
3.750000e-01
2.500000e-01
1.250000e-01
0.000000e+00
1.000000e+00
8.750000e-01
7.500000e-01
6.250000e-01
4.870824e-01
3.750000e-01
2.500000e-01
1.250000e-01
0.000000e+00
1.000000e+00
8.750000e-01
7.500000e-01
6.250000e-01
4.938744e-01
3.750000e-01
2.500000e-01
1.250000e-01
0.000000e+00
1.000000e+00
8.750000e-01
7.500000e-01
6.250000e-01
5.007221e-01
3.750000e-01
2.500000e-01
1.250000e-01
0.000000e+00
1.000000e+00
8.750000e-01
7.500000e-01
6.250000e-01
5.059487e-01
3.750000e-01
2.500000e-01
1.250000e-01
0.000000e+00
1.000000e+00
8.750000e-01
7.500000e-01
6.250000e-01
5.086711e-01
3.750000e-01
2.500000e-01
1.250000e-01
0.000000e+00
1.000000e+00
8.750000e-01
7.500000e-01
6.250000e-01
5.089582e-01
3.750000e-01
2.500000e-01
1.250000e-01
0.000000e+00
1.000000e+00
8.750000e-01
7.500000e-01
6.250000e-01
4.853205e-01
3.750000e-01
2.500000e-01
1.250000e-01
0.000000e+00
1.000000e+00
8.750000e-01
7.500000e-01
6.250000e-01
4.853340e-01
3.750000e-01
2.500000e-01
1.250000e-01
0.000000e+00
1.000000e+00
8.750000e-01
7.500000e-01
6.250000e-01
4.878862e-01
3.750000e-01
2.500000e-01
1.250000e-01
0.000000e+00
1.000000e+00
8.750000e-01
7.500000e-01
6.250000e-01
4.930750e-01
3.750000e-01
2.500000e-01
1.250000e-01
0.000000e+00
1.000000e+00
8.750000e-01
7.500000e-01
6.250000e-01
5.000000e-01
3.750000e-01
2.500000e-01
1.250000e-01
0.000000e+00
1.000000e+00
8.750000e-01
7.500000e-01
6.250000e-01
5.069250e-01
3.750000e-01
2.500000e-01
1.250000e-01
0.000000e+00
1.000000e+00
8.750000e-01
7.500000e-01
6.250000e-01
5.121138e-01
3.750000e-01
2.500000e-01
1.250000e-01
0.000000e+00
1.000000e+00
8.750000e-01
7.500000e-01
6.250000e-01
5.146660e-01
3.750000e-01
2.500000e-01
1.250000e-01
0.000000e+00
1.000000e+00
8.750000e-01
7.500000e-01
6.250000e-01
5.146795e-01
3.750000e-01
2.500000e-01
1.250000e-01
0.000000e+00
1.000000e+00
8.750000e-01
7.500000e-01
6.250000e-01
4.910418e-01
3.750000e-01
2.500000e-01
1.250000e-01
0.000000e+00
1.000000e+00
8.750000e-01
7.500000e-01
6.250000e-01
4.913289e-01
3.750000e-01
2.500000e-01
1.250000e-01
0.000000e+00
1.000000e+00
8.750000e-01
7.500000e-01
6.250000e-01
4.940513e-01
3.750000e-01
2.500000e-01
1.250000e-01
0.000000e+00
1.000000e+00
8.750000e-01
7.500000e-01
6.250000e-01
4.992779e-01
3.750000e-01
2.500000e-01
1.250000e-01
0.000000e+00
1.000000e+00
8.750000e-01
7.500000e-01
6.250000e-01
5.061256e-01
3.750000e-01
2.500000e-01
1.250000e-01
0.000000e+00
1.000000e+00
8.750000e-01
7.500000e-01
6.250000e-01
5.129176e-01
3.750000e-01
2.500000e-01
1.250000e-01
0.000000e+00
1.000000e+00
8.750000e-01
7.500000e-01
6.250000e-01
5.179741e-01
3.750000e-01
2.500000e-01
1.250000e-01
0.000000e+00
1.000000e+00
8.750000e-01
7.500000e-01
6.250000e-01
5.204099e-01
3.750000e-01
2.500000e-01
1.250000e-01
0.000000e+00
1.000000e+00
8.750000e-01
7.500000e-01
6.250000e-01
5.203040e-01
3.750000e-01
2.500000e-01
1.250000e-01
0.000000e+00
1.000000e+00
8.750000e-01
7.500000e-01
6.250000e-01
4.957573e-01
3.750000e-01
2.500000e-01
1.250000e-01
0.000000e+00
1.000000e+00
8.750000e-01
7.500000e-01
6.250000e-01
4.962677e-01
3.750000e-01
2.500000e-01
1.250000e-01
0.000000e+00
1.000000e+00
8.750000e-01
7.500000e-01
6.250000e-01
4.990375e-01
3.750000e-01
2.500000e-01
1.250000e-01
0.000000e+00
1.000000e+00
8.750000e-01
7.500000e-01
6.250000e-01
5.040986e-01
3.750000e-01
2.500000e-01
1.250000e-01
0.000000e+00
1.000000e+00
8.750000e-01
7.500000e-01
6.250000e-01
5.106414e-01
3.750000e-01
2.500000e-01
1.250000e-01
0.000000e+00
1.000000e+00
8.750000e-01
7.500000e-01
6.250000e-01
5.171566e-01
3.750000e-01
2.500000e-01
1.250000e-01
0.000000e+00
1.000000e+00
8.750000e-01
7.500000e-01
6.250000e-01
5.221084e-01
3.750000e-01
2.500000e-01
1.250000e-01
0.000000e+00
1.000000e+00
8.750000e-01
7.500000e-01
6.250000e-01
5.246325e-01
3.750000e-01
2.500000e-01
1.250000e-01
0.000000e+00
1.000000e+00
8.750000e-01
7.500000e-01
6.250000e-01
5.247232e-01
3.750000e-01
2.500000e-01
1.250000e-01
0.000000e+00
1.000000e+00
8.750000e-01
7.500000e-01
6.250000e-01
4.987841e-01
3.750000e-01
2.500000e-01
1.250000e-01
0.000000e+00
1.000000e+00
8.750000e-01
7.500000e-01
6.250000e-01
4.993520e-01
3.750000e-01
2.500000e-01
1.250000e-01
0.000000e+00
1.000000e+00
8.750000e-01
7.500000e-01
6.250000e-01
5.019709e-01
3.750000e-01
2.500000e-01
1.250000e-01
0.000000e+00
1.000000e+00
8.750000e-01
7.500000e-01
6.250000e-01
5.066553e-01
3.750000e-01
2.500000e-01
1.250000e-01
0.000000e+00
1.000000e+00
8.750000e-01
7.500000e-01
6.250000e-01
5.127176e-01
3.750000e-01
2.500000e-01
1.250000e-01
0.000000e+00
1.000000e+00
8.750000e-01
7.500000e-01
6.250000e-01
5.188803e-01
3.750000e-01
2.500000e-01
1.250000e-01
0.000000e+00
1.000000e+00
8.750000e-01
7.500000e-01
6.250000e-01
5.237990e-01
3.750000e-01
2.500000e-01
1.250000e-01
0.000000e+00
1.000000e+00
8.750000e-01
7.500000e-01
6.250000e-01
5.266317e-01
3.750000e-01
2.500000e-01
1.250000e-01
0.000000e+00
1.000000e+00
8.750000e-01
7.500000e-01
6.250000e-01
5.272447e-01
3.750000e-01
2.500000e-01
1.250000e-01
0.000000e+00
1.000000e+00
8.750000e-01
7.500000e-01
6.250000e-01
4.999970e-01
3.750000e-01
2.500000e-01
1.250000e-01
0.000000e+00
1.000000e+00
8.750000e-01
7.500000e-01
6.250000e-01
5.004647e-01
3.750000e-01
2.500000e-01
1.250000e-01
0.000000e+00
1.000000e+00
8.750000e-01
7.500000e-01
6.250000e-01
5.027793e-01
3.750000e-01
2.500000e-01
1.250000e-01
0.000000e+00
1.000000e+00
8.750000e-01
7.500000e-01
6.250000e-01
5.069580e-01
3.750000e-01
2.500000e-01
1.250000e-01
0.000000e+00
1.000000e+00
8.750000e-01
7.500000e-01
6.250000e-01
5.124539e-01
3.750000e-01
2.500000e-01
1.250000e-01
0.000000e+00
1.000000e+00
8.750000e-01
7.500000e-01
6.250000e-01
5.182333e-01
3.750000e-01
2.500000e-01
1.250000e-01
0.000000e+00
1.000000e+00
8.750000e-01
7.500000e-01
6.250000e-01
5.231556e-01
3.750000e-01
2.500000e-01
1.250000e-01
0.000000e+00
1.000000e+00
8.750000e-01
7.500000e-01
6.250000e-01
5.264143e-01
3.750000e-01
2.500000e-01
1.250000e-01
0.000000e+00
1.000000e+00
8.750000e-01
7.500000e-01
6.250000e-01
5.277480e-01
3.750000e-01
2.500000e-01
1.250000e-01
0.000000e+00
        </DataArray>
        <DataArray type="Float32" Name="velocity" NumberOfComponents="3" format="ascii">
2.189283e-01 -3.277785e-03 -6.114112e-03
1.787425e-01 -1.180250e+00 -8.373588e-01
1.177075e-01 -1.957083e+00 -1.385546e+00
3.474210e-02 -2.329983e+00 -1.647945e+00
-6.421011e-02 -2.274079e+00 -1.607108e+00
-1.450192e-01 -1.877798e+00 -1.325993e+00
-1.866070e-01 -1.280765e+00 -9.035458e-01
-1.994321e-01 -6.125747e-01 -4.312095e-01
-1.953067e-01 3.777419e-03 4.246204e-03
9.052884e-01 1.435322e-01 -4.349833e-01
7.062169e-01 -9.969529e-01 -1.115302e+00
4.638790e-01 -1.802820e+00 -1.543154e+00
1.317884e-01 -2.227409e+00 -1.648818e+00
-2.592142e-01 -2.255845e+00 -1.441078e+00
-5.624537e-01 -1.927916e+00 -1.035788e+00
-7.187440e-01 -1.374168e+00 -5.556665e-01
-7.612781e-01 -7.406736e-01 -8.567146e-02
-6.865485e-01 -9.855480e-02 3.133556e-01
1.434170e+00 1.165468e-01 -8.863980e-01
1.142019e+00 -8.967181e-01 -1.400585e+00
7.488848e-01 -1.621937e+00 -1.648753e+00
2.242285e-01 -1.998611e+00 -1.562923e+00
-4.036462e-01 -2.019219e+00 -1.155768e+00
-8.976669e-01 -1.729525e+00 -6.213949e-01
-1.144916e+00 -1.233664e+00 -1.074217e-01
-1.203589e+00 -6.614876e-01 3.331409e-01
-1.117397e+00 -8.367502e-02 6.773395e-01
1.693350e+00 -5.534495e-02 -1.253730e+00
1.375711e+00 -8.539080e-01 -1.590670e+00
9.159091e-01 -1.405573e+00 -1.653579e+00
2.929280e-01 -1.658831e+00 -1.388101e+00
-4.519832e-01 -1.610925e+00 -8.214797e-01
-1.048951e+00 -1.322979e+00 -1.912440e-01
-1.351166e+00 -8.932126e-01 3.282743e-01
-1.432324e+00 -4.172096e-01 7.222869e-01
-1.354573e+00 4.837201e-02 9.937538e-01
1.628541e+00 -2.783224e-01 -1.424931e+00
1.351841e+00 -8.139009e-01 -1.601202e+00
9.224144e-01 -1.151065e+00 -1.521608e+00
3.303605e-01 -1.246736e+00 -1.146268e+00
-3.889804e-01 -1.106558e+00 -5.055059e-01
-9.745495e-01 -8.151975e-01 1.431425e-01
-1.279438e+00 -4.605227e-01 6.262163e-01
-1.372591e+00 -1.034239e-01 9.519343e-01
-1.317885e+00 2.273789e-01 1.147075e+00
1.273468e+00 -4.241409e-01 -1.327812e+00
1.089292e+00 -7.132584e-01 -1.395959e+00
7.719409e-01 -8.546698e-01 -1.249164e+00
3.173511e-01 -8.208722e-01 -8.632211e-01
-2.458160e-01 -6.229909e-01 -2.691055e-01
-7.157264e-01 -3.523890e-01 3.049494e-01
-9.708869e-01 -8.741738e-02 7.040713e-01
-1.061736e+00 1.487478e-01 9.512341e-01
-1.040249e+00 3.473912e-01 1.081079e+00
7.613702e-01 -3.973284e-01 -9.891925e-01
6.775658e-01 -5.072234e-01 -1.004653e+00
5.042142e-01 -5.252949e-01 -8.674060e-01
2.411044e-01 -4.383551e-01 -5.666346e-01
-9.558942e-02 -2.574821e-01 -1.255632e-01
-3.855955e-01 -5.768982e-02 2.900232e-01
-5.520891e-01 1.071785e-01 5.690986e-01
-6.221264e-01 2.335750e-01 7.325638e-01
-6.253253e-01 3.266439e-01 8.105004e-01
2.446318e-01 -1.814963e-01 -5.086778e-01
2.290444e-01 -1.985772e-01 -5.096205e-01
1.808538e-01 -1.835080e-01 -4.331386e-01
1.001103e-01 -1.321868e-01 -2.753174e-01
-7.817769e-03 -5.090640e-02 -4.961870e-02
-1.048596e-01 2.942411e-02 1.615509e-01
-1.649903e-01 8.734179e-02 3.015992e-01
-1.940885e-01 1.262301e-01 3.818062e-01
-2.018196e-01 1.498003e-01 4.184961e-01
-1.692047e-01 1.688050e-01 -3.991583e-03
-1.694328e-01 1.692540e-01 -3.989955e-03
-1.435998e-01 1.436413e-01 -3.355275e-03
-9.091622e-02 9.116159e-02 -2.071244e-03
-1.568981e-02 1.611280e-02 -2.407045e-04
5.450796e-02 -5.398984e-02 1.470710e-03
1.008404e-01 -1.003264e-01 2.606269e-03
1.272455e-01 -1.267987e-01 3.260074e-03
1.394711e-01 -1.391279e-01 3.569482e-03
-5.453455e-01 1.896441e-01 -3.672147e-01
-4.092950e-01 -9.865018e-01 -1.085662e+00
-2.698604e-01 -1.824000e+00 -1.546696e+00
-7.600720e-02 -2.276354e+00 -1.685221e+00
1.499136e-01 -2.325612e+00 -1.507137e+00
3.179571e-01 -2.003948e+00 -1.116469e+00
4.049786e-01 -1.443696e+00 -6.354494e-01
4.258498e-01 -7.968760e-01 -1.552804e-01
3.568384e-01 -1.383942e-01 2.628459e-01
1.651525e-01 4.285666e-01 -7.934996e-01
1.311247e-01 -7.399152e-01 -1.474635e+00
8.420340e-02 -1.631976e+00 -1.792613e+00
2.126796e-02 -2.188023e+00 -1.757824e+00
-5.449397e-02 -2.360733e+00 -1.390677e+00
-1.139605e-01 -2.137575e+00 -8.177923e-01
-1.432284e-01 -1.636645e+00 -2.367589e-01
-1.510420e-01 -1.019369e+00 2.807018e-01
-1.427104e-01 -4.040453e-01 7.474596e-01
7.624985e-01 5.026265e-01 -1.331281e+00
6.125057e-01 -5.779507e-01 -1.852865e+00
3.929460e-01 -1.416093e+00 -1.989913e+00
1.053636e-01 -1.962875e+00 -1.741857e+00
-2.406103e-01 -2.170595e+00 -1.132935e+00
-5.126063e-01 -2.012146e+00 -3.883239e-01
-6.406377e-01 -1.577889e+00 2.587259e-01
-6.704079e-01 -1.022100e+00 7.762872e-01
-6.400697e-01 -4.524373e-01 1.184568e+00
1.138723e+00 3.696075e-01 -1.797048e+00
9.106070e-01 -4.997390e-01 -2.132702e+00
5.888444e-01 -1.168866e+00 -2.077082e+00
1.602833e-01 -1.598592e+00 -1.620902e+00
-3.518353e-01 -1.751919e+00 -8.083909e-01
-7.514220e-01 -1.608214e+00 6.589400e-02
-9.431234e-01 -1.249123e+00 7.441644e-01
-9.854477e-01 -7.964949e-01 1.224177e+00
-9.307247e-01 -3.340761e-01 1.557093e+00
1.166801e+00 1.222776e-01 -2.039876e+00
9.432202e-01 -4.595429e-01 -2.205930e+00
6.198760e-01 -8.883813e-01 -2.002439e+00
1.840903e-01 -1.138352e+00 -1.417683e+00
-3.396459e-01 -1.184047e+00 -4.997166e-01
-7.514693e-01 -1.036014e+00 4.148220e-01
-9.520145e-01 -7.614847e-01 1.068764e+00
-1.001546e+00 -4.384798e-01 1.488599e+00
-9.498299e-01 -1.196408e-01 1.735901e+00
8.616141e-01 -8.109740e-02 -1.966760e+00
7.102096e-01 -3.759537e-01 -2.020028e+00
4.808941e-01 -5.733558e-01 -1.755862e+00
1.637937e-01 -6.559398e-01 -1.158598e+00
-2.222083e-01 -6.151148e-01 -2.780189e-01
-5.302999e-01 -4.803188e-01 5.639250e-01
-6.861206e-01 -3.020836e-01 1.137128e+00
-7.306453e-01 -1.161532e-01 1.479132e+00
-6.999363e-01 5.651494e-02 1.653206e+00
3.561764e-01 -1.047228e-01 -1.604304e+00
3.029846e-01 -1.877920e-01 -1.611019e+00
2.136620e-01 -2.305378e-01 -1.370648e+00
8.561082e-02 -2.286181e-01 -8.726891e-01
-7.393968e-02 -1.799150e-01 -1.572995e-01
-2.047304e-01 -1.080263e-01 5.140975e-01
-2.738425e-01 -3.588382e-02 9.607886e-01
-2.979123e-01 2.902889e-02 1.218094e+00
-2.908748e-01 8.366144e-02 1.337550e+00
-1.716344e-01 8.601980e-02 -1.077149e+00
-1.524366e-01 1.121583e-01 -1.078562e+00
-1.132957e-01 1.178290e-01 -9.149236e-01
-5.353826e-02 1.006401e-01 -5.795251e-01
2.241616e-02 6.210095e-02 -1.016615e-01
8.706917e-02 1.775403e-02 3.459445e-01
1.238429e-01 -1.948565e-02 6.433360e-01
1.391927e-01 -4.837173e-02 8.137944e-01
1.397765e-01 -6.952138e-02 8.921550e-01
-5.952669e-01 4.325991e-01 -5.265689e-01
-5.560588e-01 4.783411e-01 -5.324530e-01
-4.378347e-01 4.454678e-01 -4.571795e-01
-2.401051e-01 3.259921e-01 -2.957084e-01
2.312552e-02 1.324726e-01 -6.180383e-02
2.577849e-01 -6.127066e-02 1.583652e-01
4.014474e-01 -2.026457e-01 3.056198e-01
4.711342e-01 -2.975341e-01 3.914294e-01
4.894647e-01 -3.558317e-01 4.321164e-01
-1.205244e+00 1.952681e-01 -7.736205e-01
-9.488383e-01 -8.865559e-01 -1.350952e+00
-6.206714e-01 -1.671847e+00 -1.657585e+00
-1.847246e-01 -2.097567e+00 -1.627133e+00
3.371934e-01 -2.152486e+00 -1.269345e+00
7.420576e-01 -1.872468e+00 -7.609579e-01
9.418343e-01 -1.362273e+00 -2.454597e-01
9.836130e-01 -7.626361e-01 2.139504e-01
8.973787e-01 -1.519205e-01 5.876915e-01
-5.259756e-01 5.465544e-01 -1.274046e+00
-4.258866e-01 -5.719448e-01 -1.826863e+00
-2.743881e-01 -1.443594e+00 -1.993104e+00
-7.809242e-02 -2.017847e+00 -1.773175e+00
1.594590e-01 -2.244782e+00 -1.189808e+00
3.465959e-01 -2.092379e+00 -4.586919e-01
4.328236e-01 -1.650240e+00 1.889664e-01
4.523868e-01 -1.079039e+00 7.158657e-01
4.345294e-01 -4.915944e-01 1.138471e+00
9.506269e-02 6.956847e-01 -1.875783e+00
7.317496e-02 -3.552721e-01 -2.302016e+00
4.482568e-02 -1.192770e+00 -2.291188e+00
7.762151e-03 -1.782041e+00 -1.838004e+00
-3.521868e-02 -2.074057e+00 -9.695479e-01
-6.824692e-02 -2.015396e+00 -1.516970e-02
-8.388273e-02 -1.655451e+00 7.393150e-01
-8.634358e-02 -1.154582e+00 1.298207e+00
-8.040102e-02 -6.255240e-01 1.686359e+00
5.336184e-01 5.969931e-01 -2.414513e+00
4.152077e-01 -2.411577e-01 -2.667780e+00
2.620247e-01 -9.118123e-01 -2.466922e+00
5.724473e-02 -1.391035e+00 -1.788742e+00
-1.800281e-01 -1.643362e+00 -6.816836e-01
-3.631351e-01 -1.612020e+00 4.407780e-01
-4.507257e-01 -1.338431e+00 1.258363e+00
-4.659544e-01 -9.480587e-01 1.799541e+00
-4.328263e-01 -5.300729e-01 2.124732e+00
6.346283e-01 3.257034e-01 -2.691517e+00
4.970704e-01 -1.941072e-01 -2.796313e+00
3.152097e-01 -6.037491e-01 -2.456059e+00
7.451552e-02 -8.880759e-01 -1.646143e+00
-2.078505e-01 -1.023374e+00 -4.204366e-01
-4.258272e-01 -9.858378e-01 7.631072e-01
-5.290095e-01 -8.033844e-01 1.575521e+00
-5.473422e-01 -5.536177e-01 2.072438e+00
-5.096145e-01 -2.914376e-01 2.329403e+00
3.722601e-01 7.121706e-02 -2.601589e+00
2.958770e-01 -1.230807e-01 -2.620734e+00
1.922601e-01 -2.704806e-01 -2.240690e+00
5.170991e-02 -3.613436e-01 -1.433626e+00
-1.139894e-01 -3.895502e-01 -2.574481e-01
-2.434984e-01 -3.539710e-01 8.510655e-01
-3.064405e-01 -2.715113e-01 1.590625e+00
-3.194280e-01 -1.694132e-01 2.020086e+00
-2.997830e-01 -6.708789e-02 2.219513e+00
-1.219858e-01 6.971338e-03 -2.182441e+00
-1.004712e-01 5.111655e-02 -2.186292e+00
-6.803800e-02 8.100454e-02 -1.856843e+00
-2.344028e-02 9.464956e-02 -1.177394e+00
3.016574e-02 9.094159e-02 -1.967066e-01
7.320728e-02 7.345550e-02 7.229771e-01
9.513633e-02 4.846452e-02 1.331986e+00
1.014068e-01 2.172588e-02 1.682636e+00
9.724382e-02 -3.180479e-03 1.842286e+00
-6.552119e-01 1.857901e-01 -1.590890e+00
-5.569676e-01 3.443284e-01 -1.612617e+00
-3.922943e-01 4.285125e-01 -1.384007e+00
-1.566625e-01 4.291683e-01 -8.951004e-01
1.349691e-01 3.436770e-01 -1.859288e-01
3.740586e-01 2.129742e-01 4.845002e-01
5.008318e-01 7.886586e-02 9.350883e-01
5.445356e-01 -4.315797e-02 1.198756e+00
5.315464e-01 -1.462145e-01 1.326273e+00
-1.086137e+00 5.434896e-01 -9.898468e-01
-9.618178e-01 7.117822e-01 -1.025630e+00
-7.118257e-01 7.496385e-01 -9.033322e-01
-3.346981e-01 6.382794e-01 -6.099294e-01
1.455614e-01 3.914103e-01 -1.682777e-01
5.564480e-01 1.117429e-01 2.536869e-01
7.901870e-01 -1.236898e-01 5.429986e-01
8.865134e-01 -3.073552e-01 7.181381e-01
8.878153e-01 -4.446202e-01 8.075162e-01
-1.631919e+00 2.524470e-02 -1.132486e+00
-1.316846e+00 -8.641396e-01 -1.540744e+00
-8.730953e-01 -1.492191e+00 -1.670702e+00
-2.743446e-01 -1.802771e+00 -1.467165e+00
4.394635e-01 -1.789583e+00 -9.540706e-01
1.007084e+00 -1.504907e+00 -3.515735e-01
1.291139e+00 -1.049855e+00 1.714442e-01
1.362643e+00 -5.336482e-01 5.878319e-01
1.278001e+00 -2.236417e-02 8.922690e-01
-1.043377e+00 4.380212e-01 -1.709173e+00
-8.352996e-01 -5.022841e-01 -2.094715e+00
-5.405779e-01 -1.231613e+00 -2.084416e+00
-1.488618e-01 -1.708420e+00 -1.671518e+00
3.182574e-01 -1.891807e+00 -8.985135e-01
6.824511e-01 -1.752945e+00 -4.419141e-02
8.562008e-01 -1.375361e+00 6.359087e-01
8.931749e-01 -8.919400e-01 1.131264e+00
8.437516e-01 -3.948973e-01 1.487915e+00
-4.395263e-01 6.367625e-01 -2.373621e+00
-3.443277e-01 -2.416434e-01 -2.649756e+00
-2.202487e-01 -9.460194e-01 -2.469346e+00
-5.266354e-02 -1.451644e+00 -1.811196e+00
1.416554e-01 -1.721222e+00 -7.218784e-01
2.924503e-01 -1.693173e+00 3.914979e-01
3.653186e-01 -1.409635e+00 1.209623e+00
3.787485e-01 -1.002373e+00 1.757846e+00
3.525688e-01 -5.652015e-01 2.093643e+00
2.874021e-02 5.540031e-01 -2.942093e+00
2.055127e-02 -1.017400e-01 -3.081231e+00
1.109516e-02 -6.333291e-01 -2.729616e+00
-4.278625e-04 -1.030570e+00 -1.846353e+00
-1.342535e-02 -1.266872e+00 -4.989181e-01
-2.269679e-02 -1.277488e+00 8.135751e-01
-2.648126e-02 -1.090608e+00 1.725638e+00
-2.635885e-02 -8.038110e-01 2.286870e+00
-2.339915e-02 -4.866070e-01 2.584088e+00
1.806500e-01 2.637226e-01 -3.210501e+00
1.385010e-01 -4.992746e-02 -3.244926e+00
8.371544e-02 -3.034177e-01 -2.785599e+00
1.547749e-02 -4.929942e-01 -1.788753e+00
-6.575004e-02 -6.046631e-01 -3.230663e-01
-1.264693e-01 -6.094178e-01 1.063961e+00
-1.533330e-01 -5.195959e-01 1.993984e+00
-1.571448e-01 -3.822426e-01 2.536680e+00
-1.444433e-01 -2.307459e-01 2.790592e+00
-4.158983e-02 -2.537501e-02 -3.065163e+00
-3.371402e-02 1.118865e-02 -3.069050e+00
-2.243857e-02 3.993293e-02 -2.612550e+00
-7.254143e-03 6.030910e-02 -1.652530e+00
1.085797e-02 7.099194e-02 -2.597094e-01
2.526679e-02 6.933197e-02 1.048841e+00
3.243218e-02 5.742605e-02 1.918125e+00
3.433032e-02 4.061258e-02 2.417244e+00
3.278217e-02 2.259092e-02 2.642460e+00
-5.240768e-01 -1.085678e-01 -2.572606e+00
-4.184144e-01 1.748916e-01 -2.609973e+00
-2.731701e-01 3.896611e-01 -2.245713e+00
-7.671682e-02 5.234191e-01 -1.453533e+00
1.552284e-01 5.669748e-01 -2.899119e-01
3.370937e-01 5.173892e-01 8.128374e-01
4.258466e-01 3.988030e-01 1.553773e+00
4.451696e-01 2.512064e-01 1.989444e+00
4.189880e-01 1.026718e-01 2.197584e+00
-1.066383e+00 7.874844e-02 -1.918351e+00
-8.779838e-01 4.641714e-01 -2.006648e+00
-5.932111e-01 7.259230e-01 -1.772294e+00
-2.007276e-01 8.423634e-01 -1.201353e+00
2.750324e-01 8.019016e-01 -3.428408e-01
6.544348e-01 6.377681e-01 4.902540e-01
8.458412e-01 4.124580e-01 1.068092e+00
8.996681e-01 1.737434e-01 1.422682e+00
8.612916e-01 -4.961494e-02 1.614496e+00
-1.517921e+00 4.656276e-01 -1.284207e+00
-1.290961e+00 8.383309e-01 -1.394751e+00
-9.091669e-01 1.033387e+00 -1.284964e+00
-3.658298e-01 1.016636e+00 -9.278340e-01
3.042805e-01 7.990316e-01 -3.530186e-01
8.599702e-01 4.836970e-01 2.157258e-01
1.158619e+00 1.636266e-01 6.243101e-01
1.261598e+00 -1.281258e-01 8.891137e-01
1.230335e+00 -3.776964e-01 1.039998e+00
-1.737088e+00 -2.385018e-01 -1.331873e+00
-1.433263e+00 -8.701928e-01 -1.570915e+00
-9.723919e-01 -1.281781e+00 -1.549254e+00
-3.406243e-01 -1.424099e+00 -1.224750e+00
4.242620e-01 -1.300232e+00 -6.252317e-01
1.042758e+00 -9.937283e-01 4.155072e-03
1.361359e+00 -5.997991e-01 4.937474e-01
1.454320e+00 -1.927237e-01 8.412808e-01
1.388389e+00 1.900276e-01 1.066006e+00
-1.231250e+00 1.784995e-01 -1.958490e+00
-9.948215e-01 -4.933124e-01 -2.174455e+00
-6.528160e-01 -9.938795e-01 -2.015245e+00
-1.933683e-01 -1.294178e+00 -1.471881e+00
3.572497e-01 -1.364246e+00 -5.906741e-01
7.896167e-01 -1.209533e+00 3.063911e-01
9.993100e-01 -9.030262e-01 9.638933e-01
1.049861e+00 -5.361063e-01 1.399960e+00
9.950200e-01 -1.709900e-01 1.671579e+00
-6.649440e-01 3.820880e-01 -2.641857e+00
-5.229260e-01 -2.104422e-01 -2.775419e+00
-3.335327e-01 -6.786014e-01 -2.460780e+00
-8.251659e-02 -1.005810e+00 -1.675362e+00
2.122777e-01 -1.165168e+00 -4.712138e-01
4.405457e-01 -1.127065e+00 7.016776e-01
5.489177e-01 -9.223317e-01 1.515474e+00
5.690355e-01 -6.396168e-01 2.021602e+00
5.308516e-01 -3.417427e-01 2.292062e+00
-1.883310e-01 2.996002e-01 -3.195521e+00
-1.474587e-01 -5.538499e-02 -3.238274e+00
-9.223657e-02 -3.422552e-01 -2.786711e+00
-2.222643e-02 -5.569980e-01 -1.796904e+00
6.203893e-02 -6.838979e-01 -3.378366e-01
1.262889e-01 -6.897714e-01 1.045958e+00
1.557741e-01 -5.885120e-01 1.976488e+00
1.614585e-01 -4.333531e-01 2.521698e+00
1.503971e-01 -2.620907e-01 2.779527e+00
2.030906e-04 2.087591e-16 -3.409499e+00
-1.493102e-03 2.882671e-08 -3.415057e+00
-2.494390e-03 4.850478e-08 -2.906202e+00
-3.084094e-03 5.741302e-08 -1.837725e+00
-3.229461e-03 5.028274e-08 -2.792088e-01
-2.607559e-03 8.463841e-08 1.185478e+00
-1.793852e-03 4.710236e-09 2.157033e+00
-7.737244e-04 4.814309e-08 2.717126e+00
4.352036e-04 -1.818075e-16 2.968707e+00
-1.883308e-01 -2.996002e-01 -3.195521e+00
-1.474586e-01 5.538485e-02 -3.238273e+00
-9.223650e-02 3.422552e-01 -2.786711e+00
-2.222639e-02 5.569981e-01 -1.796904e+00
6.203896e-02 6.838979e-01 -3.378366e-01
1.262889e-01 6.897714e-01 1.045958e+00
1.557740e-01 5.885119e-01 1.976488e+00
1.614584e-01 4.333530e-01 2.521698e+00
1.503971e-01 2.620906e-01 2.779526e+00
-6.649439e-01 -3.820880e-01 -2.641857e+00
-5.229259e-01 2.104423e-01 -2.775418e+00
-3.335326e-01 6.786016e-01 -2.460779e+00
-8.251658e-02 1.005810e+00 -1.675362e+00
2.122777e-01 1.165168e+00 -4.712139e-01
4.405457e-01 1.127065e+00 7.016775e-01
5.489177e-01 9.223314e-01 1.515474e+00
5.690354e-01 6.396166e-01 2.021601e+00
5.308515e-01 3.417427e-01 2.292062e+00
-1.231250e+00 -1.784994e-01 -1.958490e+00
-9.948213e-01 4.933125e-01 -2.174454e+00
-6.528159e-01 9.938796e-01 -2.015245e+00
-1.933684e-01 1.294177e+00 -1.471881e+00
3.572497e-01 1.364246e+00 -5.906738e-01
7.896167e-01 1.209533e+00 3.063911e-01
9.993097e-01 9.030259e-01 9.638931e-01
1.049861e+00 5.361062e-01 1.399960e+00
9.950200e-01 1.709900e-01 1.671579e+00
-1.737088e+00 2.385018e-01 -1.331873e+00
-1.433263e+00 8.701928e-01 -1.570915e+00
-9.723917e-01 1.281781e+00 -1.549254e+00
-3.406242e-01 1.424099e+00 -1.224750e+00
4.242619e-01 1.300232e+00 -6.252316e-01
1.042758e+00 9.937282e-01 4.155197e-03
1.361359e+00 5.997991e-01 4.937475e-01
1.454321e+00 1.927237e-01 8.412808e-01
1.388389e+00 -1.900276e-01 1.066006e+00
-1.517921e+00 -4.656275e-01 -1.284208e+00
-1.290961e+00 -8.383309e-01 -1.394751e+00
-9.091668e-01 -1.033387e+00 -1.284964e+00
-3.658297e-01 -1.016635e+00 -9.278341e-01
3.042806e-01 -7.990315e-01 -3.530188e-01
8.599702e-01 -4.836969e-01 2.157257e-01
1.158619e+00 -1.636266e-01 6.243099e-01
1.261598e+00 1.281258e-01 8.891134e-01
1.230335e+00 3.776965e-01 1.039998e+00
-1.066383e+00 -7.874838e-02 -1.918351e+00
-8.779838e-01 -4.641713e-01 -2.006648e+00
-5.932112e-01 -7.259230e-01 -1.772295e+00
-2.007277e-01 -8.423634e-01 -1.201353e+00
2.750324e-01 -8.019015e-01 -3.428409e-01
6.544348e-01 -6.377680e-01 4.902538e-01
8.458412e-01 -4.124579e-01 1.068092e+00
8.996683e-01 -1.737433e-01 1.422682e+00
8.612917e-01 4.961499e-02 1.614496e+00
-5.240768e-01 1.085678e-01 -2.572606e+00
-4.184145e-01 -1.748917e-01 -2.609974e+00
-2.731702e-01 -3.896613e-01 -2.245714e+00
-7.671684e-02 -5.234192e-01 -1.453534e+00
1.552284e-01 -5.669748e-01 -2.899120e-01
3.370937e-01 -5.173892e-01 8.128373e-01
4.258467e-01 -3.988029e-01 1.553773e+00
4.451697e-01 -2.512064e-01 1.989444e+00
4.189880e-01 -1.026718e-01 2.197584e+00
-4.158992e-02 2.537499e-02 -3.065163e+00
-3.371404e-02 -1.118867e-02 -3.069051e+00
-2.243852e-02 -3.993294e-02 -2.612550e+00
-7.254181e-03 -6.030918e-02 -1.652530e+00
1.085794e-02 -7.099210e-02 -2.597094e-01
2.526671e-02 -6.933206e-02 1.048841e+00
3.243199e-02 -5.742621e-02 1.918125e+00
3.433015e-02 -4.061260e-02 2.417245e+00
3.278211e-02 -2.259094e-02 2.642461e+00
1.806501e-01 -2.637226e-01 -3.210501e+00
1.385011e-01 4.992751e-02 -3.244927e+00
8.371549e-02 3.034177e-01 -2.785600e+00
1.547754e-02 4.929943e-01 -1.788753e+00
-6.575009e-02 6.046632e-01 -3.230663e-01
-1.264693e-01 6.094179e-01 1.063961e+00
-1.533330e-01 5.195959e-01 1.993984e+00
-1.571449e-01 3.822427e-01 2.536680e+00
-1.444435e-01 2.307459e-01 2.790593e+00
2.874034e-02 -5.540031e-01 -2.942093e+00
2.055140e-02 1.017401e-01 -3.081231e+00
1.109537e-02 6.333292e-01 -2.729616e+00
-4.278215e-04 1.030570e+00 -1.846353e+00
-1.342535e-02 1.266872e+00 -4.989182e-01
-2.269690e-02 1.277487e+00 8.135752e-01
-2.648135e-02 1.090608e+00 1.725638e+00
-2.635896e-02 8.038111e-01 2.286870e+00
-2.339926e-02 4.866070e-01 2.584089e+00
-4.395262e-01 -6.367625e-01 -2.373621e+00
-3.443276e-01 2.416432e-01 -2.649756e+00
-2.202486e-01 9.460193e-01 -2.469346e+00
-5.266355e-02 1.451644e+00 -1.811196e+00
1.416553e-01 1.721222e+00 -7.218785e-01
2.924502e-01 1.693173e+00 3.914977e-01
3.653184e-01 1.409634e+00 1.209622e+00
3.787483e-01 1.002373e+00 1.757846e+00
3.525686e-01 5.652015e-01 2.093643e+00
-1.043377e+00 -4.380213e-01 -1.709173e+00
-8.352996e-01 5.022842e-01 -2.094715e+00
-5.405778e-01 1.231613e+00 -2.084416e+00
-1.488617e-01 1.708421e+00 -1.671518e+00
3.182574e-01 1.891807e+00 -8.985136e-01
6.824510e-01 1.752945e+00 -4.419146e-02
8.562007e-01 1.375361e+00 6.359085e-01
8.931749e-01 8.919400e-01 1.131264e+00
8.437514e-01 3.948973e-01 1.487915e+00
-1.631919e+00 -2.524460e-02 -1.132485e+00
-1.316846e+00 8.641396e-01 -1.540743e+00
-8.730951e-01 1.492192e+00 -1.670701e+00
-2.743445e-01 1.802771e+00 -1.467164e+00
4.394635e-01 1.789583e+00 -9.540706e-01
1.007084e+00 1.504907e+00 -3.515736e-01
1.291139e+00 1.049854e+00 1.714441e-01
1.362643e+00 5.336482e-01 5.878318e-01
1.278001e+00 2.236412e-02 8.922688e-01
-1.086137e+00 -5.434895e-01 -9.898469e-01
-9.618177e-01 -7.117821e-01 -1.025630e+00
-7.118257e-01 -7.496385e-01 -9.033325e-01
-3.346980e-01 -6.382793e-01 -6.099296e-01
1.455615e-01 -3.914103e-01 -1.682779e-01
5.564480e-01 -1.117429e-01 2.536866e-01
7.901870e-01 1.236899e-01 5.429985e-01
8.865136e-01 3.073554e-01 7.181379e-01