<?xml version="1.0"?>
<VTKFile type="StructuredGrid" version="0.1">
  <StructuredGrid WholeExtent="0 16 0 16 0 16">
    <Piece Extent="0 16 0 16 0 16">
      <PointData Scalars="temperature" Vectors="velocity">
        <DataArray type="Float32" Name="temperature" format="ascii">
1.000000e+00
5.831295e-01
5.921340e-01
6.007779e-01
6.083544e-01
6.145723e-01
6.191926e-01
6.220378e-01
6.229985e-01
6.220377e-01
6.191925e-01
6.145721e-01
6.083541e-01
6.007775e-01
5.921332e-01
5.822268e-01
0.000000e+00
1.000000e+00
5.829421e-01
5.917664e-01
6.002442e-01
6.076751e-01
6.137735e-01
6.183051e-01
6.210955e-01
6.220378e-01
6.210955e-01
6.183049e-01
6.137733e-01
6.076748e-01
6.002437e-01
5.917656e-01
5.820395e-01
0.000000e+00
1.000000e+00
5.823870e-01
5.906775e-01
5.986634e-01
6.056632e-01
6.114078e-01
6.156764e-01
6.183050e-01
6.191926e-01
6.183049e-01
6.156763e-01
6.114076e-01
6.056629e-01
5.986630e-01
5.906768e-01
5.814844e-01
0.000000e+00
1.000000e+00
5.814856e-01
5.889094e-01
5.960965e-01
6.023961e-01
6.075661e-01
6.114078e-01
6.137734e-01
6.145722e-01
6.137734e-01
6.114077e-01
6.075659e-01
6.023959e-01
5.960961e-01
5.889086e-01
5.805830e-01
0.000000e+00
1.000000e+00
5.802725e-01
5.865298e-01
5.926420e-01
5.979994e-01
6.023961e-01
6.056631e-01
6.076750e-01
6.083543e-01
6.076749e-01
6.056630e-01
6.023959e-01
5.979991e-01
5.926416e-01
5.865292e-01
5.793700e-01
0.000000e+00
1.000000e+00
5.787943e-01
5.836304e-01
5.884326e-01
5.926419e-01
5.960964e-01
5.986633e-01
6.002440e-01
6.007777e-01
6.002439e-01
5.986632e-01
5.960962e-01
5.926417e-01
5.884323e-01
5.836298e-01
5.778919e-01
0.000000e+00
1.000000e+00
5.771079e-01
5.803224e-01
5.836302e-01
5.865296e-01
5.889091e-01
5.906772e-01
5.917660e-01
5.921336e-01
5.917659e-01
5.906771e-01
5.889090e-01
5.865294e-01
5.836300e-01
5.803219e-01
5.762056e-01
0.000000e+00
1.000000e+00
5.752780e-01
5.767330e-01
5.784192e-01
5.798973e-01
5.811104e-01
5.820118e-01
5.825668e-01
5.827542e-01
5.825668e-01
5.820117e-01
5.811103e-01
5.798973e-01
5.784191e-01
5.767326e-01
5.743758e-01
0.000000e+00
1.000000e+00
5.733749e-01
5.730001e-01
5.730000e-01
5.730000e-01
5.730000e-01
5.730000e-01
5.730000e-01
5.730000e-01
5.730000e-01
5.730000e-01
5.730000e-01
5.730000e-01
5.730000e-01
5.729998e-01
5.724729e-01
0.000000e+00
1.000000e+00
5.714719e-01
5.692673e-01
5.675808e-01
5.661027e-01
5.648897e-01
5.639883e-01
5.634333e-01
5.632458e-01
5.634333e-01
5.639883e-01
5.648897e-01
5.661028e-01
5.675809e-01
5.692671e-01
5.705701e-01
0.000000e+00
1.000000e+00
5.696419e-01
5.656779e-01
5.623699e-01
5.594705e-01
5.570910e-01
5.553229e-01
5.542341e-01
5.538665e-01
5.542341e-01
5.553230e-01
5.570911e-01
5.594706e-01
5.623701e-01
5.656778e-01
5.687403e-01
0.000000e+00
1.000000e+00
5.679555e-01
5.623699e-01
5.575675e-01
5.533582e-01
5.499037e-01
5.473368e-01
5.457561e-01
5.452224e-01
5.457562e-01
5.473369e-01
5.499038e-01
5.533584e-01
5.575677e-01
5.623699e-01
5.670540e-01
0.000000e+00
1.000000e+00
5.664773e-01
5.594705e-01
5.533581e-01
5.480007e-01
5.436040e-01
5.403370e-01
5.383251e-01
5.376458e-01
5.383252e-01
5.403371e-01
5.436042e-01
5.480009e-01
5.533584e-01
5.594705e-01
5.655760e-01
0.000000e+00
1.000000e+00
5.652642e-01
5.570909e-01
5.499036e-01
5.436040e-01
5.384340e-01
5.345923e-01
5.322267e-01
5.314279e-01
5.322267e-01
5.345924e-01
5.384341e-01
5.436042e-01
5.499039e-01
5.570911e-01
5.643630e-01
0.000000e+00
1.000000e+00
5.643627e-01
5.553228e-01
5.473367e-01
5.403369e-01
5.345923e-01
5.303237e-01
5.276951e-01
5.268076e-01
5.276952e-01
5.303238e-01
5.345925e-01
5.403371e-01
5.473370e-01
5.553230e-01
5.634616e-01
0.000000e+00
1.000000e+00
5.638076e-01
5.542340e-01
5.457560e-01
5.383250e-01
5.322266e-01
5.276951e-01
5.249046e-01
5.239624e-01
5.249047e-01
5.276952e-01
5.322268e-01
5.383253e-01
5.457563e-01
5.542342e-01
5.629066e-01
0.000000e+00
1.000000e+00
5.636200e-01
5.538663e-01
5.452222e-01
5.376457e-01
5.314278e-01
5.268075e-01
5.239624e-01
5.230017e-01
5.239624e-01
5.268076e-01
5.314280e-01
5.376460e-01
5.452226e-01
5.538665e-01
5.627191e-01
0.000000e+00
1.000000e+00
5.829420e-01
5.917664e-01
6.002442e-01
6.076751e-01
6.137735e-01
6.183051e-01
6.210955e-01
6.220378e-01
6.210955e-01
6.183049e-01
6.137733e-01
6.076748e-01
6.002437e-01
5.917656e-01
5.820394e-01
0.000000e+00
1.000000e+00
5.827583e-01
5.914058e-01
5.997207e-01
6.070088e-01
6.129901e-01
6.174345e-01
6.201714e-01
6.210955e-01
6.201713e-01
6.174344e-01
6.129899e-01
6.070085e-01
5.997203e-01
5.914050e-01
5.818557e-01
0.000000e+00
1.000000e+00
5.822138e-01
5.903379e-01
5.981703e-01
6.050356e-01
6.106698e-01
6.148564e-01
6.174345e-01
6.183050e-01
6.174344e-01
6.148563e-01
6.106696e-01
6.050353e-01
5.981699e-01
5.903371e-01
5.813113e-01
0.000000e+00
1.000000e+00
5.813298e-01
5.886037e-01
5.956527e-01
6.018313e-01
6.069020e-01
6.106698e-01
6.129900e-01
6.137734e-01
6.129899e-01
6.106697e-01
6.069018e-01
6.018310e-01
5.956523e-01
5.886030e-01
5.804272e-01
0.000000e+00
1.000000e+00
5.801400e-01
5.862699e-01
5.922645e-01
5.975190e-01
6.018312e-01
6.050355e-01
6.070087e-01
6.076749e-01
6.070086e-01
6.050354e-01
6.018311e-01
5.975188e-01
5.922642e-01
5.862692e-01
5.792375e-01
0.000000e+00
1.000000e+00
5.786902e-01
5.834261e-01
5.881361e-01
5.922645e-01
5.956526e-01
5.981702e-01
5.997205e-01
6.002439e-01
5.997204e-01
5.981701e-01
5.956524e-01
5.922643e-01
5.881358e-01
5.834255e-01
5.777878e-01
0.000000e+00
1.000000e+00
5.770361e-01
5.801817e-01
5.834259e-01
5.862696e-01
5.886034e-01
5.903375e-01
5.914054e-01
5.917660e-01
5.914054e-01
5.903375e-01
5.886033e-01
5.862695e-01
5.834257e-01
5.801812e-01
5.761339e-01
0.000000e+00
1.000000e+00
5.752414e-01
5.766613e-01
5.783151e-01
5.797648e-01
5.809546e-01
5.818386e-01
5.823830e-01
5.825668e-01
5.823830e-01
5.818386e-01
5.809545e-01
5.797647e-01
5.783150e-01
5.766609e-01
5.743393e-01
0.000000e+00
1.000000e+00
5.733749e-01
5.730001e-01
5.730000e-01
5.730000e-01
5.730000e-01
5.730000e-01
5.730000e-01
5.730000e-01
5.730000e-01
5.730000e-01
5.730000e-01
5.730000e-01
5.730000e-01
5.729998e-01
5.724729e-01
0.000000e+00
1.000000e+00
5.715084e-01
5.693390e-01
5.676850e-01
5.662353e-01
5.650455e-01
5.641615e-01
5.636171e-01
5.634333e-01
5.636171e-01
5.641615e-01
5.650456e-01
5.662353e-01
5.676850e-01
5.693388e-01
5.706066e-01
0.000000e+00
1.000000e+00
5.697137e-01
5.658186e-01
5.625742e-01
5.597305e-01
5.573967e-01
5.556626e-01
5.545947e-01
5.542341e-01
5.545947e-01
5.556626e-01
5.573968e-01
5.597306e-01
5.625743e-01
5.658185e-01
5.688120e-01
0.000000e+00
1.000000e+00
5.680596e-01
5.625742e-01
5.578640e-01
5.537356e-01
5.503475e-01
5.478299e-01
5.462796e-01
5.457562e-01
5.462797e-01
5.478300e-01
5.503476e-01
5.537358e-01
5.578642e-01
5.625742e-01
5.671581e-01
0.000000e+00
1.000000e+00
5.666098e-01
5.597304e-01
5.537355e-01
5.484811e-01
5.441689e-01
5.409646e-01
5.389914e-01
5.383252e-01
5.389914e-01
5.409647e-01
5.441690e-01
5.484813e-01
5.537358e-01
5.597305e-01
5.657085e-01
0.000000e+00
1.000000e+00
5.654200e-01
5.573966e-01
5.503474e-01
5.441688e-01
5.390982e-01
5.353303e-01
5.330101e-01
5.322267e-01
5.330102e-01
5.353304e-01
5.390983e-01
5.441690e-01
5.503477e-01
5.573967e-01
5.645188e-01
0.000000e+00
1.000000e+00
5.645359e-01
5.556624e-01
5.478298e-01
5.409645e-01
5.353303e-01
5.311437e-01
5.285656e-01
5.276951e-01
5.285657e-01
5.311438e-01
5.353305e-01
5.409647e-01
5.478301e-01
5.556626e-01
5.636348e-01
0.000000e+00
1.000000e+00
5.639914e-01
5.545945e-01
5.462794e-01
5.389913e-01
5.330101e-01
5.285656e-01
5.258287e-01
5.249046e-01
5.258288e-01
5.285657e-01
5.330102e-01
5.389916e-01
5.462798e-01
5.545947e-01
5.630904e-01
0.000000e+00
1.000000e+00
5.638075e-01
5.542340e-01
5.457560e-01
5.383250e-01
5.322266e-01
5.276951e-01
5.249046e-01
5.239624e-01
5.249047e-01
5.276952e-01
5.322268e-01
5.383253e-01
5.457563e-01
5.542342e-01
5.629065e-01
0.000000e+00
1.000000e+00
5.823869e-01
5.906775e-01
5.986634e-01
6.056632e-01
6.114078e-01
6.156764e-01
6.183050e-01
6.191926e-01
6.183049e-01
6.156763e-01
6.114076e-01
6.056629e-01
5.986630e-01
5.906768e-01
5.814844e-01
0.000000e+00
1.000000e+00
5.822138e-01
5.903379e-01
5.981703e-01
6.050356e-01
6.106698e-01
6.148564e-01
6.174345e-01
6.183050e-01
6.174344e-01
6.148563e-01
6.106696e-01
6.050353e-01
5.981699e-01
5.903371e-01
5.813113e-01
0.000000e+00
1.000000e+00
5.817010e-01
5.893319e-01
5.967099e-01
6.031769e-01
6.084842e-01
6.124279e-01
6.148564e-01
6.156764e-01
6.148563e-01
6.124278e-01
6.084840e-01
6.031766e-01
5.967096e-01
5.893312e-01
5.807984e-01
0.000000e+00
1.000000e+00
5.808682e-01
5.876984e-01
5.943384e-01
6.001585e-01
6.049349e-01
6.084842e-01
6.106697e-01
6.114077e-01
6.106697e-01
6.084840e-01
6.049348e-01
6.001582e-01
5.943380e-01
5.876977e-01
5.799657e-01
0.000000e+00
1.000000e+00
5.797474e-01
5.855000e-01
5.911468e-01
5.960964e-01
6.001584e-01
6.031768e-01
6.050355e-01
6.056631e-01
6.050354e-01
6.031767e-01
6.001583e-01
5.960962e-01
5.911465e-01
5.854993e-01
5.788450e-01
0.000000e+00
1.000000e+00
5.783818e-01
5.828212e-01
5.872579e-01
5.911467e-01
5.943383e-01
5.967098e-01
5.981701e-01
5.986632e-01
5.981701e-01
5.967097e-01
5.943381e-01
5.911466e-01
5.872576e-01
5.828206e-01
5.774794e-01
0.000000e+00
1.000000e+00
5.768237e-01
5.797650e-01
5.828210e-01
5.854997e-01
5.876981e-01
5.893316e-01
5.903375e-01
5.906771e-01
5.903375e-01
5.893315e-01
5.876980e-01
5.854996e-01
5.828208e-01
5.797645e-01
5.759215e-01
0.000000e+00
1.000000e+00
5.751331e-01
5.764488e-01
5.780067e-01
5.793723e-01
5.804930e-01
5.813258e-01
5.818386e-01
5.820117e-01
5.818386e-01
5.813258e-01
5.804930e-01
5.793722e-01
5.780066e-01
5.764484e-01
5.742310e-01
0.000000e+00
1.000000e+00
5.733749e-01
5.730001e-01
5.730000e-01
5.730000e-01
5.730000e-01
5.730000e-01
5.730000e-01
5.730000e-01
5.730000e-01
5.730000e-01
5.730000e-01
5.730000e-01
5.730000e-01
5.729998e-01
5.724729e-01
0.000000e+00
1.000000e+00
5.716167e-01
5.695515e-01
5.679934e-01
5.666278e-01
5.655071e-01
5.646743e-01
5.641615e-01
5.639883e-01
5.641615e-01
5.646743e-01
5.655071e-01
5.666278e-01
5.679934e-01
5.695513e-01
5.707149e-01
0.000000e+00
1.000000e+00
5.699261e-01
5.662353e-01
5.631791e-01
5.605004e-01
5.583020e-01
5.566685e-01
5.556626e-01
5.553229e-01
5.556626e-01
5.566685e-01
5.583021e-01
5.605005e-01
5.631792e-01
5.662352e-01
5.690244e-01
0.000000e+00
1.000000e+00
5.683680e-01
5.631791e-01
5.587422e-01
5.548533e-01
5.516618e-01
5.492903e-01
5.478300e-01
5.473369e-01
5.478300e-01
5.492904e-01
5.516619e-01
5.548535e-01
5.587424e-01
5.631791e-01
5.674665e-01
0.000000e+00
1.000000e+00
5.670023e-01
5.605003e-01
5.548533e-01
5.499037e-01
5.458417e-01
5.428233e-01
5.409646e-01
5.403370e-01
5.409646e-01
5.428234e-01
5.458418e-01
5.499039e-01
5.548535e-01
5.605004e-01
5.661010e-01
0.000000e+00
1.000000e+00
5.658815e-01
5.583019e-01
5.516617e-01
5.458416e-01
5.410652e-01
5.375159e-01
5.353304e-01
5.345924e-01
5.353304e-01
5.375160e-01
5.410653e-01
5.458418e-01
5.516620e-01
5.583020e-01
5.649803e-01
0.000000e+00
1.000000e+00
5.650487e-01
5.566684e-01
5.492902e-01
5.428232e-01
5.375159e-01
5.335722e-01
5.311437e-01
5.303238e-01
5.311438e-01
5.335723e-01
5.375161e-01
5.428235e-01
5.492905e-01
5.566685e-01
5.641476e-01
0.000000e+00
1.000000e+00
5.645358e-01
5.556624e-01
5.478298e-01
5.409645e-01
5.353303e-01
5.311437e-01
5.285656e-01
5.276952e-01
5.285657e-01
5.311438e-01
5.353305e-01
5.409648e-01
5.478301e-01
5.556626e-01
5.636348e-01
0.000000e+00
1.000000e+00
5.643626e-01
5.553228e-01
5.473367e-01
5.403369e-01
5.345923e-01
5.303237e-01
5.276951e-01
5.268076e-01
5.276952e-01
5.303238e-01
5.345925e-01
5.403372e-01
5.473370e-01
5.553230e-01
5.634616e-01
0.000000e+00
1.000000e+00
5.814855e-01
5.889094e-01
5.960965e-01
6.023961e-01
6.075661e-01
6.114078e-01
6.137734e-01
6.145722e-01
6.137734e-01
6.114076e-01
6.075659e-01
6.023959e-01
5.960961e-01
5.889086e-01
5.805830e-01
0.000000e+00
1.000000e+00
5.813297e-01
5.886037e-01
5.956527e-01
6.018313e-01
6.069019e-01
6.106698e-01
6.129900e-01
6.137734e-01
6.129899e-01
6.106697e-01
6.069018e-01
6.018310e-01
5.956523e-01
5.886030e-01
5.804272e-01
0.000000e+00
1.000000e+00
5.808682e-01
5.876984e-01
5.943384e-01
6.001585e-01
6.049349e-01
6.084842e-01
6.106697e-01
6.114077e-01
6.106697e-01
6.084840e-01
6.049348e-01
6.001582e-01
5.943380e-01
5.876977e-01
5.799657e-01
0.000000e+00
1.000000e+00
5.801187e-01
5.862282e-01
5.922040e-01
5.974420e-01
6.017407e-01
6.049349e-01
6.069019e-01
6.075660e-01
6.069018e-01
6.049348e-01
6.017405e-01
5.974418e-01
5.922037e-01
5.862275e-01
5.792162e-01
0.000000e+00
1.000000e+00
5.791100e-01
5.842497e-01
5.893317e-01
5.937862e-01
5.974420e-01
6.001584e-01
6.018312e-01
6.023960e-01
6.018311e-01
6.001583e-01
5.974418e-01
5.937860e-01
5.893314e-01
5.842491e-01
5.782076e-01
0.000000e+00
1.000000e+00
5.778810e-01
5.818388e-01
5.858317e-01
5.893316e-01
5.922039e-01
5.943382e-01
5.956525e-01
5.960963e-01
5.956525e-01
5.943382e-01
5.922038e-01
5.893315e-01
5.858315e-01
5.818383e-01
5.769787e-01
0.000000e+00
1.000000e+00
5.764787e-01
5.790883e-01
5.818387e-01
5.842494e-01
5.862279e-01
5.876980e-01
5.886033e-01
5.889090e-01
5.886033e-01
5.876980e-01
5.862278e-01
5.842493e-01
5.818385e-01
5.790879e-01
5.755765e-01
0.000000e+00
1.000000e+00
5.749572e-01
5.761039e-01
5.775059e-01
5.787349e-01
5.797435e-01
5.804930e-01
5.809545e-01
5.811104e-01
5.809545e-01
5.804930e-01
5.797435e-01
5.787349e-01
5.775058e-01
5.761035e-01
5.740551e-01
0.000000e+00
1.000000e+00
5.733749e-01
5.730001e-01
5.730000e-01
5.730000e-01
5.730000e-01
5.730000e-01
5.730000e-01
5.730000e-01
5.730000e-01
5.730000e-01
5.730000e-01
5.730000e-01
5.730000e-01
5.729998e-01
5.724729e-01
0.000000e+00
1.000000e+00
5.717926e-01
5.698964e-01
5.684941e-01
5.672651e-01
5.662565e-01
5.655071e-01
5.650455e-01
5.648897e-01
5.650455e-01
5.655071e-01
5.662566e-01
5.672652e-01
5.684942e-01
5.698962e-01
5.708908e-01
0.000000e+00
1.000000e+00
5.702711e-01
5.669119e-01
5.641614e-01
5.617506e-01
5.597722e-01
5.583020e-01
5.573967e-01
5.570911e-01
5.573968e-01
5.583021e-01
5.597722e-01
5.617507e-01
5.641615e-01
5.669118e-01
5.693694e-01
0.000000e+00
1.000000e+00
5.688688e-01
5.641614e-01
5.601683e-01
5.566684e-01
5.537962e-01
5.516619e-01
5.503476e-01
5.499038e-01
5.503476e-01
5.516619e-01
5.537962e-01
5.566686e-01
5.601685e-01
5.641614e-01
5.679673e-01
0.000000e+00
1.000000e+00
5.676397e-01
5.617506e-01
5.566684e-01
5.522139e-01
5.485581e-01
5.458417e-01
5.441689e-01
5.436041e-01
5.441689e-01
5.458418e-01
5.485583e-01
5.522140e-01
5.566686e-01
5.617506e-01
5.667383e-01
0.000000e+00
1.000000e+00
5.666310e-01
5.597721e-01
5.537961e-01
5.485581e-01
5.442594e-01
5.410652e-01
5.390982e-01
5.384341e-01
5.390983e-01
5.410653e-01
5.442595e-01
5.485583e-01
5.537963e-01
5.597722e-01
5.657298e-01
0.000000e+00
1.000000e+00
5.658815e-01
5.583019e-01
5.516617e-01
5.458416e-01
5.410652e-01
5.375160e-01
5.353304e-01
5.345924e-01
5.353304e-01
5.375160e-01
5.410653e-01
5.458418e-01
5.516620e-01
5.583020e-01
5.649803e-01
0.000000e+00
1.000000e+00
5.654199e-01
5.573966e-01
5.503474e-01
5.441688e-01
5.390982e-01
5.353303e-01
5.330101e-01
5.322267e-01
5.330102e-01
5.353304e-01
5.390983e-01
5.441690e-01
5.503477e-01
5.573967e-01
5.645189e-01
0.000000e+00
1.000000e+00
5.652640e-01
5.570909e-01
5.499036e-01
5.436040e-01
5.384340e-01
5.345924e-01
5.322267e-01
5.314279e-01
5.322267e-01
5.345925e-01
5.384342e-01
5.436042e-01
5.499039e-01
5.570911e-01
5.643630e-01
0.000000e+00
1.000000e+00
5.802724e-01
5.865298e-01
5.926419e-01
5.979994e-01
6.023961e-01
6.056631e-01
6.076750e-01
6.083543e-01
6.076749e-01
6.056630e-01
6.023959e-01
5.979991e-01
5.926416e-01
5.865292e-01
5.793700e-01
0.000000e+00
1.000000e+00
5.801399e-01
5.862699e-01
5.922645e-01
5.975190e-01
6.018312e-01
6.050355e-01
6.070087e-01
6.076749e-01
6.070086e-01
6.050354e-01
6.018311e-01
5.975188e-01
5.922642e-01
5.862692e-01
5.792375e-01
0.000000e+00
1.000000e+00
5.797474e-01
5.854999e-01
5.911468e-01
5.960964e-01
6.001584e-01
6.031768e-01
6.050355e-01
6.056631e-01
6.050354e-01
6.031767e-01
6.001583e-01
5.960962e-01
5.911465e-01
5.854993e-01
5.788450e-01
0.000000e+00
1.000000e+00
5.791100e-01
5.842497e-01
5.893317e-01
5.937862e-01
5.974419e-01
6.001584e-01
6.018312e-01
6.023960e-01
6.018311e-01
6.001583e-01
5.974418e-01
5.937860e-01
5.893314e-01
5.842491e-01
5.782076e-01
0.000000e+00
1.000000e+00
5.782522e-01
5.825671e-01
5.868890e-01
5.906772e-01
5.937862e-01
5.960963e-01
5.975189e-01
5.979992e-01
5.975189e-01
5.960963e-01
5.937861e-01
5.906771e-01
5.868887e-01
5.825665e-01
5.773499e-01
0.000000e+00
1.000000e+00
5.772070e-01
5.805168e-01
5.839125e-01
5.868889e-01
5.893316e-01
5.911467e-01
5.922644e-01
5.926418e-01
5.922644e-01
5.911466e-01
5.893315e-01
5.868888e-01
5.839123e-01
5.805163e-01
5.763047e-01
0.000000e+00
1.000000e+00
5.760145e-01
5.781777e-01
5.805167e-01
5.825669e-01
5.842494e-01
5.854997e-01
5.862696e-01
5.865295e-01
5.862695e-01
5.854996e-01
5.842493e-01
5.825668e-01
5.805165e-01
5.781773e-01
5.751123e-01
0.000000e+00
1.000000e+00
5.747206e-01
5.756397e-01
5.768320e-01
5.778772e-01
5.787349e-01
5.793723e-01
5.797648e-01
5.798973e-01
5.797648e-01
5.793723e-01
5.787349e-01
5.778771e-01
5.768319e-01
5.756393e-01
5.738185e-01
0.000000e+00
1.000000e+00
5.733749e-01
5.730001e-01
5.730000e-01
5.730000e-01
5.730000e-01
5.730000e-01
5.730000e-01
5.730000e-01
5.730000e-01
5.730000e-01
5.730000e-01
5.730000e-01
5.730000e-01
5.729998e-01
5.724729e-01
0.000000e+00
1.000000e+00
5.720292e-01
5.703606e-01
5.691681e-01
5.681229e-01
5.672652e-01
5.666278e-01
5.662353e-01
5.661028e-01
5.662353e-01
5.666278e-01
5.672652e-01
5.681229e-01
5.691681e-01
5.703604e-01
5.711274e-01
0.000000e+00
1.000000e+00
5.707353e-01
5.678226e-01
5.654834e-01
5.634332e-01
5.617507e-01
5.605004e-01
5.597305e-01
5.594706e-01
5.597305e-01
5.605004e-01
5.617507e-01
5.634333e-01
5.654835e-01
5.678224e-01
5.698336e-01
0.000000e+00
1.000000e+00
5.695428e-01
5.654834e-01
5.620876e-01
5.591112e-01
5.566685e-01
5.548534e-01
5.537357e-01
5.533583e-01
5.537357e-01
5.548534e-01
5.566686e-01
5.591113e-01
5.620877e-01
5.654834e-01
5.686412e-01
0.000000e+00
1.000000e+00
5.684975e-01
5.634332e-01
5.591111e-01
5.553228e-01
5.522139e-01
5.499038e-01
5.484812e-01
5.480008e-01
5.484812e-01
5.499038e-01
5.522140e-01
5.553230e-01
5.591113e-01
5.634332e-01
5.675961e-01
0.000000e+00
1.000000e+00
5.676397e-01
5.617506e-01
5.566684e-01
5.522139e-01
5.485581e-01
5.458417e-01
5.441689e-01
5.436041e-01
5.441689e-01
5.458418e-01
5.485583e-01
5.522140e-01
5.566686e-01
5.617506e-01
5.667384e-01
0.000000e+00
1.000000e+00
5.670023e-01
5.605004e-01
5.548533e-01
5.499037e-01
5.458417e-01
5.428233e-01
5.409646e-01
5.403370e-01
5.409647e-01
5.428234e-01
5.458418e-01
5.499039e-01
5.548535e-01
5.605004e-01
5.661010e-01
0.000000e+00
1.000000e+00
5.666097e-01
5.597304e-01
5.537356e-01
5.484811e-01
5.441689e-01
5.409646e-01
5.389914e-01
5.383252e-01
5.389915e-01
5.409647e-01
5.441690e-01
5.484813e-01
5.537358e-01
5.597305e-01
5.657086e-01
0.000000e+00
1.000000e+00
5.664771e-01
5.594705e-01
5.533581e-01
5.480007e-01
5.436040e-01
5.403370e-01
5.383252e-01
5.376459e-01
5.383252e-01
5.403371e-01
5.436042e-01
5.480009e-01
5.533584e-01
5.594705e-01
5.655760e-01
0.000000e+00
1.000000e+00
5.787942e-01
5.836304e-01
5.884326e-01
5.926419e-01
5.960964e-01
5.986633e-01
6.002439e-01
6.007777e-01
6.002439e-01
5.986632e-01
5.960962e-01
5.926417e-01
5.884323e-01
5.836298e-01
5.778919e-01
0.000000e+00
1.000000e+00
5.786902e-01
5.834261e-01
5.881360e-01
5.922645e-01
5.956526e-01
5.981701e-01
5.997205e-01
6.002439e-01
5.997204e-01
5.981701e-01
5.956524e-01
5.922643e-01
5.881358e-01
5.834255e-01
5.777878e-01
0.000000e+00
1.000000e+00
5.783818e-01
5.828212e-01
5.872578e-01
5.911467e-01
5.943382e-01
5.967098e-01
5.981701e-01
5.986632e-01
5.981701e-01
5.967097e-01
5.943381e-01
5.911466e-01
5.872576e-01
5.828206e-01
5.774794e-01
0.000000e+00
1.000000e+00
5.778810e-01
5.818388e-01
5.858317e-01
5.893316e-01
5.922039e-01
5.943382e-01
5.956525e-01
5.960963e-01
5.956525e-01
5.943382e-01
5.922038e-01
5.893315e-01
5.858315e-01
5.818383e-01
5.769787e-01
0.000000e+00
1.000000e+00
5.772070e-01
5.805168e-01
5.839125e-01
5.868889e-01
5.893316e-01
5.911467e-01
5.922644e-01
5.926418e-01
5.922644e-01
5.911466e-01
5.893315e-01
5.868888e-01
5.839123e-01
5.805163e-01
5.763047e-01
0.000000e+00
1.000000e+00
5.763858e-01
5.789060e-01
5.815739e-01
5.839125e-01
5.858317e-01
5.872578e-01
5.881359e-01
5.884325e-01
5.881359e-01
5.872577e-01
5.858316e-01
5.839124e-01
5.815738e-01
5.789055e-01
5.754836e-01
0.000000e+00
1.000000e+00
5.754488e-01
5.770681e-01
5.789058e-01
5.805166e-01
5.818386e-01
5.828209e-01
5.834258e-01
5.836301e-01
5.834258e-01
5.828209e-01
5.818386e-01
5.805166e-01
5.789057e-01
5.770677e-01
5.745467e-01
0.000000e+00
1.000000e+00
5.744322e-01
5.750740e-01
5.760108e-01
5.768320e-01
5.775059e-01
5.780067e-01
5.783151e-01
5.784192e-01
5.783150e-01
5.780067e-01
5.775059e-01
5.768319e-01
5.760107e-01
5.750736e-01
5.735301e-01
0.000000e+00
1.000000e+00
5.733749e-01
5.730001e-01
5.730000e-01
5.730000e-01
5.730000e-01
5.730000e-01
5.730000e-01
5.730000e-01
5.730000e-01
5.730000e-01
5.730000e-01
5.730000e-01
5.730000e-01
5.729998e-01
5.724729e-01
0.000000e+00
1.000000e+00
5.723176e-01
5.709263e-01
5.699893e-01
5.691681e-01
5.684942e-01
5.679934e-01
5.676850e-01
5.675809e-01
5.676850e-01
5.679934e-01
5.684942e-01
5.691681e-01
5.699893e-01
5.709261e-01
5.714158e-01
0.000000e+00
1.000000e+00
5.713010e-01
5.689321e-01
5.670942e-01
5.654834e-01
5.641615e-01
5.631791e-01
5.625742e-01
5.623700e-01
5.625742e-01
5.631792e-01
5.641615e-01
5.654835e-01
5.670943e-01
5.689320e-01
5.703992e-01
0.000000e+00
1.000000e+00
5.703640e-01
5.670943e-01
5.644262e-01
5.620876e-01
5.601684e-01
5.587423e-01
5.578641e-01
5.575676e-01
5.578641e-01
5.587423e-01
5.601685e-01
5.620877e-01
5.644263e-01
5.670942e-01
5.694624e-01
0.000000e+00
1.000000e+00
5.695428e-01
5.654834e-01
5.620876e-01
5.591112e-01
5.566685e-01
5.548534e-01
5.537357e-01
5.533583e-01
5.537357e-01
5.548534e-01
5.566686e-01
5.591113e-01
5.620877e-01
5.654834e-01
5.686412e-01
0.000000e+00
1.000000e+00
5.688688e-01
5.641614e-01
5.601683e-01
5.566684e-01
5.537962e-01
5.516619e-01
5.503476e-01
5.499038e-01
5.503476e-01
5.516619e-01
5.537962e-01
5.566686e-01
5.601685e-01
5.641614e-01
5.679673e-01
0.000000e+00
1.000000e+00
5.683679e-01
5.631791e-01
5.587422e-01
5.548534e-01
5.516618e-01
5.492903e-01
5.478300e-01
5.473369e-01
5.478300e-01
5.492904e-01
5.516619e-01
5.548535e-01
5.587424e-01
5.631791e-01
5.674666e-01
0.000000e+00
1.000000e+00
5.680595e-01
5.625742e-01
5.578640e-01
5.537356e-01
5.503475e-01
5.478299e-01
5.462796e-01
5.457562e-01
5.462797e-01
5.478300e-01
5.503476e-01
5.537358e-01
5.578642e-01
5.625742e-01
5.671583e-01
0.000000e+00
1.000000e+00
5.679553e-01
5.623699e-01
5.575675e-01
5.533582e-01
5.499037e-01
5.473368e-01
5.457562e-01
5.452224e-01
5.457562e-01
5.473369e-01
5.499039e-01
5.533584e-01
5.575677e-01
5.623699e-01
5.670541e-01
0.000000e+00
1.000000e+00
5.771078e-01
5.803224e-01
5.836302e-01
5.865296e-01
5.889090e-01
5.906772e-01
5.917660e-01
5.921336e-01
5.917659e-01
5.906771e-01
5.889090e-01
5.865294e-01
5.836300e-01
5.803219e-01
5.762056e-01
0.000000e+00
1.000000e+00
5.770361e-01
5.801817e-01
5.834259e-01
5.862696e-01
5.886034e-01
5.903375e-01
5.914054e-01
5.917659e-01
5.914053e-01
5.903374e-01
5.886033e-01
5.862695e-01
5.834257e-01
5.801812e-01
5.761339e-01
0.000000e+00
1.000000e+00
5.768237e-01
5.797650e-01
5.828210e-01
5.854997e-01
5.876980e-01
5.893316e-01
5.903375e-01
5.906771e-01
5.903375e-01
5.893315e-01
5.876980e-01
5.854996e-01
5.828208e-01
5.797645e-01
5.759215e-01
0.000000e+00
1.000000e+00
5.764787e-01
5.790883e-01
5.818387e-01
5.842494e-01
5.862279e-01
5.876980e-01
5.886033e-01
5.889090e-01
5.886033e-01
5.876980e-01
5.862278e-01
5.842493e-01
5.818385e-01
5.790879e-01
5.755765e-01
0.000000e+00
1.000000e+00
5.760145e-01
5.781777e-01
5.805167e-01
5.825669e-01
5.842494e-01
5.854996e-01
5.862695e-01
5.865295e-01
5.862695e-01
5.854996e-01
5.842493e-01
5.825668e-01
5.805165e-01
5.781773e-01
5.751123e-01
0.000000e+00
1.000000e+00
5.754488e-01
5.770681e-01
5.789058e-01
5.805166e-01
5.818386e-01
5.828209e-01
5.834258e-01
5.836301e-01
5.834258e-01
5.828209e-01
5.818386e-01
5.805166e-01
5.789057e-01
5.770677e-01
5.745467e-01
0.000000e+00
1.000000e+00
5.748035e-01
5.758022e-01
5.770680e-01
5.781776e-01
5.790881e-01
5.797648e-01
5.801814e-01
5.803221e-01
5.801814e-01
5.797647e-01
5.790881e-01
5.781775e-01
5.770679e-01
5.758019e-01
5.739014e-01
0.000000e+00
1.000000e+00
5.741032e-01
5.744286e-01
5.750739e-01
5.756395e-01
5.761037e-01
5.764487e-01
5.766611e-01
5.767328e-01
5.766611e-01
5.764486e-01
5.761037e-01
5.756395e-01
5.750738e-01
5.744283e-01
5.732011e-01
0.000000e+00
1.000000e+00
5.733749e-01
5.730001e-01
5.730000e-01
5.730000e-01
5.730000e-01
5.730000e-01
5.730000e-01
5.730000e-01
5.730000e-01
5.730000e-01
5.730000e-01
5.730000e-01
5.730000e-01
5.729998e-01
5.724729e-01
0.000000e+00
1.000000e+00
5.726466e-01
5.715716e-01
5.709262e-01
5.703605e-01
5.698963e-01
5.695514e-01
5.693390e-01
5.692673e-01
5.693390e-01
5.695514e-01
5.698963e-01
5.703606e-01
5.709262e-01
5.715714e-01
5.717448e-01
0.000000e+00
1.000000e+00
5.719463e-01
5.701980e-01
5.689320e-01
5.678225e-01
5.669119e-01
5.662353e-01
5.658186e-01
5.656779e-01
5.658186e-01
5.662353e-01
5.669119e-01
5.678225e-01
5.689321e-01
5.701978e-01
5.710445e-01
0.000000e+00
1.000000e+00
5.713009e-01
5.689321e-01
5.670942e-01
5.654834e-01
5.641614e-01
5.631791e-01
5.625742e-01
5.623700e-01
5.625742e-01
5.631792e-01
5.641615e-01
5.654835e-01
5.670943e-01
5.689320e-01
5.703992e-01
0.000000e+00
1.000000e+00
5.707353e-01
5.678225e-01
5.654834e-01
5.634332e-01
5.617507e-01
5.605004e-01
5.597305e-01
5.594706e-01
5.597305e-01
5.605004e-01
5.617507e-01
5.634333e-01
5.654835e-01
5.678224e-01
5.698336e-01
0.000000e+00
1.000000e+00
5.702710e-01
5.669119e-01
5.641614e-01
5.617506e-01
5.597722e-01
5.583020e-01
5.573967e-01
5.570911e-01
5.573968e-01
5.583021e-01
5.597722e-01
5.617507e-01
5.641615e-01
5.669118e-01
5.693695e-01
0.000000e+00
1.000000e+00
5.699260e-01
5.662353e-01
5.631791e-01
5.605004e-01
5.583020e-01
5.566685e-01
5.556626e-01
5.553229e-01
5.556626e-01
5.566685e-01
5.583021e-01
5.605005e-01
5.631792e-01
5.662352e-01
5.690246e-01
0.000000e+00
1.000000e+00
5.697136e-01
5.658186e-01
5.625742e-01
5.597305e-01
5.573967e-01
5.556626e-01
5.545947e-01
5.542341e-01
5.545947e-01
5.556626e-01
5.573968e-01
5.597306e-01
5.625743e-01
5.658185e-01
5.688122e-01
0.000000e+00
1.000000e+00
5.696417e-01
5.656779e-01
5.623699e-01
5.594705e-01
5.570910e-01
5.553229e-01
5.542341e-01
5.538665e-01
5.542341e-01
5.553230e-01
5.570911e-01
5.594706e-01
5.623701e-01
5.656778e-01
5.687404e-01
0.000000e+00
1.000000e+00
5.752779e-01
5.767330e-01
5.784192e-01
5.798973e-01
5.811104e-01
5.820117e-01
5.825668e-01
5.827542e-01
5.825668e-01
5.820117e-01
5.811103e-01
5.798973e-01
5.784191e-01
5.767326e-01
5.743758e-01
0.000000e+00
1.000000e+00
5.752414e-01
5.766612e-01
5.783151e-01
5.797648e-01
5.809545e-01
5.818386e-01
5.823830e-01
5.825668e-01
5.823830e-01
5.818386e-01
5.809545e-01
5.797647e-01
5.783150e-01
5.766609e-01
5.743393e-01
0.000000e+00
1.000000e+00
5.751331e-01
5.764488e-01
5.780067e-01
5.793723e-01
5.804930e-01
5.813258e-01
5.818386e-01
5.820117e-01
5.818386e-01
5.813257e-01
5.804930e-01
5.793722e-01
5.780066e-01
5.764484e-01
5.742310e-01
0.000000e+00
1.000000e+00
5.749572e-01
5.761039e-01
5.775059e-01
5.787349e-01
5.797435e-01
5.804930e-01
5.809545e-01
5.811103e-01
5.809545e-01
5.804930e-01
5.797435e-01
5.787349e-01
5.775058e-01
5.761035e-01
5.740551e-01
0.000000e+00
1.000000e+00
5.747206e-01
5.756396e-01
5.768320e-01
5.778771e-01
5.787349e-01
5.793723e-01
5.797648e-01
5.798973e-01
5.797648e-01
5.793723e-01
5.787349e-01
5.778771e-01
5.768319e-01
5.756393e-01
5.738185e-01
0.000000e+00
1.000000e+00
5.744322e-01
5.750740e-01
5.760108e-01
5.768320e-01
5.775059e-01
5.780067e-01
5.783150e-01
5.784192e-01
5.783150e-01
5.780066e-01
5.775059e-01
5.768319e-01
5.760107e-01
5.750736e-01
5.735301e-01
0.000000e+00
1.000000e+00
5.741032e-01
5.744286e-01
5.750739e-01
5.756395e-01
5.761037e-01
5.764487e-01
5.766611e-01
5.767328e-01
5.766611e-01
5.764486e-01
5.761037e-01
5.756395e-01
5.750738e-01
5.744283e-01
5.732011e-01
0.000000e+00
1.000000e+00
5.737462e-01
5.737284e-01
5.740572e-01
5.743456e-01
5.745823e-01
5.747581e-01
5.748664e-01
5.749030e-01
5.748664e-01
5.747581e-01
5.745823e-01
5.743456e-01
5.740572e-01
5.737281e-01
5.728442e-01
0.000000e+00
1.000000e+00
5.733749e-01
5.730001e-01
5.730000e-01
5.730000e-01
5.730000e-01
5.730000e-01
5.730000e-01
5.730000e-01
5.730000e-01
5.730000e-01
5.730000e-01
5.730000e-01
5.730000e-01
5.729998e-01
5.724729e-01
0.000000e+00
1.000000e+00
5.730036e-01
5.722719e-01
5.719428e-01
5.716544e-01
5.714178e-01
5.712419e-01
5.711336e-01
5.710971e-01
5.711336e-01
5.712419e-01
5.714178e-01
5.716544e-01
5.719428e-01
5.722716e-01
5.721017e-01
0.000000e+00
1.000000e+00
5.726466e-01
5.715716e-01
5.709262e-01
5.703605e-01
5.698963e-01
5.695514e-01
5.693390e-01
5.692672e-01
5.693390e-01
5.695514e-01
5.698963e-01
5.703606e-01
5.709262e-01
5.715714e-01
5.717448e-01
0.000000e+00
1.000000e+00
5.723176e-01
5.709263e-01
5.699893e-01
5.691681e-01
5.684942e-01
5.679934e-01
5.676850e-01
5.675809e-01
5.676850e-01
5.679934e-01
5.684942e-01
5.691681e-01
5.699893e-01
5.709261e-01
5.714158e-01
0.000000e+00
1.000000e+00
5.720292e-01
5.703606e-01
5.691681e-01
5.681229e-01
5.672651e-01
5.666278e-01
5.662353e-01
5.661028e-01
5.662353e-01
5.666278e-01
5.672652e-01
5.681229e-01
5.691681e-01
5.703604e-01
5.711275e-01
0.000000e+00
1.000000e+00
5.717925e-01
5.698964e-01
5.684941e-01
5.672651e-01
5.662565e-01
5.655070e-01
5.650455e-01
5.648897e-01
5.650455e-01
5.655071e-01
5.662565e-01
5.672652e-01
5.684942e-01
5.698962e-01
5.708909e-01
0.000000e+00
1.000000e+00
5.716166e-01
5.695514e-01
5.679933e-01
5.666278e-01
5.655070e-01
5.646743e-01
5.641615e-01
5.639883e-01
5.641615e-01
5.646743e-01
5.655071e-01
5.666278e-01
5.679934e-01
5.695513e-01
5.707151e-01
0.000000e+00
1.000000e+00
5.715083e-01
5.693390e-01
5.676850e-01
5.662353e-01
5.650455e-01
5.641615e-01
5.636171e-01