<?xml version="1.0"?>
<VTKFile type="StructuredGrid" version="0.1">
  <StructuredGrid WholeExtent="0 16 0 16 0 16">
    <Piece Extent="0 16 0 16 0 16">
      <PointData Scalars="temperature" Vectors="velocity">
        <DataArray type="Float32" Name="temperature" format="ascii">
1.000000e+00
9.688522e-01
9.377040e-01
9.066522e-01
8.850471e-01
8.443590e-01
8.128522e-01
7.815999e-01
7.503269e-01
7.190431e-01
6.877638e-01
6.564843e-01
6.252050e-01
5.939306e-01
5.626570e-01
5.313726e-01
5.002315e-01
1.000000e+00
9.688332e-01
9.376686e-01
9.065897e-01
8.833480e-01
8.442438e-01
8.127909e-01
7.815384e-01
7.502691e-01
7.189910e-01
6.877165e-01
6.564419e-01
6.251676e-01
5.938973e-01
5.626277e-01
5.313472e-01
5.002062e-01
1.000000e+00
9.687796e-01
9.375717e-01
9.064087e-01
8.788256e-01
8.439564e-01
8.126259e-01
7.813744e-01
7.501152e-01
7.188521e-01
6.875906e-01
6.563292e-01
6.250680e-01
5.938086e-01
5.625495e-01
5.312792e-01
5.001388e-01
1.000000e+00
9.687027e-01
9.374387e-01
9.061327e-01
8.730127e-01
8.436292e-01
8.124106e-01
7.811633e-01
7.499171e-01
7.186736e-01
6.874289e-01
6.561843e-01
6.249400e-01
5.936945e-01
5.624489e-01
5.311917e-01
5.000519e-01
1.000000e+00
9.686468e-01
9.373382e-01
9.058587e-01
8.678701e-01
8.433794e-01
8.122171e-01
7.809764e-01
7.497418e-01
7.185154e-01
6.872855e-01
6.560558e-01
6.248265e-01
5.935933e-01
5.623596e-01
5.311139e-01
4.999747e-01
1.000000e+00
9.686119e-01
9.372777e-01
9.056969e-01
8.651251e-01
8.432613e-01
8.121124e-01
7.808764e-01
7.496479e-01
7.184307e-01
6.872087e-01
6.559869e-01
6.247655e-01
5.935389e-01
5.623116e-01
5.310721e-01
4.999331e-01
1.000000e+00
9.686188e-01
9.372895e-01
9.057308e-01
8.656956e-01
8.432847e-01
8.121339e-01
7.808967e-01
7.496668e-01
7.184476e-01
6.872239e-01
6.560004e-01
6.247774e-01
5.935494e-01
5.623208e-01
5.310801e-01
4.999410e-01
1.000000e+00
9.686648e-01
9.373689e-01
9.059436e-01
8.693907e-01
8.434487e-01
8.122736e-01
7.810303e-01
7.497920e-01
7.185603e-01
6.873259e-01
6.560917e-01
6.248579e-01
5.936211e-01
5.623840e-01
5.311350e-01
4.999955e-01
1.000000e+00
9.687256e-01
9.374785e-01
9.062286e-01
8.749733e-01
8.437327e-01
8.124817e-01
7.812321e-01
7.499812e-01
7.187308e-01
6.874803e-01
6.562299e-01
6.249800e-01
5.937299e-01
5.624798e-01
5.312184e-01
5.000782e-01
1.000000e+00
9.688029e-01
9.376109e-01
9.064826e-01
8.805648e-01
8.440609e-01
8.126868e-01
7.814342e-01
7.501707e-01
7.189017e-01
6.876351e-01
6.563686e-01
6.251026e-01
5.938391e-01
5.625762e-01
5.313023e-01
5.001615e-01
1.000000e+00
9.688431e-01
9.376865e-01
9.066231e-01
8.842774e-01
8.443032e-01
8.128213e-01
7.815685e-01
7.502970e-01
7.190158e-01
6.877387e-01
6.564617e-01
6.251850e-01
5.939128e-01
5.626413e-01
5.313591e-01
5.002181e-01
1.000000e+00
9.688501e-01
9.376993e-01
9.066445e-01
8.848516e-01
8.443431e-01
8.128427e-01
7.815905e-01
7.503182e-01
7.190355e-01
6.877570e-01
6.564786e-01
6.252004e-01
5.939269e-01
5.626542e-01
5.313705e-01
5.002298e-01
1.000000e+00
9.688184e-01
9.376406e-01
9.065407e-01
8.820928e-01
8.441604e-01
8.127448e-01
7.814936e-01
7.502283e-01
7.189554e-01
6.876853e-01
6.564151e-01
6.251451e-01
5.938782e-01
5.626118e-01
5.313341e-01
5.001941e-01
1.000000e+00
9.687530e-01
9.375258e-01
9.063224e-01
8.769372e-01
8.438469e-01
8.125596e-01
7.813115e-01
7.500587e-01
7.188038e-01
6.875491e-01
6.562942e-01
6.250391e-01
5.937845e-01
5.625298e-01
5.312633e-01
5.001244e-01
1.000000e+00
9.686841e-01
9.374028e-01
9.060375e-01
8.711293e-01
8.435381e-01
8.123479e-01
7.811063e-01
7.498677e-01
7.186328e-01
6.873954e-01
6.561575e-01
6.249192e-01
5.936785e-01
5.624369e-01
5.311830e-01
5.000451e-01
1.000000e+00
9.686313e-01
9.373104e-01
9.057891e-01
8.666264e-01
8.433315e-01
8.121820e-01
7.809477e-01
7.497199e-01
7.185004e-01
6.872762e-01
6.560514e-01
6.248260e-01
5.935960e-01
5.623647e-01
5.311205e-01
4.999834e-01
1.000000e+00
9.686109e-01
9.372760e-01
9.056903e-01
8.649386e-01
8.432617e-01
8.121192e-01
7.808879e-01
7.496640e-01
7.184502e-01
6.872308e-01
6.560109e-01
6.247904e-01
5.935645e-01
5.623370e-01
5.310966e-01
4.999597e-01
1.000000e+00
9.688435e-01
9.376873e-01
9.066249e-01
8.842805e-01
8.443062e-01
8.128243e-01
7.815720e-01
7.503007e-01
7.190195e-01
6.877424e-01
6.564652e-01
6.251883e-01
5.939158e-01
5.626440e-01
5.313614e-01
5.002203e-01
1.000000e+00
9.688252e-01
9.376536e-01
9.065660e-01
8.827111e-01
8.442015e-01
8.127677e-01
7.815152e-01
7.502473e-01
7.189713e-01
6.876987e-01
6.564261e-01
6.251537e-01
5.938850e-01
5.626169e-01
5.313378e-01
5.001970e-01
1.000000e+00
9.687760e-01
9.375641e-01
9.063956e-01
8.785338e-01
8.439388e-01
8.126152e-01
7.813637e-01
7.501051e-01
7.188431e-01
6.875825e-01
6.563219e-01
6.250617e-01
5.938030e-01
5.625446e-01
5.312750e-01
5.001346e-01
1.000000e+00
9.687064e-01
9.374437e-01
9.061413e-01
8.731635e-01
8.436371e-01
8.124164e-01
7.811688e-01
7.499223e-01
7.186782e-01
6.874331e-01
6.561881e-01
6.249434e-01
5.936976e-01
5.624516e-01
5.311941e-01
5.000543e-01
1.000000e+00
9.686526e-01
9.373477e-01
9.058890e-01
8.684116e-01
8.434040e-01
8.122377e-01
7.809961e-01
7.497603e-01
7.185321e-01
6.873007e-01
6.560695e-01
6.248385e-01
5.936041e-01
5.623692e-01
5.311223e-01
4.999830e-01
1.000000e+00
9.686210e-01
9.372931e-01
9.057420e-01
8.658747e-01
8.432925e-01
8.121411e-01
7.809037e-01
7.496736e-01
7.184539e-01
6.872297e-01
6.560058e-01
6.247822e-01
5.935538e-01
5.623248e-01
5.310836e-01
4.999446e-01
1.000000e+00
9.686273e-01
9.373040e-01
9.057729e-01
8.664020e-01
8.433147e-01
8.121609e-01
7.809224e-01
7.496911e-01
7.184695e-01
6.872438e-01
6.560183e-01
6.247932e-01
5.935635e-01
5.623333e-01
5.310910e-01
4.999519e-01
1.000000e+00
9.686695e-01
9.373767e-01
9.059666e-01
8.698167e-01
8.434689e-01
8.122898e-01
7.810459e-01
7.498067e-01
7.185737e-01
6.873380e-01
6.561026e-01
6.248676e-01
5.936298e-01
5.623917e-01
5.311418e-01
5.000022e-01
1.000000e+00
9.687277e-01
9.374811e-01
9.062298e-01
8.749748e-01
8.437328e-01
8.124820e-01
7.812323e-01
7.499815e-01
7.187311e-01
6.874806e-01
6.562303e-01
6.249804e-01
5.937302e-01
5.624802e-01
5.312187e-01
5.000786e-01
1.000000e+00
9.687964e-01
9.375995e-01
9.064638e-01
8.801405e-01
8.440345e-01
8.126715e-01
7.814190e-01
7.501565e-01
7.188890e-01
6.876236e-01
6.563584e-01
6.250936e-01
5.938312e-01
5.625692e-01
5.312962e-01
5.001556e-01
1.000000e+00
9.688348e-01
9.376710e-01
9.065976e-01
8.835696e-01
8.442556e-01
8.127959e-01
7.815431e-01
7.502732e-01
7.189944e-01
6.877193e-01
6.564444e-01
6.251698e-01
5.938992e-01
5.626294e-01
5.313487e-01
5.002078e-01
1.000000e+00
9.688413e-01
9.376828e-01
9.066175e-01
8.840999e-01
8.442919e-01
8.128157e-01
7.815634e-01
7.502928e-01
7.190125e-01
6.877362e-01
6.564600e-01
6.251840e-01
5.939123e-01
5.626413e-01
5.313593e-01
5.002186e-01
1.000000e+00
9.688110e-01
9.376273e-01
9.065198e-01
8.815516e-01
8.441254e-01
8.127252e-01
7.814739e-01
7.502097e-01
7.189385e-01
6.876700e-01
6.564014e-01
6.251329e-01
5.938673e-01
5.626021e-01
5.313257e-01
5.001856e-01
1.000000e+00
9.687523e-01
9.375227e-01
9.063160e-01
8.767891e-01
8.438381e-01
8.125539e-01
7.813056e-01
7.500531e-01
7.187985e-01
6.875442e-01
6.562897e-01
6.250350e-01
5.937808e-01
5.625264e-01
5.312603e-01
5.001212e-01
1.000000e+00
9.686880e-01
9.374087e-01
9.060532e-01
8.714232e-01
8.435523e-01
8.123584e-01
7.811161e-01
7.498766e-01
7.186406e-01
6.874023e-01
6.561635e-01
6.249242e-01
5.936828e-01
5.624405e-01
5.311861e-01
5.000480e-01
1.000000e+00
9.686386e-01
9.373231e-01
9.058260e-01
8.672622e-01
8.433588e-01
8.122053e-01
7.809696e-01
7.497401e-01
7.185183e-01
6.872922e-01
6.560654e-01
6.248382e-01
5.936066e-01
5.623738e-01
5.311283e-01
4.999909e-01
1.000000e+00
9.686198e-01
9.372913e-01
9.057358e-01
8.657024e-01
8.432928e-01
8.121475e-01
7.809143e-01
7.496884e-01
7.184719e-01
6.872502e-01
6.560280e-01
6.248053e-01
5.935774e-01
5.623482e-01
5.311061e-01
4.999690e-01
1.000000e+00
9.688176e-01
9.376392e-01
9.065428e-01
8.820975e-01
8.441607e-01
8.127450e-01
7.814926e-01
7.502263e-01
7.189525e-01
6.876818e-01
6.564111e-01
6.251406e-01
5.938734e-01
5.626067e-01
5.313291e-01
5.001884e-01
1.000000e+00
9.688031e-01
9.376129e-01
9.064951e-01
8.808974e-01
8.440840e-01
8.127016e-01
7.814492e-01
7.501855e-01
7.189157e-01
6.876484e-01
6.563812e-01
6.251142e-01
5.938499e-01
5.625860e-01
5.313111e-01
5.001705e-01
1.000000e+00
9.687651e-01
9.375438e-01
9.063588e-01
8.777020e-01
8.438891e-01
8.125847e-01
7.813333e-01
7.500768e-01
7.188177e-01
6.875595e-01
6.563014e-01
6.250437e-01
5.937871e-01
5.625306e-01
5.312629e-01
5.001227e-01
1.000000e+00
9.687143e-01
9.374547e-01
9.061644e-01
8.735921e-01
8.436595e-01
8.124326e-01
7.811842e-01
7.499369e-01
7.186915e-01
6.874452e-01
6.561990e-01
6.249531e-01
5.937064e-01
5.624595e-01
5.312010e-01
5.000612e-01
1.000000e+00
9.686708e-01
9.373782e-01
9.059747e-01
8.699536e-01
8.434760e-01
8.122962e-01
7.810521e-01
7.498129e-01
7.185797e-01
6.873439e-01
6.561082e-01
6.248729e-01
5.936348e-01
5.623964e-01
5.311460e-01
5.000067e-01
1.000000e+00
9.686470e-01
9.373374e-01
9.058667e-01
8.680103e-01
8.433857e-01
8.122225e-01
7.809814e-01
7.497465e-01
7.185198e-01
6.872896e-01
6.560595e-01
6.248298e-01
5.935964e-01
5.623624e-01
5.311165e-01
4.999773e-01
1.000000e+00
9.686519e-01
9.373457e-01
9.058894e-01
8.684142e-01
8.434038e-01
8.122376e-01
7.809957e-01
7.497599e-01
7.185318e-01
6.873004e-01
6.560690e-01
6.248382e-01
5.936038e-01
5.623689e-01
5.311221e-01
4.999829e-01
1.000000e+00
9.686837e-01
9.374007e-01
9.060322e-01
8.710297e-01
8.435278e-01
8.123359e-01
7.810902e-01
7.498484e-01
7.186115e-01
6.873725e-01
6.561336e-01
6.248951e-01
5.936545e-01
5.624136e-01
5.311609e-01
5.000213e-01
1.000000e+00
9.687307e-01
9.374840e-01
9.062319e-01
8.749786e-01
8.437332e-01
8.124828e-01
7.812330e-01
7.499822e-01
7.187320e-01
6.874816e-01
6.562313e-01
6.249814e-01
5.937313e-01
5.624813e-01
5.312198e-01
5.000797e-01
1.000000e+00
9.687797e-01
9.375702e-01
9.064121e-01
8.789314e-01
8.439608e-01
8.126280e-01
7.813758e-01
7.501162e-01
7.188528e-01
6.875910e-01
6.563294e-01
6.250681e-01
5.938086e-01
5.625494e-01
5.312790e-01
5.001386e-01
1.000000e+00
9.688107e-01
9.376267e-01
9.065207e-01
8.815540e-01
8.441240e-01
8.127235e-01
7.814708e-01
7.502055e-01
7.189335e-01
6.876642e-01
6.563952e-01
6.251264e-01
5.938606e-01
5.625954e-01
5.313192e-01
5.001785e-01
1.000000e+00
9.688156e-01
9.376355e-01
9.065367e-01
8.819593e-01
8.441505e-01
8.127387e-01
7.814864e-01
7.502205e-01
7.189474e-01
6.876772e-01
6.564071e-01
6.251373e-01
5.938706e-01
5.626045e-01
5.313273e-01
5.001868e-01
1.000000e+00
9.687920e-01
9.375925e-01
9.064578e-01
8.800103e-01
8.440281e-01
8.126692e-01
7.814179e-01
7.501569e-01
7.188907e-01
6.876265e-01
6.563623e-01
6.250982e-01
5.938362e-01
5.625745e-01
5.313015e-01
5.001616e-01
1.000000e+00
9.687482e-01
9.375136e-01
9.062977e-01
8.763668e-01
8.438133e-01
8.125378e-01
7.812891e-01
7.500371e-01
7.187836e-01
6.875303e-01
6.562768e-01
6.250233e-01
5.937700e-01
5.625166e-01
5.312515e-01
5.001123e-01
1.000000e+00
9.686985e-01
9.374261e-01
9.060975e-01
8.722597e-01
8.435935e-01
8.123883e-01
7.811441e-01
7.499020e-01
7.186628e-01
6.874217e-01
6.561802e-01
6.249385e-01
5.936950e-01
5.624508e-01
5.311946e-01
5.000562e-01
1.000000e+00
9.686603e-01
9.373601e-01
9.059283e-01
8.690732e-01
8.434396e-01
8.122716e-01
7.810319e-01
7.497976e-01
7.185692e-01
6.873374e-01
6.561052e-01
6.248726e-01
5.936366e-01
5.623997e-01
5.311504e-01
5.000125e-01
1.000000e+00
9.686457e-01
9.373355e-01
9.058618e-01
8.678783e-01
8.433858e-01
8.122274e-01
7.809896e-01
7.497580e-01
7.185336e-01
6.873053e-01
6.560765e-01
6.248474e-01
5.936142e-01
5.623800e-01
5.311334e-01
4.999956e-01
1.000000e+00
9.687780e-01
9.375673e-01
9.064084e-01
8.788316e-01
8.439561e-01
8.126259e-01
7.813742e-01
7.501153e-01
7.188526e-01
6.875914e-01
6.563302e-01
6.250692e-01
5.938099e-01
5.625508e-01
5.312805e-01
5.001402e-01
1.000000e+00
9.687702e-01
9.375532e-01
9.063805e-01
8.781832e-01
8.439173e-01
8.126023e-01
7.813508e-01
7.500933e-01
7.188328e-01
6.875734e-01
6.563141e-01
6.250550e-01
5.937972e-01
5.625397e-01
5.312708e-01
5.001306e-01
1.000000e+00
9.687493e-01
9.375157e-01
9.063029e-01
8.764557e-01
8.438166e-01
8.125388e-01
7.812881e-01
7.500345e-01
7.187797e-01
6.875253e-01
6.562709e-01
6.250168e-01
5.937632e-01
5.625097e-01
5.312447e-01
5.001048e-01
1.000000e+00
9.687226e-01
9.374681e-01
9.061971e-01
8.742318e-01
8.436934e-01
8.124566e-01
7.812074e-01
7.499588e-01
7.187114e-01
6.874634e-01
6.562154e-01
6.249678e-01
5.937195e-01
5.624711e-01
5.312112e-01
5.000715e-01
1.000000e+00
9.686986e-01
9.374264e-01
9.060978e-01
8.722612e-01
8.435901e-01
8.123829e-01
7.811359e-01
7.498917e-01
7.186509e-01
6.874085e-01
6.561663e-01
6.249243e-01
5.936808e-01
5.624370e-01
5.311815e-01
5.000420e-01
1.000000e+00
9.686858e-01
9.374042e-01
9.060425e-01
8.712080e-01
8.435372e-01
8.123433e-01
7.810976e-01
7.498557e-01
7.186184e-01
6.873791e-01
6.561398e-01
6.249009e-01
5.936600e-01
5.624186e-01
5.311655e-01
5.000261e-01
1.000000e+00
9.686885e-01
9.374088e-01
9.060540e-01
8.714269e-01
8.435480e-01
8.123514e-01
7.811054e-01
7.498630e-01
7.186249e-01
6.873849e-01
6.561450e-01
6.249055e-01
5.936640e-01
5.624221e-01
5.311685e-01
5.000291e-01
1.000000e+00
9.687056e-01
9.374385e-01
9.061276e-01
8.728442e-01
8.436198e-01
8.124044e-01
7.811566e-01
7.499109e-01
7.186681e-01
6.874240e-01
6.561800e-01
6.249363e-01
5.936914e-01
5.624463e-01
5.311895e-01
5.000498e-01
1.000000e+00
9.687316e-01
9.374841e-01
9.062334e-01
8.749824e-01
8.437337e-01
8.124838e-01
7.812339e-01
7.499834e-01
7.187333e-01
6.874831e-01
6.562329e-01
6.249831e-01
5.937330e-01
5.624829e-01
5.312213e-01
5.000814e-01
1.000000e+00
9.687573e-01
9.375300e-01
9.063329e-01
8.771207e-01
8.438542e-01
8.125625e-01
7.813113e-01
7.500559e-01
7.187988e-01
6.875423e-01
6.562860e-01
6.250300e-01
5.937748e-01
5.625197e-01
5.312534e-01
5.001132e-01
1.000000e+00
9.687744e-01
9.375608e-01
9.063955e-01
8.785380e-01
8.439378e-01
8.126144e-01
7.813627e-01
7.501043e-01
7.188424e-01
6.875820e-01
6.563216e-01
6.250615e-01
5.938029e-01
5.625446e-01
5.312750e-01
5.001348e-01
1.000000e+00
9.687770e-01
9.375654e-01
9.064048e-01
8.787568e-01
8.439511e-01
8.126227e-01
7.813711e-01
7.501124e-01
7.188499e-01
6.875890e-01
6.563281e-01
6.250674e-01
5.938083e-01
5.625495e-01
5.312794e-01
5.001392e-01
1.000000e+00
9.687643e-01
9.375423e-01
9.063590e-01
8.777035e-01
8.438889e-01
8.125849e-01
7.813340e-01
7.500780e-01
7.188193e-01
6.875615e-01
6.563038e-01
6.250463e-01
5.937897e-01
5.625333e-01
5.312655e-01
5.001256e-01
1.000000e+00
9.687405e-01
9.374998e-01
9.062693e-01
8.757334e-01
8.437767e-01
8.125136e-01
7.812643e-01
7.500131e-01
7.187613e-01
6.875094e-01
6.562575e-01
6.250057e-01
5.937538e-01
5.625019e-01
5.312384e-01
5.000989e-01
1.000000e+00
9.687137e-01
9.374525e-01
9.061618e-01
8.735106e-01
8.436570e-01
8.124328e-01
7.811859e-01
7.499400e-01
7.186959e-01
6.874506e-01
6.562052e-01
6.249597e-01
5.937132e-01
5.624663e-01
5.312076e-01
5.000685e-01
1.000000e+00
9.686931e-01
9.374166e-01
9.060738e-01
8.717843e-01
8.435691e-01
8.123699e-01
7.811252e-01
7.498835e-01
7.186452e-01
6.874050e-01
6.561646e-01
6.249240e-01
5.936816e-01
5.624386e-01
5.311836e-01
5.000448e-01
1.000000e+00
9.686849e-01
9.374030e-01
9.060397e-01
8.711363e-01
8.435372e-01
8.123460e-01
7.811022e-01
7.498620e-01
7.186259e-01
6.873875e-01
6.561489e-01
6.249103e-01
5.936693e-01
5.624278e-01
5.311743e-01
5.000356e-01
1.000000e+00
9.687313e-01
9.374840e-01
9.062326e-01
8.749817e-01
8.437343e-01
8.124841e-01
7.812349e-01
7.499847e-01
7.187349e-01
6.874848e-01
6.562348e-01
6.249850e-01
5.937349e-01
5.624848e-01
5.312232e-01
5.000834e-01
1.000000e+00
9.687315e-01
9.374840e-01
9.062331e-01
8.749825e-01
8.437344e-01
8.124844e-01
7.812350e-01
7.499848e-01
7.187350e-01
6.874850e-01
6.562349e-01
6.249851e-01
5.937351e-01
5.624849e-01
5.312233e-01
5.000836e-01
1.000000e+00
9.687315e-01
9.374838e-01
9.062338e-01
8.749837e-01
8.437342e-01
8.124846e-01
7.812349e-01
7.499848e-01
7.187350e-01
6.874849e-01
6.562349e-01
6.249850e-01
5.937350e-01
5.624849e-01
5.312232e-01
5.000835e-01
1.000000e+00
9.687315e-01
9.374838e-01
9.062340e-01
8.749839e-01
8.437342e-01
8.124846e-01
7.812349e-01
7.499847e-01
7.187349e-01
6.874849e-01
6.562348e-01
6.249850e-01
5.937350e-01
5.624848e-01
5.312232e-01
5.000835e-01
1.000000e+00
9.687315e-01
9.374840e-01
9.062334e-01
8.749828e-01
8.437343e-01
8.124844e-01
7.812349e-01
7.499847e-01
7.187349e-01
6.874848e-01
6.562348e-01
6.249849e-01
5.937349e-01
5.624848e-01
5.312232e-01
5.000834e-01
1.000000e+00
9.687314e-01
9.374841e-01
9.062328e-01
8.749817e-01
8.437344e-01
8.124842e-01
7.812349e-01
7.499847e-01
7.187349e-01
6.874848e-01
6.562347e-01
6.249849e-01
5.937349e-01
5.624848e-01
5.312232e-01
5.000834e-01
1.000000e+00
9.687314e-01
9.374841e-01
9.062330e-01
8.749820e-01
8.437344e-01
8.124842e-01
7.812349e-01
7.499847e-01
7.187349e-01
6.874848e-01
6.562347e-01
6.249849e-01
5.937349e-01
5.624848e-01
5.312231e-01
5.000834e-01
1.000000e+00
9.687315e-01
9.374839e-01
9.062337e-01
8.749833e-01
8.437343e-01
8.124845e-01
7.812349e-01
7.499847e-01
7.187349e-01
6.874848e-01
6.562347e-01
6.249849e-01
5.937349e-01
5.624848e-01
5.312231e-01
5.000834e-01
1.000000e+00
9.687315e-01
9.374838e-01
9.062341e-01
8.749841e-01
8.437343e-01
8.124847e-01
7.812350e-01
7.499848e-01
7.187349e-01
6.874848e-01
6.562348e-01
6.249850e-01
5.937349e-01
5.624848e-01
5.312231e-01
5.000834e-01
1.000000e+00
9.687316e-01
9.374840e-01
9.062337e-01
8.749834e-01
8.437344e-01
8.124846e-01
7.812351e-01
7.499848e-01
7.187350e-01
6.874849e-01
6.562349e-01
6.249850e-01
5.937349e-01
5.624848e-01
5.312231e-01
5.000834e-01
1.000000e+00
9.687316e-01
9.374842e-01
9.062330e-01
8.749819e-01
8.437345e-01
8.124844e-01
7.812351e-01
7.499848e-01
7.187350e-01
6.874849e-01
6.562349e-01
6.249851e-01
5.937349e-01
5.624848e-01
5.312231e-01
5.000834e-01
1.000000e+00
9.687316e-01
9.374842e-01
9.062328e-01
8.749813e-01
8.437345e-01
8.124844e-01
7.812351e-01
7.499849e-01
7.187350e-01
6.874849e-01
6.562349e-01
6.249851e-01
5.937349e-01
5.624848e-01
5.312231e-01
5.000834e-01
1.000000e+00
9.687315e-01
9.374841e-01
9.062334e-01
8.749824e-01
8.437344e-01
8.124846e-01
7.812351e-01
7.499848e-01
7.187350e-01
6.874849e-01
6.562349e-01
6.249851e-01
5.937349e-01
5.624848e-01
5.312231e-01
5.000833e-01
1.000000e+00
9.687315e-01
9.374839e-01
9.062341e-01
8.749839e-01
8.437343e-01
8.124847e-01
7.812351e-01
7.499848e-01
7.187350e-01
6.874848e-01
6.562348e-01
6.249850e-01
5.937349e-01
5.624847e-01
5.312230e-01
5.000833e-01
1.000000e+00
9.687315e-01
9.374839e-01
9.062340e-01
8.749840e-01
8.437344e-01
8.124847e-01
7.812351e-01
7.499848e-01
7.187349e-01
6.874848e-01
6.562347e-01
6.249849e-01
5.937348e-01
5.624847e-01
5.312230e-01
5.000832e-01
1.000000e+00
9.687315e-01
9.374841e-01
9.062333e-01
8.749827e-01
8.437346e-01
8.124845e-01
7.812351e-01
7.499848e-01
7.187349e-01
6.874848e-01
6.562347e-01
6.249848e-01
5.937347e-01
5.624846e-01
5.312229e-01
5.000831e-01
1.000000e+00
9.687313e-01
9.374840e-01
9.062326e-01
8.749815e-01
8.437344e-01
8.124841e-01
7.812348e-01
7.499846e-01
7.187347e-01
6.874845e-01
6.562344e-01
6.249846e-01
5.937345e-01
5.624843e-01
5.312227e-01
5.000828e-01
1.000000e+00
9.686846e-01
9.374023e-01
9.060382e-01
8.711340e-01
8.435335e-01
8.123407e-01
7.810955e-01
7.498541e-01
7.186172e-01
6.873783e-01
6.561395e-01
6.249009e-01
5.936601e-01
5.624189e-01
5.311659e-01
5.000267e-01
1.000000e+00
9.686927e-01
9.374160e-01
9.060726e-01
8.717825e-01
8.435660e-01
8.123653e-01
7.811192e-01
7.498763e-01
7.186373e-01
6.873965e-01
6.561558e-01
6.249153e-01
5.936730e-01
5.624303e-01
5.311758e-01
5.000365e-01
1.000000e+00
9.687136e-01
9.374524e-01
9.061611e-01
8.735095e-01
8.436549e-01
8.124299e-01
7.811818e-01
7.499350e-01
7.186902e-01
6.874445e-01
6.561988e-01
6.249533e-01
5.937068e-01
5.624601e-01
5.312018e-01
5.000622e-01
1.000000e+00
9.687405e-01
9.374999e-01
9.062690e-01
8.757332e-01
8.437758e-01
8.125123e-01
7.812623e-01
7.500106e-01
7.187584e-01
6.875063e-01
6.562542e-01
6.250022e-01
5.937504e-01
5.624985e-01
5.312352e-01
5.000954e-01
1.000000e+00
9.687643e-01
9.375424e-01
9.063590e-01
8.777039e-01
8.438889e-01
8.125849e-01
7.813338e-01
7.500777e-01
7.188189e-01
6.875611e-01
6.563033e-01
6.250456e-01
5.937890e-01
5.625326e-01
5.312648e-01
5.001248e-01
1.000000e+00
9.687771e-01
9.375655e-01
9.064050e-01
8.787574e-01
8.439517e-01
8.126235e-01
7.813721e-01
7.501137e-01
7.188513e-01
6.875905e-01
6.563296e-01
6.250689e-01
5.938098e-01
5.625509e-01
5.312807e-01
5.001406e-01
1.000000e+00
9.687745e-01
9.375607e-01
9.063957e-01
8.785385e-01
8.439387e-01
8.126156e-01
7.813644e-01
7.501064e-01
7.188449e-01
6.875847e-01
6.563245e-01
6.250644e-01
5.938058e-01
5.625474e-01
5.312777e-01
5.001376e-01
1.000000e+00
9.687573e-01
9.375299e-01
9.063331e-01
8.771209e-01
8.438552e-01
8.125639e-01
7.813133e-01
7.500585e-01
7.188017e-01
6.875457e-01
6.562895e-01
6.250335e-01
5.937784e-01
5.625233e-01
5.312567e-01
5.001168e-01
1.000000e+00
9.687316e-01
9.374840e-01
9.062337e-01
8.749827e-01
8.437348e-01
8.124853e-01
7.812361e-01
7.499862e-01
7.187366e-01
6.874866e-01
6.562367e-01
6.249869e-01
5.937369e-01
5.624867e-01
5.312249e-01
5.000853e-01
1.000000e+00
9.687057e-01
9.374386e-01
9.061279e-01
8.728447e-01
8.436209e-01
8.124060e-01
7.811589e-01
7.499137e-01
7.186713e-01
6.874275e-01
6.561837e-01
6.249401e-01
5.936951e-01
5.624499e-01
5.311930e-01
5.000536e-01
1.000000e+00
9.686886e-01
9.374090e-01
9.060544e-01
8.714274e-01
8.435490e-01
8.123530e-01
7.811075e-01
7.498655e-01
7.186278e-01
6.873879e-01
6.561482e-01
6.249086e-01
5.936671e-01
5.624251e-01
5.311713e-01
5.000321e-01
1.000000e+00
9.686860e-01
9.374045e-01
9.060428e-01
8.712083e-01
8.435380e-01
8.123445e-01
7.810992e-01
7.498574e-01
7.186203e-01
6.873809e-01
6.561417e-01
6.249028e-01
5.936617e-01
5.624202e-01
5.311669e-01
5.000276e-01
1.000000e+00
9.686987e-01
9.374267e-01
9.060980e-01
8.722615e-01
8.435904e-01
8.123833e-01
7.811362e-01
7.498918e-01
7.186508e-01
6.874083e-01
6.561659e-01
6.249239e-01
5.936802e-01
5.624364e-01
5.311808e-01
5.000412e-01
1.000000e+00
9.687226e-01
9.374683e-01
9.061971e-01
8.742320e-01
8.436928e-01
8.124555e-01
7.812058e-01
7.499566e-01
7.187087e-01
6.874603e-01
6.562121e-01
6.249644e-01
5.937160e-01
5.624676e-01
5.312078e-01
5.000677e-01
1.000000e+00
9.687493e-01
9.375157e-01
9.063025e-01
8.764553e-01
8.438147e-01
8.125360e-01
7.812842e-01
7.500295e-01
7.187740e-01
6.875190e-01
6.562643e-01
6.250101e-01
5.937564e-01
5.625031e-01
5.312384e-01
5.000979e-01
1.000000e+00
9.687700e-01
9.375527e-01
9.063795e-01
8.781816e-01
8.439141e-01
8.125978e-01
7.813449e-01
7.500861e-01
7.188247e-01
6.875646e-01
6.563049e-01
6.250457e-01
5.937880e-01
5.625307e-01
5.312623e-01
5.001214e-01
1.000000e+00
9.687775e-01
9.375664e-01
9.064069e-01
8.788289e-01
8.439520e-01
8.126205e-01
7.813674e-01
7.501071e-01
7.188435e-01
6.875816e-01
6.563200e-01
6.250590e-01
5.937997e-01
5.625409e-01
5.312711e-01
5.001301e-01
1.000000e+00
9.686450e-01
9.373341e-01
9.058586e-01
8.678739e-01
8.433796e-01
8.122178e-01
7.809774e-01
7.497435e-01
7.185176e-01
6.872881e-01
6.560587e-01
6.248296e-01
5.935967e-01
5.623630e-01
5.311174e-01
4.999786e-01
1.000000e+00
9.686598e-01
9.373591e-01
9.059260e-01
8.690701e-01
8.434344e-01
8.122633e-01
7.810211e-01
7.497844e-01
7.185545e-01
6.873216e-01
6.560888e-01
6.248562e-01
5.936204e-01
5.623839e-01
5.311356e-01
4.999966e-01
1.000000e+00
9.686983e-01
9.374260e-01
9.060963e-01
8.722580e-01
8.435900e-01
8.123831e-01
7.811367e-01
7.498929e-01
7.186524e-01
6.874103e-01
6.561682e-01
6.249263e-01
5.936829e-01
5.624391e-01
5.311836e-01
5.000442e-01
1.000000e+00
9.687481e-01
9.375139e-01
9.062973e-01
8.763661e-01
8.438115e-01
8.125355e-01
7.812856e-01
7.500326e-01
7.187784e-01
6.875245e-01
6.562705e-01
6.250167e-01
5.937635e-01
5.625101e-01
5.312453e-01
5.001055e-01
1.000000e+00
9.687922e-01
9.375929e-01
9.064576e-01
8.800104e-01
8.440280e-01
8.126693e-01
7.814177e-01
7.501566e-01
7.188901e-01
6.876258e-01
6.563613e-01
6.250969e-01
5.938349e-01
5.625731e-01
5.313001e-01
5.001598e-01
1.000000e+00
9.688156e-01
9.376355e-01
9.065369e-01
8.819600e-01
8.441516e-01
8.127403e-01
7.814885e-01
7.502230e-01
7.189501e-01
6.876801e-01
6.564101e-01
6.251401e-01
5.938734e-01
5.626070e-01
5.313295e-01
5.001891e-01
1.000000e+00
9.688107e-01
9.376266e-01
9.065209e-01
8.815547e-01
8.441258e-01
8.127259e-01
7.814742e-01
7.502097e-01
7.189381e-01
6.876694e-01
6.564005e-01
6.251317e-01
5.938659e-01
5.626005e-01
5.313239e-01
5.001835e-01
1.000000e+00
9.687797e-01
9.375700e-01
9.064123e-01
8.789319e-01
8.439627e-01
8.126307e-01
7.813797e-01
7.501211e-01
7.188584e-01
6.875972e-01
6.563360e-01
6.250748e-01
5.938153e-01
5.625559e-01
5.312852e-01
5.001452e-01
1.000000e+00
9.687309e-01
9.374840e-01
9.062324e-01
8.749791e-01
8.437352e-01
8.124856e-01
7.812370e-01
7.499873e-01
7.187379e-01
6.874881e-01
6.562383e-01
6.249885e-01
5.937385e-01
5.624883e-01
5.312265e-01
5.000870e-01
1.000000e+00
9.686839e-01
9.374009e-01
9.060330e-01
8.710304e-01
8.435297e-01
8.123389e-01
7.810943e-01
7.498535e-01
7.186173e-01
6.873788e-01
6.561403e-01
6.249020e-01
5.936614e-01
5.624204e-01
5.311674e-01
5.000284e-01
1.000000e+00
9.686521e-01
9.373461e-01
9.058904e-01
8.684152e-01
8.434057e-01
8.122405e-01
7.809995e-01
7.497644e-01
7.185369e-01
6.873058e-01
6.560747e-01
6.248439e-01
5.936095e-01
5.623745e-01
5.311274e-01
4.999886e-01
1.000000e+00
9.686474e-01
9.373381e-01
9.058678e-01
8.680116e-01
8.433872e-01
8.122247e-01
7.809840e-01
7.497495e-01
7.185230e-01
6.872929e-01
6.560628e-01
6.248331e-01
5.935996e-01
5.623655e-01
5.311194e-01
4.999804e-01
1.000000e+00
9.686710e-01
9.373787e-01
9.059755e-01
8.699550e-01
8.434766e-01
8.122967e-01
7.810525e-01
7.498130e-01
7.185796e-01
6.873435e-01
6.561076e-01
6.248721e-01
5.936339e-01
5.623954e-01
5.311450e-01
5.000055e-01
1.000000e+00
9.687149e-01
9.374554e-01
9.061645e-01
8.735927e-01
8.436582e-01
8.124305e-01
7.811811e-01
7.499326e-01
7.186865e-01
6.874396e-01
6.561930e-01
6.249469e-01
5.937000e-01
5.624531e-01
5.311949e-01
5.000546e-01
1.000000e+00
9.687646e-01
9.375431e-01
9.063577e-01
8.777009e-01
8.438851e-01
8.125792e-01
7.813259e-01
7.500675e-01
7.188072e-01
6.875481e-01
6.562895e-01
6.250316e-01
5.937749e-01
5.625187e-01
5.312515e-01
5.001104e-01
1.000000e+00
9.688025e-01
9.376117e-01
9.064932e-01
8.808939e-01
8.440773e-01
8.126930e-01
7.814380e-01
7.501720e-01
7.189008e-01
6.876323e-01
6.563645e-01
6.250974e-01
5.938331e-01
5.625698e-01
5.312957e-01
5.001539e-01
1.000000e+00
9.688167e-01
9.376374e-01
9.065401e-01
8.820921e-01
8.441525e-01
8.127350e-01
7.814799e-01
7.502112e-01
7.189359e-01
6.876640e-01
6.563926e-01
6.251221e-01
5.938550e-01
5.625889e-01
5.313122e-01
5.001702e-01
1.000000e+00
9.686185e-01
9.372890e-01
9.057311e-01
8.656966e-01
8.432852e-01
8.121350e-01
7.808985e-01
7.496696e-01
7.184510e-01
6.872278e-01
6.560048e-01
6.247820e-01
5.935543e-01
5.623257e-01
5.310850e-01
4.999465e-01
1.000000e+00
9.686379e-01
9.373220e-01
9.058225e-01
8.672581e-01
8.433523e-01
8.121947e-01
7.809555e-01
7.497230e-01
7.184993e-01
6.872716e-01
6.560440e-01
6.248167e-01
5.935852e-01
5.623530e-01
5.311087e-01
4.999700e-01
1.000000e+00
9.686873e-01
9.374085e-01
9.060516e-01
8.714207e-01
8.435478e-01
8.123516e-01
7.811065e-01
7.498647e-01
7.186271e-01
6.873875e-01
6.561478e-01
6.249083e-01
5.936670e-01
5.624251e-01
5.311714e-01
5.000322e-01
1.000000e+00
9.687511e-01
9.375220e-01
9.063156e-01
8.767879e-01
8.438357e-01
8.125509e-01
7.813011e-01
7.500473e-01
7.187917e-01
6.875366e-01
6.562815e-01
6.250264e-01
5.937722e-01
5.625178e-01
5.312521e-01
5.001122e-01
1.000000e+00
9.688121e-01
9.376291e-01
9.065204e-01
8.815514e-01
8.441251e-01
8.127253e-01
7.814737e-01
7.502093e-01
7.189377e-01
6.876690e-01
6.564001e-01
6.251313e-01
5.938656e-01
5.626001e-01
5.313236e-01
5.001832e-01
1.000000e+00
9.688412e-01
9.376827e-01
9.066176e-01
8.841006e-01
8.442933e-01
8.128178e-01
7.815662e-01
7.502961e-01
7.190161e-01
6.877400e-01
6.564639e-01
6.251876e-01
5.939158e-01
5.626444e-01
5.313621e-01
5.002215e-01
1.000000e+00
9.688348e-01
9.376710e-01
9.065979e-01
8.835706e-01
8.442580e-01
8.127990e-01
7.815475e-01
7.502787e-01
7.190004e-01
6.877260e-01
6.564514e-01
6.251767e-01
5.939061e-01
5.626360e-01
5.313548e-01
5.002142e-01
1.000000e+00
9.687963e-01
9.375992e-01
9.064641e-01
8.801413e-01
8.440372e-01
8.126750e-01
7.814240e-01
7.501629e-01
7.188963e-01
6.876317e-01
6.563670e-01
6.251023e-01
5.938399e-01
5.625777e-01
5.313042e-01
5.001642e-01
1.000000e+00
9.687279e-01
9.374812e-01
9.062305e-01
8.749754e-01
8.437354e-01
8.124857e-01
7.812376e-01
7.499881e-01
7.187389e-01
6.874892e-01
6.562394e-01
6.249897e-01
5.937396e-01
5.624894e-01
5.312275e-01
5.000881e-01
1.000000e+00
9.686698e-01
9.373769e-01
9.059676e-01
8.698174e-01
8.434713e-01
8.122937e-01
7.810512e-01
7.498133e-01
7.185813e-01
6.873464e-01
6.561114e-01
6.248766e-01
5.936389e-01
5.624007e-01
5.311503e-01
5.000116e-01
1.000000e+00
9.686276e-01
9.373044e-01
9.057742e-01
8.664032e-01
8.433170e-01
8.121647e-01
7.809273e-01
7.496969e-01
7.184762e-01
6.872509e-01
6.560257e-01
6.248007e-01
5.935711e-01
5.623408e-01
5.310981e-01
4.999596e-01
1.000000e+00
9.686215e-01
9.372942e-01
9.057436e-01
8.658767e-01
8.432945e-01
8.121440e-01
7.809070e-01
7.496774e-01
7.184581e-01
6.872340e-01
6.560101e-01
6.247865e-01
5.935581e-01
5.623290e-01
5.310876e-01
4.999489e-01
1.000000e+00
9.686526e-01
9.373477e-01
9.058897e-01
8.684138e-01
8.434048e-01
8.122385e-01
7.809965e-01
7.497603e-01
7.185319e-01
6.873002e-01
6.560687e-01
6.248376e-01
5.936030e-01
5.623680e-01
5.311211e-01
4.999817e-01
1.000000e+00
9.687081e-01
9.374458e-01
9.061417e-01
8.731646e-01
8.436355e-01
8.124136e-01
7.811646e-01
7.499167e-01
7.186717e-01
6.874257e-01
6.561802e-01
6.249353e-01
5.936893e-01
5.624435e-01
5.311863e-01
5.000458e-01
1.000000e+00
9.687754e-01
9.375626e-01
9.063936e-01
8.785323e-01
8.439333e-01
8.126079e-01
7.813538e-01
7.500930e-01
7.188294e-01
6.875675e-01
6.563063e-01
6.250459e-01
5.937872e-01
5.625292e-01
5.312603e-01
5.001188e-01
1.000000e+00
9.688243e-01
9.376517e-01
9.065638e-01
8.827064e-01
8.441921e-01
8.127562e-01
7.815002e-01