<?xml version="1.0"?>
<VTKFile type="StructuredGrid" version="0.1">
  <StructuredGrid WholeExtent="0 16 0 16 0 16">
    <Piece Extent="0 16 0 16 0 16">
      <PointData Scalars="temperature" Vectors="velocity">
        <DataArray type="Float32" Name="temperature" format="ascii">
1.000000e+00
9.687826e-01
9.375650e-01
9.063814e-01
8.850093e-01
8.439469e-01
8.126101e-01
7.813593e-01
7.501011e-01
7.188397e-01
6.875797e-01
6.563199e-01
6.250603e-01
5.938022e-01
5.625446e-01
5.312834e-01
5.000696e-01
1.000000e+00
9.687763e-01
9.375530e-01
9.063610e-01
8.833206e-01
8.439097e-01
8.125910e-01
7.813401e-01
7.500832e-01
7.188237e-01
6.875654e-01
6.563072e-01
6.250492e-01
5.937925e-01
5.625362e-01
5.312762e-01
5.000625e-01
1.000000e+00
9.687597e-01
9.375226e-01
9.063017e-01
8.788243e-01
8.438168e-01
8.125394e-01
7.812888e-01
7.500355e-01
7.187811e-01
6.875272e-01
6.562734e-01
6.250197e-01
5.937667e-01
5.625138e-01
5.312569e-01
5.000437e-01
1.000000e+00
9.687348e-01
9.374809e-01
9.062120e-01
8.730386e-01
8.437110e-01
8.124719e-01
7.812228e-01
7.499742e-01
7.187264e-01
6.874782e-01
6.562300e-01
6.249819e-01
5.937334e-01
5.624848e-01
5.312321e-01
5.000194e-01
1.000000e+00
9.687166e-01
9.374484e-01
9.061222e-01
8.679142e-01
8.436302e-01
8.124110e-01
7.811643e-01
7.499198e-01
7.186779e-01
6.874347e-01
6.561915e-01
6.249483e-01
5.937038e-01
5.624591e-01
5.312100e-01
4.999979e-01
1.000000e+00
9.687055e-01
9.374295e-01
9.060699e-01
8.651762e-01
8.435919e-01
8.123781e-01
7.811331e-01
7.498908e-01
7.186519e-01
6.874114e-01
6.561708e-01
6.249302e-01
5.936879e-01
5.624453e-01
5.311981e-01
4.999862e-01
1.000000e+00
9.687078e-01
9.374332e-01
9.060809e-01
8.657454e-01
8.435995e-01
8.123849e-01
7.811395e-01
7.498966e-01
7.186571e-01
6.874160e-01
6.561749e-01
6.249338e-01
5.936910e-01
5.624479e-01
5.312004e-01
4.999884e-01
1.000000e+00
9.687224e-01
9.374582e-01
9.061500e-01
8.694304e-01
8.436526e-01
8.124288e-01
7.811813e-01
7.499354e-01
7.186917e-01
6.874470e-01
6.562023e-01
6.249576e-01
5.937120e-01
5.624661e-01
5.312160e-01
5.000037e-01
1.000000e+00
9.687422e-01
9.374936e-01
9.062433e-01
8.749915e-01
8.437445e-01
8.124942e-01
7.812443e-01
7.499941e-01
7.187439e-01
6.874938e-01
6.562437e-01
6.249937e-01
5.937437e-01
5.624937e-01
5.312397e-01
5.000268e-01
1.000000e+00
9.687666e-01
9.375349e-01
9.063255e-01
8.805555e-01
8.438506e-01
8.125584e-01
7.813074e-01
7.500527e-01
7.187963e-01
6.875407e-01
6.562852e-01
6.250299e-01
5.937755e-01
5.625214e-01
5.312634e-01
5.000500e-01
1.000000e+00
9.687796e-01
9.375593e-01
9.063719e-01
8.842458e-01
8.439287e-01
8.126003e-01
7.813493e-01
7.500917e-01
7.188311e-01
6.875720e-01
6.563129e-01
6.250542e-01
5.937969e-01
5.625400e-01
5.312795e-01
5.000657e-01
1.000000e+00
9.687819e-01
9.375633e-01
9.063787e-01
8.848160e-01
8.439414e-01
8.126068e-01
7.813560e-01
7.500980e-01
7.188370e-01
6.875773e-01
6.563178e-01
6.250586e-01
5.938009e-01
5.625436e-01
5.312826e-01
5.000689e-01
1.000000e+00
9.687715e-01
9.375440e-01
9.063447e-01
8.820735e-01
8.438822e-01
8.125760e-01
7.813255e-01
7.500700e-01
7.188122e-01
6.875553e-01
6.562986e-01
6.250420e-01
5.937864e-01
5.625312e-01
5.312720e-01
5.000587e-01
1.000000e+00
9.687509e-01
9.375078e-01
9.062732e-01
8.769448e-01
8.437807e-01
8.125178e-01
7.812683e-01
7.500172e-01
7.187654e-01
6.875138e-01
6.562621e-01
6.250104e-01
5.937589e-01
5.625074e-01
5.312518e-01
5.000390e-01
1.000000e+00
9.687285e-01
9.374686e-01
9.061801e-01
8.711605e-01
8.436806e-01
8.124511e-01
7.812039e-01
7.499577e-01
7.187127e-01
6.874669e-01
6.562209e-01
6.249747e-01
5.937277e-01
5.624805e-01
5.312288e-01
5.000167e-01
1.000000e+00
9.687114e-01
9.374391e-01
9.060989e-01
8.666701e-01
8.436136e-01
8.123987e-01
7.811540e-01
7.499117e-01
7.186719e-01
6.874305e-01
6.561889e-01
6.249470e-01
5.937035e-01
5.624595e-01
5.312110e-01
4.999993e-01
1.000000e+00
9.687050e-01
9.374284e-01
9.060666e-01
8.649849e-01
8.435909e-01
8.123789e-01
7.811353e-01
7.498943e-01
7.186564e-01
6.874167e-01
6.561767e-01
6.249364e-01
5.936942e-01
5.624515e-01
5.312041e-01
4.999927e-01
1.000000e+00
9.687798e-01
9.375596e-01
9.063724e-01
8.842468e-01
8.439298e-01
8.126014e-01
7.813505e-01
7.500929e-01
7.188324e-01
6.875732e-01
6.563141e-01
6.250553e-01
5.937979e-01
5.625409e-01
5.312802e-01
5.000665e-01
1.000000e+00
9.687739e-01
9.375486e-01
9.063533e-01
8.826868e-01
8.438960e-01
8.125837e-01
7.813328e-01
7.500764e-01
7.188176e-01
6.875600e-01
6.563024e-01
6.250451e-01
5.937889e-01
5.625331e-01
5.312735e-01
5.000600e-01
1.000000e+00
9.687583e-01
9.375202e-01
9.062974e-01
8.785330e-01
8.438111e-01
8.125360e-01
7.812854e-01
7.500324e-01
7.187783e-01
6.875247e-01
6.562712e-01
6.250178e-01
5.937650e-01
5.625123e-01
5.312557e-01
5.000425e-01
1.000000e+00
9.687360e-01
9.374823e-01
9.062147e-01
8.731877e-01
8.437135e-01
8.124736e-01
7.812245e-01
7.499757e-01
7.187278e-01
6.874794e-01
6.562311e-01
6.249829e-01
5.937342e-01
5.624856e-01
5.312327e-01
5.000201e-01
1.000000e+00
9.687185e-01
9.374514e-01
9.061322e-01
8.684531e-01
8.436380e-01
8.124175e-01
7.811705e-01
7.499255e-01
7.186830e-01
6.874393e-01
6.561956e-01
6.249518e-01
5.937069e-01
5.624618e-01
5.312124e-01
5.000002e-01
1.000000e+00
9.687084e-01
9.374343e-01
9.060845e-01
8.659233e-01
8.436019e-01
8.123871e-01
7.811416e-01
7.498987e-01
7.186590e-01
6.874178e-01
6.561765e-01
6.249352e-01
5.936923e-01
5.624491e-01
5.312014e-01
4.999894e-01
1.000000e+00
9.687105e-01
9.374377e-01
9.060946e-01
8.664493e-01
8.436092e-01
8.123934e-01
7.811475e-01
7.499041e-01
7.186638e-01
6.874220e-01
6.561802e-01
6.249384e-01
5.936951e-01
5.624515e-01
5.312035e-01
4.999915e-01
1.000000e+00
9.687239e-01
9.374606e-01
9.061576e-01
8.698540e-01
8.436591e-01
8.124339e-01
7.811861e-01
7.499400e-01
7.186957e-01
6.874506e-01
6.562055e-01
6.249605e-01
5.937145e-01
5.624683e-01
5.312179e-01
5.000056e-01
1.000000e+00
9.687429e-01
9.374943e-01
9.062436e-01
8.749920e-01
8.437446e-01
8.124943e-01
7.812444e-01
7.499941e-01
7.187440e-01
6.874939e-01
6.562438e-01
6.249938e-01
5.937438e-01
5.624938e-01
5.312398e-01
5.000269e-01
1.000000e+00
9.687645e-01
9.375313e-01
9.063196e-01
8.801324e-01
8.438421e-01
8.125536e-01
7.813027e-01
7.500483e-01
7.187924e-01
6.875372e-01
6.562821e-01
6.250273e-01
5.937732e-01
5.625194e-01
5.312617e-01
5.000484e-01
1.000000e+00
9.687770e-01
9.375544e-01
9.063635e-01
8.835415e-01
8.439134e-01
8.125924e-01
7.813414e-01
7.500843e-01
7.188245e-01
6.875661e-01
6.563078e-01
6.250497e-01
5.937930e-01
5.625366e-01
5.312765e-01
5.000629e-01
1.000000e+00
9.687790e-01
9.375580e-01
9.063699e-01
8.840682e-01
8.439249e-01
8.125984e-01
7.813476e-01
7.500902e-01
7.188299e-01
6.875710e-01
6.563123e-01
6.250537e-01
5.937966e-01
5.625399e-01
5.312794e-01
5.000658e-01
1.000000e+00
9.687692e-01
9.375401e-01
9.063379e-01
8.815347e-01
8.438710e-01
8.125699e-01
7.813194e-01
7.500643e-01
7.188070e-01
6.875507e-01
6.562945e-01
6.250384e-01
5.937833e-01
5.625284e-01
5.312697e-01
5.000564e-01
1.000000e+00
9.687505e-01
9.375068e-01
9.062712e-01
8.767965e-01
8.437778e-01
8.125160e-01
7.812665e-01
7.500155e-01
7.187639e-01
6.875124e-01
6.562608e-01
6.250092e-01
5.937578e-01
5.625064e-01
5.312509e-01
5.000382e-01
1.000000e+00
9.687297e-01
9.374704e-01
9.061852e-01
8.714524e-01
8.436852e-01
8.124544e-01
7.812070e-01
7.499606e-01
7.187152e-01
6.874691e-01
6.562228e-01
6.249763e-01
5.937290e-01
5.624816e-01
5.312297e-01
5.000175e-01
1.000000e+00
9.687138e-01
9.374432e-01
9.061110e-01
8.673036e-01
8.436225e-01
8.124061e-01
7.811610e-01
7.499181e-01
7.186775e-01
6.874355e-01
6.561932e-01
6.249507e-01
5.937066e-01
5.624622e-01
5.312132e-01
5.000015e-01
1.000000e+00
9.687078e-01
9.374332e-01
9.060815e-01
8.657466e-01
8.436011e-01
8.123879e-01
7.811436e-01
7.499020e-01
7.186632e-01
6.874227e-01
6.561819e-01
6.249408e-01
5.936981e-01
5.624548e-01
5.312069e-01
4.999953e-01
1.000000e+00
9.687715e-01
9.375442e-01
9.063456e-01
8.820753e-01
8.438827e-01
8.125765e-01
7.813256e-01
7.500698e-01
7.188118e-01
6.875548e-01
6.562979e-01
6.250412e-01
5.937855e-01
5.625302e-01
5.312710e-01
5.000575e-01
1.000000e+00
9.687668e-01
9.375358e-01
9.063300e-01
8.808817e-01
8.438579e-01
8.125629e-01
7.813121e-01
7.500572e-01
7.188005e-01
6.875447e-01
6.562889e-01
6.250333e-01
5.937787e-01
5.625242e-01
5.312659e-01
5.000525e-01
1.000000e+00
9.687545e-01
9.375137e-01
9.062855e-01
8.777031e-01
8.437950e-01
8.125264e-01
7.812759e-01
7.500235e-01
7.187705e-01
6.875177e-01
6.562650e-01
6.250125e-01
5.937603e-01
5.625083e-01
5.312522e-01
5.000392e-01
1.000000e+00
9.687384e-01
9.374855e-01
9.062221e-01
8.736121e-01
8.437207e-01
8.124786e-01
7.812292e-01
7.499802e-01
7.187318e-01
6.874830e-01
6.562343e-01
6.249857e-01
5.937368e-01
5.624878e-01
5.312347e-01
5.000220e-01
1.000000e+00
9.687244e-01
9.374611e-01
9.061602e-01
8.699879e-01
8.436613e-01
8.124358e-01
7.811879e-01
7.499418e-01
7.186975e-01
6.874523e-01
6.562071e-01
6.249619e-01
5.937159e-01
5.624696e-01
5.312191e-01
5.000068e-01
1.000000e+00
9.687168e-01
9.374482e-01
9.061250e-01
8.680512e-01
8.436321e-01
8.124126e-01
7.811658e-01
7.499212e-01
7.186791e-01
6.874358e-01
6.561925e-01
6.249492e-01
5.937046e-01
5.624598e-01
5.312107e-01
4.999985e-01
1.000000e+00
9.687183e-01
9.374508e-01
9.061324e-01
8.684539e-01
8.436380e-01
8.124174e-01
7.811703e-01
7.499254e-01
7.186828e-01
6.874391e-01
6.561954e-01
6.249517e-01
5.937068e-01
5.624617e-01
5.312123e-01
5.000001e-01
1.000000e+00
9.687285e-01
9.374683e-01
9.061790e-01
8.710604e-01
8.436781e-01
8.124483e-01
7.811999e-01
7.499528e-01
7.187073e-01
6.874610e-01
6.562147e-01
6.249685e-01
5.937216e-01
5.624746e-01
5.312233e-01
5.000109e-01
1.000000e+00
9.687437e-01
9.374949e-01
9.062441e-01
8.749931e-01
8.437446e-01
8.124945e-01
7.812445e-01
7.499943e-01
7.187442e-01
6.874941e-01
6.562440e-01
6.249941e-01
5.937441e-01
5.624941e-01
5.312400e-01
5.000272e-01
1.000000e+00
9.687592e-01
9.375221e-01
9.063028e-01
8.789271e-01
8.438182e-01
8.125399e-01
7.812892e-01
7.500358e-01
7.187813e-01
6.875273e-01
6.562734e-01
6.250197e-01
5.937666e-01
5.625137e-01
5.312568e-01
5.000436e-01
1.000000e+00
9.687692e-01
9.375402e-01
9.063384e-01
8.815357e-01
8.438709e-01
8.125698e-01
7.813188e-01
7.500634e-01
7.188059e-01
6.875494e-01
6.562931e-01
6.250369e-01
5.937817e-01
5.625268e-01
5.312681e-01
5.000547e-01
1.000000e+00
9.687708e-01
9.375430e-01
9.063435e-01
8.819387e-01
8.438793e-01
8.125744e-01
7.813236e-01
7.500679e-01
7.188100e-01
6.875532e-01
6.562965e-01
6.250400e-01
5.937845e-01
5.625293e-01
5.312703e-01
5.000569e-01
1.000000e+00
9.687632e-01
9.375292e-01
9.063176e-01
8.800001e-01
8.438396e-01
8.125525e-01
7.813020e-01
7.500480e-01
7.187925e-01
6.875377e-01
6.562829e-01
6.250282e-01
5.937743e-01
5.625206e-01
5.312629e-01
5.000497e-01
1.000000e+00
9.687491e-01
9.375039e-01
9.062652e-01
8.763741e-01
8.437700e-01
8.125112e-01
7.812615e-01
7.500107e-01
7.187595e-01
6.875083e-01
6.562571e-01
6.250059e-01
5.937548e-01
5.625037e-01
5.312486e-01
5.000358e-01
1.000000e+00
9.687331e-01
9.374760e-01
9.061998e-01
8.722839e-01
8.436987e-01
8.124640e-01
7.812160e-01
7.499687e-01
7.187222e-01
6.874752e-01
6.562280e-01
6.249807e-01
5.937328e-01
5.624847e-01
5.312323e-01
5.000200e-01
1.000000e+00
9.687208e-01
9.374550e-01
9.061445e-01
8.691080e-01
8.436488e-01
8.124272e-01
7.811808e-01
7.499362e-01
7.186934e-01
6.874495e-01
6.562054e-01
6.249611e-01
5.937156e-01
5.624699e-01
5.312196e-01
5.000077e-01
1.000000e+00
9.687161e-01
9.374472e-01
9.061227e-01
8.679159e-01
8.436314e-01
8.124133e-01
7.811675e-01
7.499238e-01
7.186824e-01
6.874397e-01
6.561967e-01
6.249535e-01
5.937090e-01
5.624642e-01
5.312148e-01
5.000029e-01
1.000000e+00
9.687587e-01
9.375212e-01
9.063016e-01
8.788260e-01
8.438165e-01
8.125392e-01
7.812886e-01
7.500354e-01
7.187811e-01
6.875273e-01
6.562736e-01
6.250200e-01
5.937669e-01
5.625140e-01
5.312572e-01
5.000440e-01
1.000000e+00
9.687562e-01
9.375167e-01
9.062925e-01
8.781803e-01
8.438040e-01
8.125318e-01
7.812812e-01
7.500286e-01
7.187750e-01
6.875219e-01
6.562688e-01
6.250158e-01
5.937632e-01
5.625108e-01
5.312545e-01
5.000414e-01
1.000000e+00
9.687495e-01
9.375048e-01
9.062671e-01
8.764606e-01
8.437714e-01
8.125119e-01
7.812616e-01
7.500104e-01
7.187588e-01
6.875073e-01
6.562558e-01
6.250045e-01
5.937533e-01
5.625022e-01
5.312471e-01
5.000341e-01
1.000000e+00
9.687410e-01
9.374896e-01
9.062327e-01
8.742468e-01
8.437316e-01
8.124861e-01
7.812364e-01
7.499869e-01
7.187378e-01
6.874885e-01
6.562392e-01
6.249900e-01
5.937405e-01
5.624911e-01
5.312375e-01
5.000248e-01
1.000000e+00
9.687333e-01
9.374764e-01
9.062003e-01
8.722849e-01
8.436982e-01
8.124630e-01
7.812140e-01
7.499661e-01
7.187192e-01
6.874718e-01
6.562244e-01
6.249771e-01
5.937292e-01
5.624813e-01
5.312291e-01
5.000166e-01
1.000000e+00
9.687292e-01
9.374694e-01
9.061823e-01
8.712363e-01
8.436811e-01
8.124505e-01
7.812021e-01
7.499550e-01
7.187093e-01
6.874629e-01
6.562165e-01
6.249702e-01
5.937232e-01
5.624760e-01
5.312245e-01
5.000121e-01
1.000000e+00
9.687300e-01
9.374708e-01
9.061861e-01
8.714543e-01
8.436846e-01
8.124531e-01
7.812045e-01
7.499572e-01
7.187113e-01
6.874647e-01
6.562181e-01
6.249715e-01
5.937243e-01
5.624770e-01
5.312254e-01
5.000130e-01
1.000000e+00
9.687355e-01
9.374803e-01
9.062100e-01
8.728655e-01
8.437078e-01
8.124698e-01
7.812206e-01
7.499721e-01
7.187245e-01
6.874766e-01
6.562286e-01
6.249807e-01
5.937323e-01
5.624840e-01
5.312314e-01
5.000188e-01
1.000000e+00
9.687438e-01
9.374947e-01
9.062445e-01
8.749943e-01
8.437447e-01
8.124947e-01
7.812447e-01
7.499946e-01
7.187446e-01
6.874945e-01
6.562445e-01
6.249945e-01
5.937445e-01
5.624945e-01
5.312404e-01
5.000276e-01
1.000000e+00
9.687521e-01
9.375093e-01
9.062770e-01
8.771230e-01
8.437836e-01
8.125194e-01
7.812689e-01
7.500171e-01
7.187646e-01
6.875125e-01
6.562604e-01
6.250084e-01
5.937567e-01
5.625051e-01
5.312495e-01
5.000365e-01
1.000000e+00
9.687576e-01
9.375192e-01
9.062974e-01
8.785342e-01
8.438106e-01
8.125356e-01
7.812850e-01
7.500320e-01
7.187780e-01
6.875245e-01
6.562710e-01
6.250177e-01
5.937648e-01
5.625122e-01
5.312556e-01
5.000424e-01
1.000000e+00
9.687584e-01
9.375206e-01
9.063004e-01
8.787521e-01
8.438149e-01
8.125382e-01
7.812876e-01
7.500345e-01
7.187802e-01
6.875265e-01
6.562729e-01
6.250194e-01
5.937664e-01
5.625136e-01
5.312568e-01
5.000436e-01
1.000000e+00
9.687543e-01
9.375132e-01
9.062854e-01
8.777034e-01
8.437947e-01
8.125262e-01
7.812759e-01
7.500237e-01
7.187708e-01
6.875181e-01
6.562655e-01
6.250130e-01
5.937608e-01
5.625088e-01
5.312528e-01
5.000398e-01
1.000000e+00
9.687466e-01
9.374996e-01
9.062561e-01
8.757416e-01
8.437583e-01
8.125038e-01
7.812540e-01
7.500035e-01
7.187529e-01
6.875022e-01
6.562515e-01
6.250009e-01
5.937503e-01
5.624997e-01
5.312450e-01
5.000322e-01
1.000000e+00
9.687381e-01
9.374845e-01
9.062209e-01
8.735279e-01
8.437195e-01
8.124783e-01
7.812294e-01
7.499807e-01
7.187327e-01
6.874843e-01
6.562357e-01
6.249872e-01
5.937383e-01
5.624894e-01
5.312362e-01
5.000236e-01
1.000000e+00
9.687314e-01
9.374731e-01
9.061922e-01
8.718086e-01
8.436910e-01
8.124585e-01
7.812103e-01
7.499632e-01
7.187171e-01
6.874703e-01
6.562235e-01
6.249766e-01
5.937290e-01
5.624813e-01
5.312293e-01
5.000170e-01
1.000000e+00
9.687288e-01
9.374688e-01
9.061811e-01
8.711630e-01
8.436807e-01
8.124510e-01
7.812031e-01
7.499565e-01
7.187111e-01
6.874650e-01
6.562188e-01
6.249725e-01
5.937254e-01
5.624782e-01
5.312266e-01
5.000143e-01
1.000000e+00
9.687437e-01
9.374947e-01
9.062442e-01
8.749939e-01
8.437448e-01
8.124947e-01
7.812449e-01
7.499949e-01
7.187449e-01
6.874949e-01
6.562449e-01
6.249950e-01
5.937450e-01
5.624950e-01
5.312409e-01
5.000281e-01
1.000000e+00
9.687438e-01
9.374947e-01
9.062444e-01
8.749942e-01
8.437448e-01
8.124948e-01
7.812450e-01
7.499949e-01
7.187450e-01
6.874950e-01
6.562450e-01
6.249950e-01
5.937450e-01
5.624950e-01
5.312409e-01
5.000281e-01
1.000000e+00
9.687438e-01
9.374946e-01
9.062446e-01
8.749945e-01
8.437447e-01
8.124948e-01
7.812450e-01
7.499949e-01
7.187450e-01
6.874950e-01
6.562450e-01
6.249950e-01
5.937450e-01
5.624950e-01
5.312409e-01
5.000281e-01
1.000000e+00
9.687438e-01
9.374946e-01
9.062446e-01
8.749946e-01
8.437447e-01
8.124949e-01
7.812449e-01
7.499949e-01
7.187450e-01
6.874949e-01
6.562449e-01
6.249950e-01
5.937450e-01
5.624950e-01
5.312409e-01
5.000281e-01
1.000000e+00
9.687438e-01
9.374947e-01
9.062445e-01
8.749943e-01
8.437448e-01
8.124948e-01
7.812449e-01
7.499949e-01
7.187450e-01
6.874949e-01
6.562449e-01
6.249950e-01
5.937450e-01
5.624950e-01
5.312409e-01
5.000281e-01
1.000000e+00
9.687438e-01
9.374947e-01
9.062443e-01
8.749940e-01
8.437448e-01
8.124947e-01
7.812449e-01
7.499949e-01
7.187450e-01
6.874949e-01
6.562449e-01
6.249950e-01
5.937450e-01
5.624950e-01
5.312409e-01
5.000281e-01
1.000000e+00
9.687438e-01
9.374947e-01
9.062443e-01
8.749940e-01
8.437448e-01
8.124947e-01
7.812449e-01
7.499949e-01
7.187450e-01
6.874949e-01
6.562449e-01
6.249950e-01
5.937450e-01
5.624950e-01
5.312409e-01
5.000281e-01
1.000000e+00
9.687438e-01
9.374946e-01
9.062446e-01
8.749944e-01
8.437448e-01
8.124948e-01
7.812450e-01
7.499949e-01
7.187450e-01
6.874949e-01
6.562449e-01
6.249950e-01
5.937450e-01
5.624950e-01
5.312409e-01
5.000281e-01
1.000000e+00
9.687438e-01
9.374946e-01
9.062447e-01
8.749947e-01
8.437448e-01
8.124949e-01
7.812450e-01
7.499949e-01
7.187450e-01
6.874950e-01
6.562449e-01
6.249950e-01
5.937450e-01
5.624950e-01
5.312409e-01
5.000281e-01
1.000000e+00
9.687438e-01
9.374947e-01
9.062446e-01
8.749945e-01
8.437448e-01
8.124949e-01
7.812450e-01
7.499950e-01
7.187450e-01
6.874950e-01
6.562450e-01
6.249950e-01
5.937450e-01
5.624950e-01
5.312409e-01
5.000281e-01
1.000000e+00
9.687439e-01
9.374948e-01
9.062444e-01
8.749940e-01
8.437449e-01
8.124948e-01
7.812451e-01
7.499950e-01
7.187450e-01
6.874950e-01
6.562450e-01
6.249950e-01
5.937450e-01
5.624950e-01
5.312409e-01
5.000281e-01
1.000000e+00
9.687439e-01
9.374948e-01
9.062443e-01
8.749939e-01
8.437449e-01
8.124948e-01
7.812451e-01
7.499950e-01
7.187450e-01
6.874950e-01
6.562450e-01
6.249951e-01
5.937450e-01
5.624950e-01
5.312409e-01
5.000281e-01
1.000000e+00
9.687439e-01
9.374947e-01
9.062445e-01
8.749942e-01
8.437449e-01
8.124949e-01
7.812451e-01
7.499950e-01
7.187450e-01
6.874950e-01
6.562450e-01
6.249950e-01
5.937450e-01
5.624950e-01
5.312408e-01
5.000281e-01
1.000000e+00
9.687438e-01
9.374946e-01
9.062447e-01
8.749947e-01
8.437448e-01
8.124949e-01
7.812451e-01
7.499950e-01
7.187450e-01
6.874950e-01
6.562450e-01
6.249950e-01
5.937450e-01
5.624950e-01
5.312408e-01
5.000280e-01
1.000000e+00
9.687438e-01
9.374947e-01
9.062447e-01
8.749947e-01
8.437449e-01
8.124949e-01
7.812451e-01
7.499950e-01
7.187450e-01
6.874949e-01
6.562449e-01
6.249950e-01
5.937449e-01
5.624949e-01
5.312408e-01
5.000280e-01
1.000000e+00
9.687438e-01
9.374947e-01
9.062445e-01
8.749943e-01
8.437449e-01
8.124949e-01
7.812451e-01
7.499950e-01
7.187450e-01
6.874949e-01
6.562449e-01
6.249950e-01
5.937449e-01
5.624949e-01
5.312408e-01
5.000280e-01
1.000000e+00
9.687437e-01
9.374947e-01
9.062442e-01
8.749939e-01
8.437449e-01
8.124947e-01
7.812450e-01
7.499949e-01
7.187449e-01
6.874949e-01
6.562448e-01
6.249949e-01
5.937448e-01
5.624948e-01
5.312407e-01
5.000279e-01
1.000000e+00
9.687288e-01
9.374687e-01
9.061808e-01
8.711626e-01
8.436798e-01
8.124496e-01
7.812013e-01
7.499544e-01
7.187088e-01
6.874626e-01
6.562163e-01
6.249700e-01
5.937230e-01
5.624759e-01
5.312245e-01
5.000122e-01
1.000000e+00
9.687314e-01
9.374731e-01
9.061920e-01
8.718083e-01
8.436903e-01
8.124574e-01
7.812087e-01
7.499613e-01
7.187150e-01
6.874681e-01
6.562212e-01
6.249743e-01
5.937268e-01
5.624792e-01
5.312274e-01
5.000149e-01
1.000000e+00
9.687381e-01
9.374846e-01
9.062208e-01
8.735278e-01
8.437191e-01
8.124776e-01
7.812283e-01
7.499794e-01
7.187312e-01
6.874826e-01
6.562341e-01
6.249855e-01
5.937367e-01
5.624878e-01
5.312347e-01
5.000221e-01
1.000000e+00
9.687467e-01
9.374997e-01
9.062560e-01
8.757416e-01
8.437581e-01
8.125035e-01
7.812535e-01
7.500029e-01
7.187521e-01
6.875014e-01
6.562507e-01
6.250000e-01
5.937494e-01
5.624989e-01
5.312442e-01
5.000314e-01
1.000000e+00
9.687543e-01
9.375132e-01
9.062854e-01
8.777035e-01
8.437947e-01
8.125262e-01
7.812758e-01
7.500237e-01
7.187707e-01
6.875180e-01
6.562654e-01
6.250128e-01
5.937607e-01
5.625087e-01
5.312526e-01
5.000396e-01
1.000000e+00
9.687584e-01
9.375206e-01
9.063004e-01
8.787522e-01
8.438150e-01
8.125383e-01
7.812878e-01
7.500348e-01
7.187806e-01
6.875269e-01
6.562733e-01
6.250198e-01
5.937668e-01
5.625139e-01
5.312571e-01
5.000440e-01
1.000000e+00
9.687576e-01
9.375191e-01
9.062974e-01
8.785342e-01
8.438108e-01
8.125359e-01
7.812854e-01
7.500325e-01
7.187786e-01
6.875252e-01
6.562718e-01
6.250184e-01
5.937656e-01
5.625129e-01
5.312563e-01
5.000431e-01
1.000000e+00
9.687521e-01
9.375092e-01
9.062770e-01
8.771229e-01
8.437838e-01
8.125197e-01
7.812694e-01
7.500177e-01
7.187654e-01
6.875133e-01
6.562613e-01
6.250093e-01
5.937576e-01
5.625060e-01
5.312503e-01
5.000373e-01
1.000000e+00
9.687438e-01
9.374946e-01
9.062445e-01
8.749942e-01
8.437449e-01
8.124950e-01
7.812453e-01
7.499953e-01
7.187454e-01
6.874954e-01
6.562454e-01
6.249955e-01
5.937455e-01
5.624954e-01
5.312413e-01
5.000285e-01
1.000000e+00
9.687355e-01
9.374802e-01
9.062101e-01
8.728656e-01
8.437081e-01
8.124701e-01
7.812211e-01
7.499728e-01
7.187254e-01
6.874775e-01
6.562295e-01
6.249816e-01
5.937333e-01
5.624849e-01
5.312322e-01
5.000197e-01
1.000000e+00
9.687301e-01
9.374709e-01
9.061861e-01
8.714544e-01
8.436848e-01
8.124535e-01
7.812051e-01
7.499579e-01
7.187121e-01
6.874655e-01
6.562189e-01
6.249724e-01
5.937251e-01
5.624778e-01
5.312261e-01
5.000137e-01
1.000000e+00
9.687292e-01
9.374695e-01
9.061824e-01
8.712364e-01
8.436813e-01
8.124509e-01
7.812026e-01
7.499555e-01
7.187099e-01
6.874635e-01
6.562171e-01
6.249707e-01
5.937236e-01
5.624764e-01
5.312249e-01
5.000125e-01
1.000000e+00
9.687334e-01
9.374766e-01
9.062004e-01
8.722851e-01
8.436984e-01
8.124632e-01
7.812143e-01
7.499663e-01
7.187193e-01
6.874719e-01
6.562244e-01
6.249771e-01
5.937291e-01
5.624812e-01
5.312290e-01
5.000164e-01
1.000000e+00
9.687410e-01
9.374898e-01
9.062328e-01
8.742470e-01
8.437316e-01
8.124860e-01
7.812361e-01
7.499864e-01
7.187372e-01
6.874878e-01
6.562384e-01
6.249891e-01
5.937397e-01
5.624902e-01
5.312367e-01
5.000239e-01
1.000000e+00
9.687496e-01
9.375049e-01
9.062673e-01
8.764608e-01
8.437711e-01
8.125113e-01
7.812608e-01
7.500092e-01
7.187573e-01
6.875057e-01
6.562541e-01
6.250028e-01
5.937516e-01
5.625005e-01
5.312454e-01
5.000324e-01
1.000000e+00
9.687563e-01
9.375168e-01
9.062924e-01
8.781801e-01
8.438034e-01
8.125308e-01
7.812798e-01
7.500267e-01
7.187729e-01
6.875196e-01
6.562663e-01
6.250134e-01
5.937608e-01
5.625085e-01
5.312523e-01
5.000390e-01
1.000000e+00
9.687587e-01
9.375211e-01
9.063014e-01
8.788254e-01
8.438156e-01
8.125379e-01
7.812869e-01
7.500333e-01
7.187787e-01
6.875247e-01
6.562709e-01
6.250173e-01
5.937643e-01
5.625115e-01
5.312548e-01
5.000415e-01
1.000000e+00
9.687161e-01
9.374471e-01
9.061222e-01
8.679151e-01
8.436299e-01
8.124110e-01
7.811643e-01
7.499200e-01
7.186782e-01
6.874351e-01
6.561920e-01
6.249489e-01
5.937045e-01
5.624598e-01
5.312107e-01
4.999987e-01
1.000000e+00
9.687208e-01
9.374550e-01
9.061442e-01
8.691076e-01
8.436477e-01
8.124253e-01
7.811780e-01
7.499327e-01
7.186895e-01
6.874453e-01
6.562010e-01
6.249567e-01
5.937114e-01
5.624658e-01
5.312159e-01
5.000037e-01
1.000000e+00
9.687331e-01
9.374762e-01
9.061998e-01
8.722838e-01
8.436981e-01
8.124629e-01
7.812142e-01
7.499663e-01
7.187195e-01
6.874722e-01
6.562249e-01
6.249775e-01
5.937297e-01
5.624817e-01
5.312295e-01
5.000170e-01
1.000000e+00
9.687492e-01
9.375041e-01
9.062653e-01
8.763742e-01
8.437697e-01
8.125107e-01
7.812607e-01
7.500096e-01
7.187582e-01
6.875069e-01
6.562555e-01
6.250043e-01
5.937532e-01
5.625021e-01
5.312470e-01
5.000341e-01
1.000000e+00
9.687632e-01
9.375292e-01
9.063176e-01
8.800002e-01
8.438396e-01
8.125526e-01
7.813020e-01
7.500480e-01
7.187925e-01
6.875376e-01
6.562828e-01
6.250280e-01
5.937741e-01
5.625203e-01
5.312626e-01
5.000493e-01
1.000000e+00
9.687707e-01
9.375429e-01
9.063435e-01
8.819388e-01
8.438796e-01
8.125749e-01
7.813242e-01
7.500686e-01
7.188108e-01
6.875541e-01
6.562974e-01
6.250408e-01
5.937853e-01
5.625300e-01
5.312709e-01
5.000575e-01
1.000000e+00
9.687692e-01
9.375401e-01
9.063383e-01
8.815358e-01
8.438712e-01
8.125703e-01
7.813197e-01
7.500645e-01
7.188071e-01
6.875508e-01
6.562945e-01
6.250383e-01
5.937831e-01
5.625281e-01
5.312693e-01
5.000559e-01
1.000000e+00
9.687592e-01
9.375219e-01
9.063028e-01
8.789270e-01
8.438185e-01
8.125405e-01
7.812901e-01
7.500370e-01
7.187827e-01
6.875289e-01
6.562751e-01
6.250214e-01
5.937683e-01
5.625153e-01
5.312583e-01
5.000452e-01
1.000000e+00
9.687437e-01
9.374947e-01
9.062441e-01
8.749930e-01
8.437449e-01
8.124950e-01
7.812455e-01
7.499956e-01
7.187458e-01
6.874958e-01
6.562458e-01
6.249959e-01
5.937459e-01
5.624959e-01
5.312417e-01
5.000290e-01
1.000000e+00
9.687285e-01
9.374682e-01
9.061791e-01
8.710604e-01
8.436785e-01
8.124490e-01
7.812009e-01
7.499541e-01
7.187088e-01
6.874626e-01
6.562165e-01
6.249703e-01
5.937234e-01
5.624763e-01
5.312249e-01
5.000126e-01
1.000000e+00
9.687184e-01
9.374509e-01
9.061327e-01
8.684541e-01
8.436384e-01
8.124181e-01
7.811713e-01
7.499266e-01
7.186842e-01
6.874405e-01
6.561969e-01
6.249532e-01
5.937083e-01
5.624632e-01
5.312137e-01
5.000016e-01
1.000000e+00
9.687169e-01
9.374484e-01
9.061253e-01
8.680516e-01
8.436325e-01
8.124133e-01
7.811665e-01
7.499221e-01
7.186800e-01
6.874367e-01
6.561934e-01
6.249501e-01
5.937055e-01
5.624607e-01
5.312115e-01
4.999994e-01
1.000000e+00
9.687245e-01
9.374614e-01
9.061606e-01
8.699885e-01
8.436616e-01
8.124361e-01
7.811881e-01
7.499419e-01
7.186976e-01
6.874523e-01
6.562070e-01
6.249618e-01
5.937157e-01
5.624694e-01
5.312189e-01
5.000065e-01
1.000000e+00
9.687386e-01
9.374858e-01
9.062223e-01
8.736126e-01
8.437206e-01
8.124783e-01
7.812286e-01
7.499792e-01
7.187306e-01
6.874816e-01
6.562328e-01
6.249842e-01
5.937352e-01
5.624862e-01
5.312332e-01
5.000204e-01
1.000000e+00
9.687545e-01
9.375138e-01
9.062855e-01
8.777031e-01
8.437942e-01
8.125251e-01
7.812741e-01
7.500212e-01
7.187678e-01
6.875148e-01
6.562619e-01
6.250094e-01
5.937572e-01
5.625052e-01
5.312494e-01
5.000361e-01
1.000000e+00
9.687668e-01
9.375357e-01
9.063297e-01
8.808811e-01
8.438565e-01
8.125609e-01
7.813092e-01
7.500537e-01
7.187966e-01
6.875404e-01
6.562845e-01
6.250290e-01
5.937743e-01
5.625200e-01
5.312620e-01
5.000484e-01
1.000000e+00
9.687713e-01
9.375439e-01
9.063451e-01
8.820742e-01
8.438808e-01
8.125740e-01
7.813224e-01
7.500659e-01
7.188074e-01
6.875501e-01
6.562930e-01
6.250363e-01
5.937807e-01
5.625256e-01
5.312667e-01
5.000529e-01
1.000000e+00
9.687076e-01
9.374329e-01
9.060807e-01
8.657454e-01
8.435993e-01
8.123849e-01
7.811396e-01
7.498971e-01
7.186577e-01
6.874168e-01
6.561758e-01
6.249347e-01
5.936920e-01
5.624490e-01
5.312015e-01
4.999897e-01
1.000000e+00
9.687138e-01
9.374431e-01
9.061105e-01
8.673031e-01
8.436211e-01
8.124037e-01
7.811575e-01
7.499137e-01
7.186725e-01
6.874301e-01
6.561876e-01
6.249450e-01
5.937011e-01
5.624569e-01
5.312082e-01
4.999962e-01
1.000000e+00
9.687298e-01
9.374707e-01
9.061852e-01
8.714523e-01
8.436844e-01
8.124530e-01
7.812047e-01
7.499576e-01
7.187117e-01
6.874652e-01
6.562187e-01
6.249721e-01
5.937250e-01
5.624776e-01
5.312260e-01
5.000136e-01
1.000000e+00
9.687502e-01
9.375070e-01
9.062713e-01
8.767965e-01
8.437775e-01
8.125155e-01
7.812655e-01
7.500141e-01
7.187622e-01
6.875105e-01
6.562588e-01
6.250071e-01
5.937557e-01
5.625043e-01
5.312489e-01
5.000360e-01
1.000000e+00
9.687694e-01
9.375406e-01
9.063378e-01
8.815348e-01
8.438710e-01
8.125701e-01
7.813195e-01
7.500643e-01
7.188070e-01
6.875507e-01
6.562943e-01
6.250381e-01
5.937830e-01
5.625280e-01
5.312692e-01
5.000558e-01
1.000000e+00
9.687790e-01
9.375580e-01
9.063699e-01
8.840683e-01
8.439253e-01
8.125990e-01
7.813484e-01
7.500912e-01
7.188310e-01
6.875722e-01
6.563134e-01
6.250548e-01
5.937976e-01
5.625407e-01
5.312802e-01
5.000665e-01
1.000000e+00
9.687769e-01
9.375542e-01
9.063635e-01
8.835415e-01
8.439139e-01
8.125931e-01
7.813426e-01
7.500858e-01
7.188262e-01
6.875679e-01
6.563097e-01
6.250516e-01
5.937948e-01
5.625383e-01
5.312781e-01
5.000644e-01
1.000000e+00
9.687644e-01
9.375310e-01
9.063194e-01
8.801323e-01
8.438425e-01
8.125543e-01
7.813039e-01
7.500499e-01
7.187943e-01
6.875393e-01
6.562844e-01
6.250295e-01
5.937755e-01
5.625215e-01
5.312637e-01
5.000504e-01
1.000000e+00
9.687429e-01
9.374941e-01
9.062436e-01
8.749919e-01
8.437450e-01
8.124950e-01
7.812456e-01
7.499958e-01
7.187460e-01
6.874961e-01
6.562461e-01
6.249962e-01
5.937462e-01
5.624961e-01
5.312419e-01
5.000292e-01
1.000000e+00
9.687239e-01
9.374606e-01
9.061577e-01
8.698540e-01
8.436596e-01
8.124348e-01
7.811873e-01
7.499416e-01
7.186977e-01
6.874527e-01
6.562077e-01
6.249627e-01
5.937168e-01
5.624706e-01
5.312201e-01
5.000079e-01
1.000000e+00
9.687105e-01
9.374378e-01
9.060948e-01
8.664495e-01
8.436097e-01
8.123943e-01
7.811486e-01
7.499056e-01
7.186655e-01
6.874238e-01
6.561821e-01
6.249404e-01
5.936971e-01
5.624535e-01
5.312053e-01
4.999935e-01
1.000000e+00
9.687086e-01
9.374346e-01
9.060849e-01
8.659238e-01
8.436025e-01
8.123879e-01
7.811425e-01
7.498997e-01
7.186601e-01
6.874189e-01
6.561776e-01
6.249363e-01
5.936934e-01
5.624502e-01
5.312025e-01
4.999906e-01
1.000000e+00
9.687186e-01
9.374515e-01
9.061327e-01
8.684539e-01
8.436384e-01
8.124178e-01
7.811707e-01
7.499257e-01
7.186830e-01
6.874392e-01
6.561954e-01
6.249517e-01
5.937067e-01
5.624616e-01
5.312122e-01
5.000000e-01
1.000000e+00
9.687366e-01
9.374830e-01
9.062150e-01
8.731884e-01
8.437133e-01
8.124731e-01
7.812235e-01
7.499744e-01
7.187262e-01
6.874776e-01
6.562291e-01
6.249808e-01
5.937322e-01
5.624836e-01
5.312308e-01
5.000180e-01
1.000000e+00
9.687581e-01
9.375200e-01
9.062972e-01
8.785330e-01
8.438100e-01
8.125343e-01
7.812830e-01
7.500293e-01
7.187748e-01
6.875208e-01
6.562672e-01
6.250138e-01
5.937609e-01
5.625084e-01
5.312520e-01
5.000386e-01
1.000000e+00
9.687738e-01
9.375486e-01
9.063529e-01
8.826859e-01
8.438938e-01
8.125808e-01
7.813289e-01