<?xml version="1.0"?>
<VTKFile type="StructuredGrid" version="0.1">
  <StructuredGrid WholeExtent="0 16 0 16 0 16">
    <Piece Extent="0 16 0 16 0 16">
      <PointData Scalars="temperature" Vectors="velocity">
        <DataArray type="Float32" Name="temperature" format="ascii">
1.000000e+00
5.721626e-01
5.714093e-01
5.705005e-01
5.695693e-01
5.686861e-01
5.679444e-01
5.674432e-01
5.672631e-01
5.674394e-01
5.679397e-01
5.686816e-01
5.695643e-01
5.704951e-01
5.714805e-01
5.717241e-01
0.000000e+00
1.000000e+00
5.722843e-01
5.715906e-01
5.707796e-01
5.699519e-01
5.691669e-01
5.685081e-01
5.680646e-01
5.679052e-01
5.680606e-01
5.685043e-01
5.691633e-01
5.699478e-01
5.707751e-01
5.716661e-01
5.719071e-01
0.000000e+00
1.000000e+00
5.723536e-01
5.718010e-01
5.711000e-01
5.703908e-01
5.697177e-01
5.691526e-01
5.687727e-01
5.686360e-01
5.687678e-01
5.691477e-01
5.697125e-01
5.703851e-01
5.710943e-01
5.718712e-01
5.719636e-01
0.000000e+00
1.000000e+00
5.724231e-01
5.720362e-01
5.714524e-01
5.708735e-01
5.703238e-01
5.698618e-01
5.695517e-01
5.694412e-01
5.695476e-01
5.698566e-01
5.703177e-01
5.708668e-01
5.714459e-01
5.720908e-01
5.721269e-01
0.000000e+00
1.000000e+00
5.725070e-01
5.722817e-01
5.718258e-01
5.713848e-01
5.709660e-01
5.706133e-01
5.703762e-01
5.702934e-01
5.703743e-01
5.706074e-01
5.709585e-01
5.713768e-01
5.718178e-01
5.723507e-01
5.721319e-01
0.000000e+00
1.000000e+00
5.725672e-01
5.725385e-01
5.722053e-01
5.719044e-01
5.716185e-01
5.713778e-01
5.712147e-01
5.711579e-01
5.712154e-01
5.713717e-01
5.716097e-01
5.718953e-01
5.721958e-01
5.725921e-01
5.725037e-01
0.000000e+00
1.000000e+00
5.725972e-01
5.727912e-01
5.725750e-01
5.724104e-01
5.722534e-01
5.721209e-01
5.720307e-01
5.719971e-01
5.720295e-01
5.721165e-01
5.722429e-01
5.723996e-01
5.725635e-01
5.727727e-01
5.729516e-01
0.000000e+00
1.000000e+00
5.726370e-01
5.730003e-01
5.729202e-01
5.728818e-01
5.728429e-01
5.728087e-01
5.727842e-01
5.727713e-01
5.727755e-01
5.727987e-01
5.728271e-01
5.728652e-01
5.729043e-01
5.729778e-01
5.728764e-01
0.000000e+00
1.000000e+00
5.727600e-01
5.731837e-01
5.732111e-01
5.732776e-01
5.733428e-01
5.733947e-01
5.734288e-01
5.734381e-01
5.734207e-01
5.733827e-01
5.733258e-01
5.732610e-01
5.731950e-01
5.731339e-01
5.735659e-01
0.000000e+00
1.000000e+00
5.728205e-01
5.732905e-01
5.734274e-01
5.735786e-01
5.737246e-01
5.738460e-01
5.739272e-01
5.739590e-01
5.739333e-01
5.738524e-01
5.737296e-01
5.735871e-01
5.734336e-01
5.732392e-01
5.733112e-01
0.000000e+00
1.000000e+00
5.728575e-01
5.733078e-01
5.735773e-01
5.737843e-01
5.739814e-01
5.741521e-01
5.742687e-01
5.743192e-01
5.743013e-01
5.742074e-01
5.740396e-01
5.738286e-01
5.735978e-01
5.733400e-01
5.727065e-01
0.000000e+00
1.000000e+00
5.729090e-01
5.733544e-01
5.736615e-01
5.738990e-01
5.741256e-01
5.743199e-01
5.744526e-01
5.745100e-01
5.744978e-01
5.743988e-01
5.741978e-01
5.739484e-01
5.736906e-01
5.734627e-01
5.724121e-01
0.000000e+00
1.000000e+00
5.729299e-01
5.733710e-01
5.736771e-01
5.739203e-01
5.741509e-01
5.743446e-01
5.744745e-01
5.745285e-01
5.745109e-01
5.744118e-01
5.742078e-01
5.739541e-01
5.736966e-01
5.735058e-01
5.725570e-01
0.000000e+00
1.000000e+00
5.729446e-01
5.733808e-01
5.736154e-01
5.738382e-01
5.740479e-01
5.742229e-01
5.743394e-01
5.743843e-01
5.743568e-01
5.742602e-01
5.740867e-01
5.738624e-01
5.736308e-01
5.735078e-01
5.726734e-01
0.000000e+00
1.000000e+00
5.728750e-01
5.733199e-01
5.734979e-01
5.736791e-01
5.738471e-01
5.739866e-01
5.740781e-01
5.741087e-01
5.740752e-01
5.739822e-01
5.738418e-01
5.736716e-01
5.735026e-01
5.734008e-01
5.726007e-01
0.000000e+00
1.000000e+00
5.729762e-01
5.732292e-01
5.733329e-01
5.734481e-01
5.735574e-01
5.736488e-01
5.737094e-01
5.737282e-01
5.737028e-01
5.736376e-01
5.735431e-01
5.734376e-01
5.733331e-01
5.732755e-01
5.726658e-01
0.000000e+00
1.000000e+00
5.728468e-01
5.730942e-01
5.731317e-01
5.731722e-01
5.732103e-01
5.732412e-01
5.732610e-01
5.732663e-01
5.732561e-01
5.732323e-01
5.731986e-01
5.731602e-01
5.731207e-01
5.731466e-01
5.726265e-01
0.000000e+00
1.000000e+00
5.721543e-01
5.712591e-01
5.702687e-01
5.692524e-01
5.682887e-01
5.674805e-01
5.669346e-01
5.667368e-01
5.669294e-01
5.674759e-01
5.682854e-01
5.692487e-01
5.702642e-01
5.713184e-01
5.716494e-01
0.000000e+00
1.000000e+00
5.722479e-01
5.714280e-01
5.705278e-01
5.696077e-01
5.687355e-01
5.680052e-01
5.675152e-01
5.673388e-01
5.675107e-01
5.680040e-01
5.687365e-01
5.696081e-01
5.705270e-01
5.714939e-01
5.717838e-01
0.000000e+00
1.000000e+00
5.723220e-01
5.716262e-01
5.708354e-01
5.700288e-01
5.692630e-01
5.686206e-01
5.681900e-01
5.680366e-01
5.681865e-01
5.686188e-01
5.692617e-01
5.700264e-01
5.708324e-01
5.716983e-01
5.718007e-01
0.000000e+00
1.000000e+00
5.724119e-01
5.718514e-01
5.711791e-01
5.704995e-01
5.698540e-01
5.693117e-01
5.689483e-01
5.688205e-01
5.689466e-01
5.693095e-01
5.698513e-01
5.704960e-01
5.711755e-01
5.719220e-01
5.720657e-01
0.000000e+00
1.000000e+00
5.725035e-01
5.720943e-01
5.715491e-01
5.710061e-01
5.704906e-01
5.700562e-01
5.697646e-01
5.696635e-01
5.697651e-01
5.700530e-01
5.704855e-01
5.710009e-01
5.715443e-01
5.722221e-01
5.718461e-01
0.000000e+00
1.000000e+00
5.725891e-01
5.723497e-01
5.719303e-01
5.715280e-01
5.711459e-01
5.708242e-01
5.706066e-01
5.705310e-01
5.706081e-01
5.708197e-01
5.711387e-01
5.715205e-01
5.719231e-01
5.724787e-01
5.718961e-01
0.000000e+00
1.000000e+00
5.726689e-01
5.726010e-01
5.723046e-01
5.720402e-01
5.717891e-01
5.715776e-01
5.714340e-01
5.713826e-01
5.714345e-01
5.715740e-01
5.717805e-01
5.720311e-01
5.722950e-01
5.726212e-01
5.726508e-01
0.000000e+00
1.000000e+00
5.727102e-01
5.728243e-01
5.726529e-01
5.725170e-01
5.723873e-01
5.722778e-01
5.722037e-01
5.721752e-01
5.722001e-01
5.722755e-01
5.723788e-01
5.725060e-01
5.726411e-01
5.727867e-01
5.727517e-01
0.000000e+00
1.000000e+00
5.727414e-01
5.730168e-01
5.729597e-01
5.729339e-01
5.729077e-01
5.728843e-01
5.728684e-01
5.728621e-01
5.728636e-01
5.728799e-01
5.729008e-01
5.729220e-01
5.729470e-01
5.729760e-01
5.728020e-01
0.000000e+00
1.000000e+00
5.727239e-01
5.731839e-01
5.731999e-01
5.732566e-01
5.733171e-01
5.733655e-01
5.733967e-01
5.734072e-01
5.733957e-01
5.733637e-01
5.733159e-01
5.732539e-01
5.731914e-01
5.731002e-01
5.737256e-01
0.000000e+00
1.000000e+00
5.728020e-01
5.732218e-01
5.733508e-01
5.734796e-01
5.736010e-01
5.736999e-01
5.737617e-01
5.737820e-01
5.737640e-01
5.737165e-01
5.736244e-01
5.734960e-01
5.733608e-01
5.731865e-01
5.731808e-01
0.000000e+00
1.000000e+00
5.729055e-01
5.732006e-01
5.734419e-01
5.736026e-01
5.737504e-01
5.738735e-01
5.739539e-01
5.739837e-01
5.739677e-01
5.739208e-01
5.737998e-01
5.736246e-01
5.734519e-01
5.732801e-01
5.724966e-01
0.000000e+00
1.000000e+00
5.728876e-01
5.732106e-01
5.734549e-01
5.736202e-01
5.737720e-01
5.738971e-01
5.739789e-01
5.740080e-01
5.739873e-01
5.739358e-01
5.738138e-01
5.736316e-01
5.734586e-01
5.733503e-01
5.724720e-01
0.000000e+00
1.000000e+00
5.728703e-01
5.732121e-01
5.734028e-01
5.735418e-01
5.736720e-01
5.737782e-01
5.738458e-01
5.738661e-01
5.738381e-01
5.737774e-01
5.736840e-01
5.735547e-01
5.734048e-01
5.733848e-01
5.726755e-01
0.000000e+00
1.000000e+00
5.727819e-01
5.731836e-01
5.732655e-01
5.733600e-01
5.734485e-01
5.735238e-01
5.735744e-01
5.735914e-01
5.735728e-01
5.735233e-01
5.734530e-01
5.733753e-01
5.732787e-01
5.732384e-01
5.726589e-01
0.000000e+00
1.000000e+00
5.728850e-01
5.730968e-01
5.731089e-01
5.731399e-01
5.731703e-01
5.731953e-01
5.732111e-01
5.732138e-01
5.732044e-01
5.731850e-01
5.731581e-01
5.731301e-01
5.731014e-01
5.731403e-01
5.726317e-01
0.000000e+00
1.000000e+00
5.727796e-01
5.729613e-01
5.729110e-01
5.728666e-01
5.728225e-01
5.727838e-01
5.727570e-01
5.727464e-01
5.727530e-01
5.727751e-01
5.728093e-01
5.728507e-01
5.728947e-01
5.730175e-01
5.723909e-01
0.000000e+00
1.000000e+00
5.720768e-01
5.711416e-01
5.700867e-01
5.690029e-01
5.679755e-01
5.671146e-01
5.665323e-01
5.663220e-01
5.665286e-01
5.671107e-01
5.679736e-01
5.690002e-01
5.700826e-01
5.712076e-01
5.715960e-01
0.000000e+00
1.000000e+00
5.721723e-01
5.712985e-01
5.703272e-01
5.693326e-01
5.683898e-01
5.675999e-01
5.670699e-01
5.668781e-01
5.670655e-01
5.675994e-01
5.683909e-01
5.693327e-01
5.703256e-01
5.713727e-01
5.716829e-01
0.000000e+00
1.000000e+00
5.722410e-01
5.714859e-01
5.706197e-01
5.697326e-01
5.688906e-01
5.681840e-01
5.677105e-01
5.675412e-01
5.677071e-01
5.681837e-01
5.688904e-01
5.697306e-01
5.706161e-01
5.715713e-01
5.717071e-01
0.000000e+00
1.000000e+00
5.723326e-01
5.717017e-01
5.709526e-01
5.701888e-01
5.694633e-01
5.688538e-01
5.684453e-01
5.683016e-01
5.684431e-01
5.688528e-01
5.694623e-01
5.701865e-01
5.709494e-01
5.718291e-01
5.718851e-01
0.000000e+00
1.000000e+00
5.724374e-01
5.719406e-01
5.713171e-01
5.706879e-01
5.700905e-01
5.695877e-01
5.692499e-01
5.691324e-01
5.692495e-01
5.695848e-01
5.700873e-01
5.706844e-01
5.713143e-01
5.722104e-01
5.715893e-01
0.000000e+00
1.000000e+00
5.725531e-01
5.721899e-01
5.716978e-01
5.712091e-01
5.707453e-01
5.703544e-01
5.700909e-01
5.699991e-01
5.700916e-01
5.703500e-01
5.707392e-01
5.712030e-01
5.716926e-01
5.724392e-01
5.717205e-01
0.000000e+00
1.000000e+00
5.726579e-01
5.724340e-01
5.720757e-01
5.717264e-01
5.713948e-01
5.711157e-01
5.709262e-01
5.708593e-01
5.709261e-01
5.711101e-01
5.713863e-01
5.717174e-01
5.720667e-01
5.724981e-01
5.725146e-01
0.000000e+00
1.000000e+00
5.727319e-01
5.726686e-01
5.724294e-01
5.722111e-01
5.720034e-01
5.718286e-01
5.717104e-01
5.716662e-01
5.717075e-01
5.718232e-01
5.719946e-01
5.722006e-01
5.724185e-01
5.726307e-01
5.729195e-01
0.000000e+00
1.000000e+00
5.727589e-01
5.728817e-01
5.727389e-01
5.726358e-01
5.725372e-01
5.724541e-01
5.723973e-01
5.723756e-01
5.723914e-01
5.724467e-01
5.725293e-01
5.726249e-01
5.727278e-01
5.727880e-01
5.729341e-01
0.000000e+00
1.000000e+00
5.727393e-01
5.730524e-01
5.729912e-01
5.729752e-01
5.729603e-01
5.729492e-01
5.729409e-01
5.729356e-01
5.729353e-01
5.729387e-01
5.729534e-01
5.729656e-01
5.729785e-01
5.729376e-01
5.734338e-01
0.000000e+00
1.000000e+00
5.726540e-01
5.731439e-01
5.731599e-01
5.731990e-01
5.732460e-01
5.732888e-01
5.733163e-01
5.733239e-01
5.733124e-01
5.732875e-01
5.732477e-01
5.732044e-01
5.731628e-01
5.730615e-01
5.737130e-01
0.000000e+00
1.000000e+00
5.726685e-01
5.731423e-01
5.732437e-01
5.733323e-01
5.734170e-01
5.734854e-01
5.735284e-01
5.735399e-01
5.735223e-01
5.734907e-01
5.734168e-01
5.733516e-01
5.732738e-01
5.731729e-01
5.723552e-01
0.000000e+00
1.000000e+00
5.726786e-01
5.731202e-01
5.732565e-01
5.733516e-01
5.734410e-01
5.735124e-01
5.735579e-01
5.735695e-01
5.735496e-01
5.735174e-01
5.734417e-01
5.733658e-01
5.732765e-01
5.732221e-01
5.721157e-01
0.000000e+00
1.000000e+00
5.726024e-01
5.731079e-01
5.731879e-01
5.732543e-01
5.733196e-01
5.733731e-01
5.734093e-01
5.734226e-01
5.734094e-01
5.733763e-01
5.733266e-01
5.732703e-01
5.732092e-01
5.732003e-01
5.723863e-01
0.000000e+00
1.000000e+00
5.727119e-01
5.731047e-01
5.730842e-01
5.731009e-01
5.731196e-01
5.731376e-01
5.731511e-01
5.731553e-01
5.731485e-01
5.731329e-01
5.731140e-01
5.730951e-01
5.730752e-01
5.731124e-01
5.725727e-01
0.000000e+00
1.000000e+00
5.728496e-01
5.729824e-01
5.729199e-01
5.728812e-01
5.728423e-01
5.728067e-01
5.727800e-01
5.727670e-01
5.727713e-01
5.727916e-01
5.728231e-01
5.728614e-01
5.729023e-01
5.730228e-01
5.723090e-01
0.000000e+00
1.000000e+00
5.728324e-01
5.728383e-01
5.727089e-01
5.725919e-01
5.724799e-01
5.723844e-01
5.723193e-01
5.722958e-01
5.723171e-01
5.723788e-01
5.724710e-01
5.725814e-01
5.726980e-01
5.728875e-01
5.723067e-01
0.000000e+00
1.000000e+00
5.720261e-01
5.710643e-01
5.699641e-01
5.688351e-01
5.677651e-01
5.668696e-01
5.662625e-01
5.660453e-01
5.662612e-01
5.668674e-01
5.677660e-01
5.688350e-01
5.699619e-01
5.711417e-01
5.715396e-01
0.000000e+00
1.000000e+00
5.721145e-01
5.712078e-01
5.701857e-01
5.691390e-01
5.681467e-01
5.673160e-01
5.667583e-01
5.665567e-01
5.667555e-01
5.673175e-01
5.681506e-01
5.691413e-01
5.701858e-01
5.712989e-01
5.716033e-01
0.000000e+00
1.000000e+00
5.721804e-01
5.713856e-01
5.704627e-01
5.695174e-01
5.686206e-01
5.678682e-01
5.673651e-01
5.671846e-01
5.673633e-01
5.678717e-01
5.686245e-01
5.695191e-01
5.704617e-01
5.714936e-01
5.717252e-01
0.000000e+00
1.000000e+00
5.722750e-01
5.715937e-01
5.707845e-01
5.699583e-01
5.691740e-01
5.685153e-01
5.680749e-01
5.679199e-01
5.680741e-01
5.685192e-01
5.691786e-01
5.699612e-01
5.707861e-01
5.718374e-01
5.717234e-01
0.000000e+00
1.000000e+00
5.723934e-01
5.718234e-01
5.711425e-01
5.704488e-01
5.697902e-01
5.692362e-01
5.688648e-01
5.687369e-01
5.688657e-01
5.692381e-01
5.697935e-01
5.704523e-01
5.711479e-01
5.723592e-01
5.708526e-01
0.000000e+00
1.000000e+00
5.725236e-01
5.720683e-01
5.715213e-01
5.709676e-01
5.704422e-01
5.699994e-01
5.697014e-01
5.695990e-01
5.697039e-01
5.699985e-01
5.704424e-01
5.709693e-01
5.715256e-01
5.724761e-01
5.709211e-01
0.000000e+00
1.000000e+00
5.726571e-01
5.723153e-01
5.719012e-01
5.714880e-01
5.710956e-01
5.707656e-01
5.705416e-01
5.704634e-01
5.705424e-01
5.707626e-01
5.710921e-01
5.714856e-01
5.719004e-01
5.723977e-01
5.721552e-01
0.000000e+00
1.000000e+00
5.727835e-01
5.725528e-01
5.722601e-01
5.719794e-01
5.717126e-01
5.714882e-01
5.713365e-01
5.712806e-01
5.713338e-01
5.714842e-01
5.717084e-01
5.719745e-01
5.722551e-01
5.725321e-01
5.727770e-01
0.000000e+00
1.000000e+00
5.728961e-01
5.727670e-01
5.725760e-01
5.724122e-01
5.722562e-01
5.721246e-01
5.720356e-01
5.720033e-01
5.720323e-01
5.721200e-01
5.722526e-01
5.724048e-01
5.725701e-01
5.727001e-01
5.733043e-01
0.000000e+00
1.000000e+00
5.729366e-01
5.729364e-01
5.728305e-01
5.727625e-01
5.726965e-01
5.726397e-01
5.726006e-01
5.725855e-01
5.725970e-01
5.726327e-01
5.726892e-01
5.727528e-01
5.728248e-01
5.728830e-01
5.737391e-01
0.000000e+00
1.000000e+00
5.728120e-01
5.730644e-01
5.730143e-01
5.730106e-01
5.730031e-01
5.729969e-01
5.729923e-01
5.729893e-01
5.729882e-01
5.729904e-01
5.729932e-01
5.729968e-01
5.730073e-01
5.732007e-01
5.744101e-01
0.000000e+00
1.000000e+00
5.725425e-01
5.731310e-01
5.731078e-01
5.731295e-01
5.731507e-01
5.731721e-01
5.731868e-01
5.731917e-01
5.731867e-01
5.731783e-01
5.731614e-01
5.731444e-01
5.731211e-01
5.733386e-01
5.732014e-01
0.000000e+00
1.000000e+00
5.724331e-01
5.731396e-01
5.731130e-01
5.731374e-01
5.731686e-01
5.731963e-01
5.732162e-01
5.732226e-01
5.732158e-01
5.732060e-01
5.731837e-01
5.731711e-01
5.731408e-01
5.731641e-01
5.724065e-01
0.000000e+00
1.000000e+00
5.726089e-01
5.731255e-01
5.730627e-01
5.730698e-01
5.730766e-01
5.730812e-01
5.730845e-01
5.730873e-01
5.730884e-01
5.730858e-01
5.730777e-01
5.730663e-01
5.730551e-01
5.729991e-01
5.721921e-01
0.000000e+00
1.000000e+00
5.729007e-01
5.730260e-01
5.729362e-01
5.729046e-01
5.728746e-01
5.728499e-01
5.728327e-01
5.728229e-01
5.728227e-01
5.728349e-01
5.728596e-01
5.728915e-01
5.729242e-01
5.729366e-01
5.720206e-01
0.000000e+00
1.000000e+00
5.730007e-01
5.728827e-01
5.727614e-01
5.726661e-01
5.725748e-01
5.724962e-01
5.724409e-01
5.724188e-01
5.724350e-01
5.724865e-01
5.725637e-01
5.726557e-01
5.727515e-01
5.728603e-01
5.721610e-01
0.000000e+00
1.000000e+00
5.729595e-01
5.727233e-01
5.725541e-01
5.723803e-01
5.722145e-01
5.720740e-01
5.719786e-01
5.719445e-01
5.719772e-01
5.720699e-01
5.722076e-01
5.723719e-01
5.725447e-01
5.727544e-01
5.722308e-01
0.000000e+00
1.000000e+00
5.719998e-01
5.710319e-01
5.699121e-01
5.687640e-01
5.676760e-01
5.667661e-01
5.661486e-01
5.659303e-01
5.661498e-01
5.667663e-01
5.676800e-01
5.687668e-01
5.699123e-01
5.711295e-01
5.715107e-01
0.000000e+00
1.000000e+00
5.720782e-01
5.711657e-01
5.701171e-01
5.690451e-01
5.680287e-01
5.671784e-01
5.666066e-01
5.664023e-01
5.666069e-01
5.671826e-01
5.680359e-01
5.690504e-01
5.701195e-01
5.712854e-01
5.715029e-01
0.000000e+00
1.000000e+00
5.721357e-01
5.713349e-01
5.703799e-01
5.694042e-01
5.684784e-01
5.677023e-01
5.671834e-01
5.669979e-01
5.671851e-01
5.677097e-01
5.684867e-01
5.694101e-01
5.703829e-01
5.714911e-01
5.717493e-01
0.000000e+00
1.000000e+00
5.722290e-01
5.715330e-01
5.706912e-01
5.698308e-01
5.690141e-01
5.683283e-01
5.678709e-01
5.677090e-01
5.678732e-01
5.683374e-01
5.690241e-01
5.698390e-01
5.706995e-01
5.719559e-01
5.713520e-01
0.000000e+00
1.000000e+00
5.723506e-01
5.717548e-01
5.710427e-01
5.703127e-01
5.696194e-01
5.690364e-01
5.686465e-01
5.685127e-01
5.686498e-01
5.690450e-01
5.696296e-01
5.703224e-01
5.710556e-01
5.724646e-01
5.700882e-01
0.000000e+00
1.000000e+00
5.724887e-01
5.719988e-01
5.714191e-01
5.708284e-01
5.702676e-01
5.697953e-01
5.694777e-01
5.693698e-01
5.694827e-01
5.698002e-01
5.702760e-01
5.708376e-01
5.714288e-01
5.723864e-01
5.706461e-01
0.000000e+00
1.000000e+00
5.726741e-01
5.722467e-01
5.718006e-01
5.713504e-01
5.709230e-01
5.705637e-01
5.703204e-01
5.702362e-01
5.703225e-01
5.705664e-01
5.709303e-01
5.713564e-01
5.718038e-01
5.722804e-01
5.719154e-01
0.000000e+00
1.000000e+00
5.728620e-01
5.724769e-01
5.721632e-01
5.718466e-01
5.715460e-01
5.712933e-01
5.711228e-01
5.710607e-01
5.711216e-01
5.712978e-01
5.715480e-01
5.718483e-01
5.721627e-01
5.724470e-01
5.725558e-01
0.000000e+00
1.000000e+00
5.730338e-01
5.726811e-01
5.724835e-01
5.722853e-01
5.720969e-01
5.719383e-01
5.718314e-01
5.717931e-01
5.718306e-01
5.719400e-01
5.720962e-01
5.722831e-01
5.724809e-01
5.726968e-01
5.733372e-01
0.000000e+00
1.000000e+00
5.731587e-01
5.728519e-01
5.727412e-01
5.726387e-01
5.725407e-01
5.724580e-01
5.724020e-01
5.723818e-01
5.724014e-01
5.724585e-01
5.725402e-01
5.726357e-01
5.727416e-01
5.730093e-01
5.743286e-01
0.000000e+00
1.000000e+00
5.732380e-01
5.729906e-01
5.729222e-01
5.728880e-01
5.728548e-01
5.728257e-01
5.728054e-01
5.727973e-01
5.728027e-01
5.728207e-01
5.728494e-01
5.728836e-01
5.729178e-01
5.734264e-01
5.753021e-01
0.000000e+00
1.000000e+00
5.730848e-01
5.730932e-01
5.730216e-01
5.730252e-01
5.730271e-01
5.730265e-01
5.730249e-01
5.730226e-01
5.730195e-01
5.730163e-01
5.730143e-01
5.730135e-01
5.730162e-01
5.733212e-01
5.754163e-01
0.000000e+00
1.000000e+00
5.729534e-01
5.731266e-01
5.730374e-01
5.730451e-01
5.730496e-01
5.730514e-01
5.730509e-01
5.730482e-01
5.730448e-01
5.730409e-01
5.730342e-01
5.730320e-01
5.730383e-01
5.731984e-01
5.745409e-01
0.000000e+00
1.000000e+00
5.731936e-01
5.730576e-01
5.729706e-01
5.729519e-01
5.729324e-01
5.729146e-01
5.729026e-01
5.728995e-01
5.729051e-01
5.729152e-01
5.729294e-01
5.729450e-01
5.729632e-01
5.728247e-01
5.736504e-01
0.000000e+00
1.000000e+00
5.732625e-01
5.729199e-01
5.728390e-01
5.727725e-01
5.727111e-01
5.726615e-01
5.726286e-01
5.726145e-01
5.726220e-01
5.726532e-01
5.727044e-01
5.727683e-01
5.728364e-01
5.726999e-01
5.729955e-01
0.000000e+00
1.000000e+00
5.731931e-01
5.727781e-01
5.726661e-01
5.725359e-01
5.724119e-01
5.723058e-01
5.722321e-01
5.722039e-01
5.722270e-01
5.722974e-01
5.724027e-01
5.725278e-01
5.726588e-01
5.726424e-01
5.725896e-01
0.000000e+00
1.000000e+00
5.731010e-01
5.726193e-01
5.724562e-01
5.722465e-01
5.720465e-01
5.718771e-01
5.717623e-01
5.717216e-01
5.717614e-01
5.718739e-01
5.720405e-01
5.722389e-01
5.724473e-01
5.725922e-01
5.722121e-01
0.000000e+00
1.000000e+00
5.720014e-01
5.710497e-01
5.699382e-01
5.687998e-01
5.677209e-01
5.668189e-01
5.662072e-01
5.659932e-01
5.662106e-01
5.668218e-01
5.677280e-01
5.688056e-01
5.699414e-01
5.711822e-01
5.714159e-01
0.000000e+00
1.000000e+00
5.720701e-01
5.711756e-01
5.701304e-01
5.690634e-01
5.680516e-01
5.672053e-01
5.666353e-01
5.664347e-01
5.666388e-01
5.672117e-01
5.680614e-01
5.690715e-01
5.701358e-01
5.713236e-01
5.713791e-01
0.000000e+00
1.000000e+00
5.721209e-01
5.713363e-01
5.703820e-01
5.694073e-01
5.684825e-01
5.677076e-01
5.671888e-01
5.670047e-01
5.671937e-01
5.677173e-01
5.684932e-01
5.694160e-01
5.703885e-01
5.715437e-01
5.717013e-01
0.000000e+00
1.000000e+00
5.722051e-01
5.715293e-01
5.706848e-01
5.698227e-01
5.690042e-01
5.683173e-01
5.678592e-01
5.676960e-01
5.678646e-01
5.683290e-01
5.690153e-01
5.698312e-01
5.706946e-01
5.720537e-01
5.707642e-01
0.000000e+00
1.000000e+00
5.723183e-01
5.717515e-01
5.710311e-01
5.702976e-01
5.696009e-01
5.690152e-01
5.686240e-01
5.684886e-01
5.686292e-01
5.690269e-01
5.696112e-01
5.703041e-01
5.710399e-01
5.724668e-01
5.694755e-01
0.000000e+00
1.000000e+00
5.724775e-01
5.719928e-01
5.714059e-01
5.708107e-01
5.702455e-01
5.697702e-01
5.694506e-01
5.693428e-01
5.694565e-01
5.697791e-01
5.702513e-01
5.708137e-01
5.714097e-01
5.723958e-01
5.701214e-01
0.000000e+00
1.000000e+00
5.726985e-01
5.722337e-01
5.717882e-01
5.713335e-01
5.709020e-01
5.705395e-01
5.702947e-01
5.702104e-01
5.702969e-01
5.705418e-01
5.709033e-01
5.713333e-01
5.717873e-01
5.722669e-01
5.718196e-01
0.000000e+00
1.000000e+00
5.729374e-01
5.724552e-01
5.721532e-01
5.718329e-01
5.715290e-01
5.712737e-01
5.711017e-01
5.710398e-01
5.711018e-01
5.712810e-01
5.715304e-01
5.718335e-01
5.721515e-01
5.724152e-01
5.728251e-01
0.000000e+00
1.000000e+00
5.731928e-01
5.726468e-01
5.724761e-01
5.722753e-01
5.720845e-01
5.719241e-01
5.718162e-01
5.717780e-01
5.718181e-01
5.719288e-01
5.720857e-01
5.722779e-01
5.724736e-01
5.726853e-01
5.732923e-01
0.000000e+00
1.000000e+00
5.734766e-01
5.727945e-01
5.727359e-01
5.726311e-01
5.725312e-01
5.724471e-01
5.723905e-01
5.723710e-01
5.723927e-01
5.724500e-01
5.725320e-01
5.726347e-01
5.727378e-01
5.729470e-01
5.732859e-01
0.000000e+00
1.000000e+00
5.736869e-01
5.729027e-01
5.729174e-01
5.728794e-01
5.728430e-01
5.728123e-01
5.727917e-01
5.727845e-01
5.727924e-01
5.728134e-01
5.728426e-01
5.728795e-01
5.729176e-01
5.730306e-01
5.733206e-01
0.000000e+00
1.000000e+00
5.738054e-01
5.729678e-01
5.730125e-01
5.730088e-01
5.730055e-01
5.730024e-01
5.730002e-01
5.729993e-01
5.729998e-01
5.730020e-01
5.730063e-01
5.730082e-01
5.730078e-01
5.729432e-01
5.749996e-01
0.000000e+00
1.000000e+00
5.737804e-01
5.729696e-01
5.730221e-01
5.730217e-01
5.730209e-01
5.730189e-01
5.730178e-01
5.730189e-01
5.730218e-01
5.730237e-01
5.730236e-01
5.730150e-01
5.730179e-01
5.728969e-01
5.757193e-01
0.000000e+00
1.000000e+00
5.736352e-01
5.729111e-01
5.729520e-01
5.729260e-01
5.729010e-01
5.728807e-01
5.728700e-01
5.728705e-01
5.728784e-01
5.728908e-01
5.729097e-01
5.729309e-01
5.729494e-01
5.728865e-01
5.752726e-01
0.000000e+00
1.000000e+00
5.734813e-01
5.728240e-01
5.728180e-01
5.727451e-01
5.726777e-01
5.726226e-01
5.725854e-01
5.725701e-01
5.725804e-01
5.726167e-01
5.726734e-01
5.727435e-01
5.728185e-01
5.727413e-01
5.746163e-01
0.000000e+00
1.000000e+00
5.733806e-01
5.726991e-01
5.726414e-01
5.725019e-01
5.723689e-01
5.722553e-01
5.721770e-01
5.721474e-01
5.721724e-01
5.722476e-01
5.723601e-01
5.724941e-01
5.726353e-01
5.725513e-01
5.740305e-01
0.000000e+00
1.000000e+00
5.732833e-01
5.725329e-01
5.724246e-01
5.722036e-01
5.719927e-01
5.718144e-01
5.716937e-01
5.716509e-01
5.716931e-01
5.718119e-01
5.719876e-01
5.721967e-01
5.724174e-01
5.724170e-01
5.727774e-01
0.000000e+00
1.000000e+00
5.720382e-01
5.711183e-01
5.700454e-01
5.689467e-01
5.679051e-01
5.670344e-01
5.664444e-01
5.662399e-01
5.664493e-01
5.670389e-01
5.679140e-01
5.689544e-01
5.700510e-01
5.712843e-01
5.713085e-01
0.000000e+00
1.000000e+00
5.720976e-01
5.712392e-01
5.702296e-01
5.691996e-01
5.682228e-01
5.674054e-01
5.668542e-01
5.666624e-01
5.668600e-01
5.674129e-01
5.682335e-01
5.692091e-01
5.702368e-01
5.713863e-01
5.714050e-01
0.000000e+00
1.000000e+00
5.721368e-01
5.713962e-01
5.704744e-01
5.695343e-01
5.686425e-01
5.678952e-01
5.673939e-01
5.672163e-01
5.674001e-01
5.679048e-01
5.686524e-01
5.695421e-01
5.704807e-01
5.716067e-01
5.716823e-01
0.000000e+00
1.000000e+00
5.722116e-01
5.715903e-01
5.707725e-01
5.699429e-01
5.691559e-01
5.684955e-01
5.680545e-01
5.678959e-01
5.680604e-01
5.685072e-01
5.691667e-01
5.699506e-01
5.707809e-01
5.721020e-01
5.705626e-01
0.000000e+00
1.000000e+00
5.723287e-01
5.718152e-01
5.711162e-01
5.704139e-01
5.697474e-01
5.691877e-01
5.688140e-01
5.686824e-01
5.688181e-01
5.692003e-01
5.697608e-01
5.704240e-01
5.711290e-01
5.725151e-01
5.696651e-01
0.000000e+00
1.000000e+00
5.725140e-01
5.720527e-01
5.714903e-01
5.709259e-01
5.703903e-01
5.699406e-01
5.696389e-01
5.695364e-01
5.696414e-01
5.699534e-01
5.704023e-01
5.709356e-01
5.715007e-01
5.724428e-01
5.703653e-01
0.000000e+00
1.000000e+00
5.727599e-01
5.722855e-01
5.718729e-01
5.714495e-01
5.710478e-01
5.707107e-01
5.704840e-01
5.704061e-01
5.704885e-01
5.707199e-01
5.710563e-01
5.714557e-01
5.718768e-01
5.723083e-01
5.718912e-01
0.000000e+00
1.000000e+00
5.730479e-01
5.724973e-01
5.722392e-01
5.719509e-01
5.716772e-01
5.714475e-01
5.712931e-01
5.712391e-01
5.712943e-01
5.714532e-01
5.716846e-01
5.719565e-01
5.722410e-01
5.724350e-01
5.727272e-01
0.000000e+00
1.000000e+00
5.733885e-01
5.726682e-01
5.725636e-01
5.723950e-01
5.722348e-01
5.721003e-01
5.720101e-01
5.719792e-01
5.720128e-01
5.721019e-01
5.722408e-01
5.724020e-01
5.725649e-01
5.727369e-01
5.740778e-01
0.000000e+00
1.000000e+00
5.738279e-01
5.727662e-01
5.728239e-01
5.727511e-01
5.726817e-01
5.726234e-01
5.725844e-01
5.725718e-01
5.725870e-01
5.726238e-01
5.726818e-01
5.727567e-01
5.728270e-01
5.729609e-01
5.737384e-01
0.000000e+00
1.000000e+00
5.739968e-01
5.728497e-01
5.730038e-01
5.729973e-01
5.729903e-01
5.729843e-01
5.729805e-01
5.729798e-01
5.729815e-01
5.729835e-01
5.729856e-01
5.729960e-01
5.730049e-01
5.725119e-01
5.705121e-01
0.000000e+00
1.000000e+00
5.737842e-01
5.729218e-01
5.730949e-01
5.731214e-01
5.731459e-01
5.731665e-01
5.731812e-01
5.731872e-01
5.731825e-01
5.731676e-01
5.731459e-01
5.731212e-01
5.730927e-01
5.725794e-01
5.710913e-01
0.000000e+00
1.000000e+00
5.736420e-01
5.729305e-01
5.730960e-01
5.731236e-01
5.731497e-01
5.731724e-01
5.731873e-01
5.731924e-01
5.731868e-01
5.731716e-01
5.731505e-01
5.731161e-01
5.730929e-01
5.728166e-01
5.735951e-01
0.000000e+00
1.000000e+00
5.736435e-01
5.728917e-01
5.730160e-01
5.730149e-01
5.730136e-01
5.730145e-01
5.730171e-01
5.730202e-01
5.730223e-01
5.730229e-01
5.730233e-01
5.730208e-01
5.730187e-01
5.731419e-01
5.752993e-01
0.000000e+00
1.000000e+00
5.736961e-01
5.727989e-01
5.728788e-01
5.728290e-01
5.727831e-01
5.727453e-01
5.727204e-01
5.727115e-01
5.727202e-01
5.727448e-01
5.727824e-01
5.728295e-01
5.728798e-01
5.731228e-01
5.755273e-01
0.000000e+00
1.000000e+00
5.736713e-01
5.726475e-01
5.726930e-01
5.725724e-01
5.724573e-01
5.723594e-01
5.722923e-01
5.722671e-01
5.722886e-01
5.723531e-01
5.724498e-01
5.725651e-01
5.726849e-01
5.728425e-01
5.758095e-01
0.000000e+00
1.000000e+00
5.734835e-01
5.724697e-01
5.724664e-01
5.722618e-01
5.720661e-01
5.719008e-01
5.717890e-01
5.717493e-01
5.717885e-01
5.718987e-01
5.720616e-01
5.722553e-01
5.724599e-01
5.724635e-01
5.748930e-01
0.000000e+00
1.000000e+00
5.721097e-01
5.712355e-01
5.702309e-01
5.692011e-01
5.682243e-01
5.674078e-01
5.668546e-01
5.666645e-01
5.668602e-01
5.674127e-01
5.682335e-01
5.692092e-01
5.702376e-01
5.714251e-01
5.711757e-01
0.000000e+00
1.000000e+00
5.721568e-01
5.713570e-01
5.704131e-01
5.694510e-01
5.685387e-01
5.677751e-01
5.672600e-01
5.670803e-01
5.672660e-01
5.677823e-01
5.685488e-01
5.694602e-01
5.704200e-01
5.714890e-01
5.715663e-01
0.000000e+00
1.000000e+00
5.721903e-01
5.715165e-01
5.706562e-01
5.697833e-01
5.689558e-01
5.682623e-01
5.677968e-01
5.676298e-01
5.678026e-01
5.682717e-01
5.689652e-01
5.697900e-01
5.706604e-01
5.717124e-01
5.716924e-01
0.000000e+00
1.000000e+00
5.722726e-01
5.717098e-01
5.709537e-01
5.701907e-01
5.694674e-01
5.688611e-01
5.684560e-01
5.683090e-01
5.684601e-01
5.688730e-01
5.694808e-01
5.702012e-01
5.709643e-01
5.722336e-01
5.706002e-01
0.000000e+00
1.000000e+00
5.724030e-01
5.719306e-01
5.712976e-01
5.706617e-01
5.700587e-01
5.695531e-01
5.692158e-01
5.690970e-01
5.692171e-01
5.695662e-01
5.700759e-01
5.706759e-01
5.713134e-01
5.726543e-01
5.697854e-01
0.000000e+00
1.000000e+00
5.725903e-01
5.721684e-01
5.716722e-01
5.711746e-01
5.707027e-01
5.703068e-01
5.700421e-01
5.699528e-01
5.700435e-01
5.703203e-01
5.707196e-01
5.711873e-01
5.716829e-01
5.725615e-01
5.705854e-01
0.000000e+00
1.000000e+00
5.728616e-01
5.723992e-01
5.720557e-01
5.716996e-01
5.713618e-01
5.710785e-01
5.708886e-01
5.708241e-01
5.708956e-01
5.710938e-01
5.713761e-01
5.717073e-01
5.720588e-01
5.724872e-01
5.714477e-01
0.000000e+00
1.000000e+00
5.732082e-01
5.725987e-01
5.724229e-01
5.722022e-01
5.719928e-01
5.718171e-01
5.716993e-01
5.716590e-01
5.717015e-01
5.718200e-01
5.719996e-01
5.722091e-01
5.724254e-01
5.725405e-01
5.727353e-01
0.000000e+00
1.000000e+00
5.736755e-01
5.727305e-01
5.727474e-01
5.726463e-01
5.725501e-01
5.724694e-01
5.724156e-01
5.723978e-01
5.724170e-01
5.724663e-01
5.725549e-01
5.726540e-01
5.727517e-01
5.728800e-01
5.742880e-01
0.000000e+00
1.000000e+00
5.740184e-01
5.728033e-01
5.730060e-01
5.729997e-01
5.729929e-01
5.729878e-01
5.729851e-01
5.729856e-01
5.729871e-01
5.729863e-01
5.729938e-01
5.730065e-01
5.730134e-01
5.731331e-01
5.736570e-01
0.000000e+00
1.000000e+00
5.737782e-01
5.729342e-01
5.731784e-01
5.732350e-01
5.732889e-01
5.733355e-01
5.733681e-01
5.733802e-01
5.733686e-01
5.733367e-01
5.732963e-01
5.732488e-01
5.731948e-01
5.728484e-01
5.715990e-01
0.000000e+00
1.000000e+00
5.735658e-01
5.730653e-01
5.732601e-01
5.733480e-01
5.734340e-01
5.735049e-01
5.735516e-01
5.735676e-01
5.735470e-01
5.734963e-01
5.734309e-01
5.733538e-01
5.732674e-01
5.729009e-01
5.699475e-01
0.000000e+00
1.000000e+00
5.735132e-01
5.730921e-01
5.732566e-01
5.733473e-01
5.734310e-01
5.735009e-01
5.735472e-01
5.735618e-01
5.735395e-01
5.734871e-01
5.734148e-01
5.733326e-01
5.732546e-01
5.728270e-01
5.688735e-01
0.000000e+00
1.000000e+00
5.734867e-01
5.730289e-01
5.731680e-01
5.732244e-01
5.732763e-01
5.733207e-01
5.733515e-01
5.733628e-01
5.733520e-01
5.733247e-01
5.732844e-01
5.732334e-01
5.731780e-01
5.726042e-01
5.703364e-01
0.000000e+00
1.000000e+00
5.737138e-01
5.728931e-01
5.730158e-01
5.730169e-01
5.730189e-01
5.730217e-01
5.730250e-01
5.730277e-01
5.730287e-01
5.730293e-01
5.730304e-01
5.730305e-01
5.730309e-01
5.730047e-01
5.730709e-01
0.000000e+00
1.000000e+00
5.739306e-01
5.726861e-01
5.728255e-01
5.727538e-01
5.726854e-01
5.726273e-01
5.725879e-01