<?xml version="1.0"?>
<VTKFile type="StructuredGrid" version="0.1">
  <StructuredGrid WholeExtent="0 16 0 16 0 16">
    <Piece Extent="0 16 0 16 0 16">
      <PointData Scalars="temperature" Vectors="velocity">
        <DataArray type="Float32" Name="temperature" format="ascii">
1.000000e+00
5.731205e-01
5.730232e-01
5.730433e-01
5.730574e-01
5.730707e-01
5.730818e-01
5.730893e-01
5.730919e-01
5.730891e-01
5.730816e-01
5.730705e-01
5.730570e-01
5.730422e-01
5.730461e-01
5.728282e-01
0.000000e+00
1.000000e+00
5.730840e-01
5.730266e-01
5.730560e-01
5.730743e-01
5.730916e-01
5.731060e-01
5.731157e-01
5.731190e-01
5.731155e-01
5.731057e-01
5.730912e-01
5.730731e-01
5.730530e-01
5.730277e-01
5.730003e-01
0.000000e+00
1.000000e+00
5.732201e-01
5.732723e-01
5.734402e-01
5.736000e-01
5.737514e-01
5.738787e-01
5.739644e-01
5.739947e-01
5.739641e-01
5.738778e-01
5.737494e-01
5.735969e-01
5.734389e-01
5.732802e-01
5.732511e-01
0.000000e+00
1.000000e+00
5.734770e-01
5.737795e-01
5.742338e-01
5.746866e-01
5.751160e-01
5.754767e-01
5.757197e-01
5.758053e-01
5.757181e-01
5.754738e-01
5.751123e-01
5.746835e-01
5.742376e-01
5.737952e-01
5.733269e-01
0.000000e+00
1.000000e+00
5.738573e-01
5.745580e-01
5.754534e-01
5.763568e-01
5.772136e-01
5.779335e-01
5.784184e-01
5.785896e-01
5.784172e-01
5.779322e-01
5.772140e-01
5.763594e-01
5.754676e-01
5.745881e-01
5.736043e-01
0.000000e+00
1.000000e+00
5.743685e-01
5.756010e-01
5.770916e-01
5.785998e-01
5.800301e-01
5.812320e-01
5.820418e-01
5.823285e-01
5.820419e-01
5.812331e-01
5.800374e-01
5.786124e-01
5.771197e-01
5.756455e-01
5.740590e-01
0.000000e+00
1.000000e+00
5.750018e-01
5.768825e-01
5.791034e-01
5.813547e-01
5.834897e-01
5.852837e-01
5.864924e-01
5.869202e-01
5.864931e-01
5.852892e-01
5.835070e-01
5.813808e-01
5.791436e-01
5.769391e-01
5.746866e-01
0.000000e+00
1.000000e+00
5.757226e-01
5.783527e-01
5.814121e-01
5.845157e-01
5.874590e-01
5.899325e-01
5.915993e-01
5.921897e-01
5.916021e-01
5.899456e-01
5.874870e-01
5.845535e-01
5.814616e-01
5.784284e-01
5.753779e-01
0.000000e+00
1.000000e+00
5.765060e-01
5.799439e-01
5.839112e-01
5.879373e-01
5.917556e-01
5.949649e-01
5.971279e-01
5.978951e-01
5.971338e-01
5.949866e-01
5.917940e-01
5.879847e-01
5.839670e-01
5.800539e-01
5.760724e-01
0.000000e+00
1.000000e+00
5.773074e-01
5.815772e-01
5.864752e-01
5.914477e-01
5.961638e-01
6.001278e-01
6.028001e-01
6.037490e-01
6.028096e-01
6.001570e-01
5.962115e-01
5.915010e-01
5.865355e-01
5.817299e-01
5.766669e-01
0.000000e+00
1.000000e+00
5.780912e-01
5.831662e-01
5.889718e-01
5.948659e-01
6.004563e-01
6.051553e-01
6.083236e-01
6.094496e-01
6.083370e-01
6.051911e-01
6.005132e-01
5.949240e-01
5.890337e-01
5.833392e-01
5.773424e-01
0.000000e+00
1.000000e+00
5.788165e-01
5.846308e-01
5.912765e-01
5.980216e-01
6.044192e-01
6.097969e-01
6.134233e-01
6.147131e-01
6.134407e-01
6.098388e-01
6.044865e-01
5.980843e-01
5.913429e-01
5.848039e-01
5.780982e-01
0.000000e+00
1.000000e+00
5.794397e-01
5.859077e-01
5.932852e-01
6.007722e-01
6.078734e-01
6.138429e-01
6.178688e-01
6.193015e-01
6.178898e-01
6.138910e-01
6.079519e-01
6.008417e-01
5.933561e-01
5.860720e-01
5.787678e-01
0.000000e+00
1.000000e+00
5.799487e-01
5.869437e-01
5.949218e-01
6.030136e-01
6.106886e-01
6.171406e-01
6.214924e-01
6.230419e-01
6.215166e-01
6.171956e-01
6.107781e-01
6.030920e-01
5.950015e-01
5.871022e-01
5.793783e-01
0.000000e+00
1.000000e+00
5.803545e-01
5.876998e-01
5.961411e-01
6.046843e-01
6.127880e-01
6.196007e-01
6.241963e-01
6.258336e-01
6.242249e-01
6.196642e-01
6.128889e-01
6.047752e-01
5.962299e-01
5.878743e-01
5.798695e-01
0.000000e+00
1.000000e+00
5.806363e-01
5.881893e-01
5.969334e-01
6.057693e-01
6.141508e-01
6.211977e-01
6.259522e-01
6.276473e-01
6.259861e-01
6.212698e-01
6.142610e-01
6.058679e-01
5.970267e-01
5.883780e-01
5.801554e-01
0.000000e+00
1.000000e+00
5.807557e-01
5.884258e-01
5.973104e-01
6.062855e-01
6.147996e-01
6.219585e-01
6.267893e-01
6.285131e-01
6.268286e-01
6.220365e-01
6.149237e-01
6.063982e-01
5.974120e-01
5.886257e-01
5.801205e-01
0.000000e+00
1.000000e+00
5.729870e-01
5.728091e-01
5.727098e-01
5.726000e-01
5.724958e-01
5.724082e-01
5.723491e-01
5.723281e-01
5.723487e-01
5.724074e-01
5.724948e-01
5.725991e-01
5.727064e-01
5.729248e-01
5.722995e-01
0.000000e+00
1.000000e+00
5.731012e-01
5.730418e-01
5.730751e-01
5.731002e-01
5.731239e-01
5.731438e-01
5.731571e-01
5.731619e-01
5.731569e-01
5.731428e-01
5.731220e-01
5.730974e-01
5.730729e-01
5.730688e-01
5.728673e-01
0.000000e+00
1.000000e+00
5.733469e-01
5.735397e-01
5.738580e-01
5.741716e-01
5.744690e-01
5.747188e-01
5.748870e-01
5.749463e-01
5.748860e-01
5.747167e-01
5.744650e-01
5.741674e-01
5.738593e-01
5.735474e-01
5.732923e-01
0.000000e+00
1.000000e+00
5.737430e-01
5.743241e-01
5.750874e-01
5.758553e-01
5.765835e-01
5.771954e-01
5.776076e-01
5.777532e-01
5.776067e-01
5.771947e-01
5.765835e-01
5.758554e-01
5.750972e-01
5.743438e-01
5.736881e-01
0.000000e+00
1.000000e+00
5.742704e-01
5.753976e-01
5.767749e-01
5.781659e-01
5.794849e-01
5.805934e-01
5.813404e-01
5.816053e-01
5.813413e-01
5.805959e-01
5.794930e-01
5.781768e-01
5.767992e-01
5.754325e-01
5.741465e-01
0.000000e+00
1.000000e+00
5.749265e-01
5.767406e-01
5.788949e-01
5.810687e-01
5.831300e-01
5.848623e-01
5.860296e-01
5.864434e-01
5.860318e-01
5.848682e-01
5.831472e-01
5.810925e-01
5.789325e-01
5.767983e-01
5.747364e-01
0.000000e+00
1.000000e+00
5.757067e-01
5.783213e-01
5.813797e-01
5.844712e-01
5.874031e-01
5.898672e-01
5.915280e-01
5.921178e-01
5.915352e-01
5.898823e-01
5.874348e-01
5.845094e-01
5.814287e-01
5.784036e-01
5.754895e-01
0.000000e+00
1.000000e+00
5.765712e-01
5.800717e-01
5.841300e-01
5.882369e-01
5.921319e-01
5.954056e-01
5.976125e-01
5.983970e-01
5.976249e-01
5.954309e-01
5.921766e-01
5.882859e-01
5.841877e-01
5.801925e-01
5.762612e-01
0.000000e+00
1.000000e+00
5.774851e-01
5.819031e-01
5.870117e-01
5.921824e-01
5.970865e-01
6.012087e-01
6.039880e-01
6.049768e-01
6.040051e-01
6.012433e-01
5.971430e-01
5.922401e-01
5.870739e-01
5.820791e-01
5.769557e-01
0.000000e+00
1.000000e+00
5.783928e-01
5.837201e-01
5.898739e-01
5.961013e-01
6.020077e-01
6.069727e-01
6.103208e-01
6.115127e-01
6.103427e-01
6.070147e-01
6.020759e-01
5.961649e-01
5.899373e-01
5.839508e-01
5.775486e-01
0.000000e+00
1.000000e+00
5.792522e-01
5.854246e-01
5.925647e-01
5.997857e-01
6.066347e-01
6.123922e-01
6.162754e-01
6.176588e-01
6.163024e-01
6.124402e-01
6.067155e-01
5.998557e-01
5.926286e-01
5.856796e-01
5.782783e-01
0.000000e+00
1.000000e+00
5.800219e-01
5.869288e-01
5.949486e-01
6.030502e-01
6.107345e-01
6.171946e-01
6.215522e-01
6.231058e-01
6.215844e-01
6.172483e-01
6.108296e-01
6.031291e-01
5.950164e-01
5.871827e-01
5.789950e-01
0.000000e+00
1.000000e+00
5.806383e-01
5.881783e-01
5.969209e-01
6.057508e-01
6.141260e-01
6.211673e-01
6.259178e-01
6.276127e-01
6.259547e-01
6.212282e-01
6.142351e-01
6.058420e-01
5.969949e-01
5.884137e-01
5.797190e-01
0.000000e+00
1.000000e+00
5.811039e-01
5.891207e-01
5.984138e-01
6.077956e-01
6.166939e-01
6.241749e-01
6.292229e-01
6.310249e-01
6.292629e-01
6.242440e-01
6.168145e-01
6.078987e-01
5.984967e-01
5.893446e-01
5.803444e-01
0.000000e+00
1.000000e+00
5.814422e-01
5.897198e-01
5.993958e-01
6.091423e-01
6.183870e-01
6.261594e-01
6.314045e-01
6.332775e-01
6.314474e-01
6.262376e-01
6.185174e-01
6.092583e-01
5.994891e-01
5.899614e-01
5.807678e-01
0.000000e+00
1.000000e+00
5.816247e-01
5.900295e-01
5.998787e-01
6.098038e-01
6.192186e-01
6.271349e-01
6.324778e-01
6.343865e-01
6.325252e-01
6.272224e-01
6.193572e-01
6.099292e-01
5.999823e-01
5.902651e-01
5.809771e-01
0.000000e+00
1.000000e+00
5.815856e-01
5.900747e-01
5.998982e-01
6.098284e-01
6.192490e-01
6.271712e-01
6.325190e-01
6.344310e-01
6.325711e-01
6.272590e-01
6.193925e-01
6.099602e-01
6.000004e-01
5.902673e-01
5.810394e-01
0.000000e+00
1.000000e+00
5.727729e-01
5.723532e-01
5.719929e-01
5.716182e-01
5.712629e-01
5.709643e-01
5.707630e-01
5.706915e-01
5.707623e-01
5.709631e-01
5.712624e-01
5.716195e-01
5.719893e-01
5.724748e-01
5.723903e-01
0.000000e+00
1.000000e+00
5.730010e-01
5.728190e-01
5.727226e-01
5.726171e-01
5.725171e-01
5.724330e-01
5.723763e-01
5.723559e-01
5.723751e-01
5.724304e-01
5.725141e-01
5.726154e-01
5.727242e-01
5.728603e-01
5.727522e-01
0.000000e+00
1.000000e+00
5.733885e-01
5.735825e-01
5.739158e-01
5.742514e-01
5.745696e-01
5.748370e-01
5.750169e-01
5.750801e-01
5.750152e-01
5.748341e-01
5.745665e-01
5.742506e-01
5.739235e-01
5.735941e-01
5.730994e-01
0.000000e+00
1.000000e+00
5.739121e-01
5.746581e-01
5.756034e-01
5.765624e-01
5.774717e-01
5.782358e-01
5.787505e-01
5.789326e-01
5.787502e-01
5.782362e-01
5.774762e-01
5.765686e-01
5.756224e-01
5.746811e-01
5.737152e-01
0.000000e+00
1.000000e+00
5.745900e-01
5.760449e-01
5.777834e-01
5.795469e-01
5.812191e-01
5.826243e-01
5.835710e-01
5.839064e-01
5.835727e-01
5.826297e-01
5.812351e-01
5.795664e-01
5.778183e-01
5.760857e-01
5.743661e-01
0.000000e+00
1.000000e+00
5.754122e-01
5.777086e-01
5.804090e-01
5.831416e-01
5.857330e-01
5.879108e-01
5.893783e-01
5.898993e-01
5.893848e-01
5.879246e-01
5.857628e-01
5.831740e-01
5.804516e-01
5.777803e-01
5.751084e-01
0.000000e+00
1.000000e+00
5.763447e-01
5.796004e-01
5.833901e-01
5.872238e-01
5.908597e-01
5.939157e-01
5.959758e-01
5.967090e-01
5.959898e-01
5.939402e-01
5.909057e-01
5.872698e-01
5.834416e-01
5.797162e-01
5.759494e-01
0.000000e+00
1.000000e+00
5.773549e-01
5.816387e-01
5.865989e-01
5.916174e-01
5.963771e-01
6.003781e-01
6.030762e-01
6.040376e-01
6.030968e-01
6.004117e-01
5.964378e-01
5.916745e-01
5.866568e-01
5.818172e-01
5.767377e-01
0.000000e+00
1.000000e+00
5.783947e-01
5.837112e-01
5.898705e-01
5.960969e-01
6.020029e-01
6.069679e-01
6.103168e-01
6.115112e-01
6.103444e-01
6.070093e-01
6.020782e-01
5.961632e-01
5.899301e-01
5.839624e-01
5.775030e-01
0.000000e+00
1.000000e+00
5.793967e-01
5.857039e-01
5.930273e-01
6.004199e-01
6.074319e-01
6.133270e-01
6.173038e-01
6.187233e-01
6.173385e-01
6.133758e-01
6.075216e-01
6.004935e-01
5.930849e-01
5.860050e-01
5.782865e-01
0.000000e+00
1.000000e+00
5.803268e-01
5.875011e-01
5.958975e-01
6.043503e-01
6.123680e-01
6.191089e-01
6.236575e-01
6.252824e-01
6.236987e-01
6.191660e-01
6.124736e-01
6.044360e-01
5.959553e-01
5.878192e-01
5.790799e-01
0.000000e+00
1.000000e+00
5.811430e-01
5.890011e-01
5.983355e-01
6.076896e-01
6.165622e-01
6.240222e-01
6.290569e-01
6.308570e-01
6.291048e-01
6.240875e-01
6.166833e-01
6.077943e-01
5.983988e-01
5.893344e-01
5.799753e-01
0.000000e+00
1.000000e+00
5.817262e-01
5.901972e-01
6.002394e-01
6.102965e-01
6.198358e-01
6.278570e-01
6.332716e-01
6.352087e-01
6.333256e-01
6.279316e-01
6.199708e-01
6.104225e-01
6.003113e-01
5.905145e-01
5.807462e-01
0.000000e+00
1.000000e+00
5.821418e-01
5.910276e-01
6.015526e-01
6.120948e-01
6.220938e-01
6.305019e-01
6.361782e-01
6.382094e-01
6.362351e-01
6.305862e-01
6.222401e-01
6.122363e-01
6.016347e-01
5.913337e-01
5.813153e-01
0.000000e+00
1.000000e+00
5.824044e-01
5.914732e-01
6.022620e-01
6.130680e-01
6.233179e-01
6.319371e-01
6.377563e-01
6.398391e-01
6.378151e-01
6.320323e-01
6.234748e-01
6.132202e-01
6.023572e-01
5.917799e-01
5.816464e-01
0.000000e+00
1.000000e+00
5.824408e-01
5.916176e-01
6.024032e-01
6.132610e-01
6.235615e-01
6.322239e-01
6.380730e-01
6.401672e-01
6.381363e-01
6.323291e-01
6.237262e-01
6.134171e-01
6.025098e-01
5.918720e-01
5.817502e-01
0.000000e+00
1.000000e+00
5.822368e-01
5.914533e-01
6.020407e-01
6.127600e-01
6.229300e-01
6.314837e-01
6.372602e-01
6.393300e-01
6.373267e-01
6.315852e-01
6.230929e-01
6.129112e-01
6.021398e-01
5.916311e-01
5.816798e-01
0.000000e+00
1.000000e+00
5.724313e-01
5.716351e-01
5.708652e-01
5.700743e-01
5.693244e-01
5.686942e-01
5.682697e-01
5.681192e-01
5.682696e-01
5.686949e-01
5.693282e-01
5.700822e-01
5.708678e-01
5.716961e-01
5.722356e-01
0.000000e+00
1.000000e+00
5.727746e-01
5.723317e-01
5.719555e-01
5.715673e-01
5.711993e-01
5.708899e-01
5.706814e-01
5.706071e-01
5.706801e-01
5.708879e-01
5.711996e-01
5.715727e-01
5.719641e-01
5.723776e-01
5.725014e-01
0.000000e+00
1.000000e+00
5.732744e-01
5.733589e-01
5.735640e-01
5.737699e-01
5.739652e-01
5.741292e-01
5.742395e-01
5.742780e-01
5.742376e-01
5.741254e-01
5.739621e-01
5.737741e-01
5.735796e-01
5.733952e-01
5.729557e-01
0.000000e+00
1.000000e+00
5.739368e-01
5.747289e-01
5.757154e-01
5.767156e-01
5.776640e-01
5.784610e-01
5.789977e-01
5.791873e-01
5.789959e-01
5.784581e-01
5.776664e-01
5.767249e-01
5.757433e-01
5.747597e-01
5.736811e-01
0.000000e+00
1.000000e+00
5.747771e-01
5.764358e-01
5.783914e-01
5.803799e-01
5.822654e-01
5.838497e-01
5.849168e-01
5.852941e-01
5.849169e-01
5.838545e-01
5.822870e-01
5.804058e-01
5.784353e-01
5.764830e-01
5.744926e-01
0.000000e+00
1.000000e+00
5.757643e-01
5.784307e-01
5.815296e-01
5.846759e-01
5.876594e-01
5.901666e-01
5.918560e-01
5.924552e-01
5.918638e-01
5.901868e-01
5.877008e-01
5.847157e-01
5.815773e-01
5.785108e-01
5.753339e-01
0.000000e+00
1.000000e+00
5.768643e-01
5.806396e-01
5.850121e-01
5.894441e-01
5.936472e-01
5.971801e-01
5.995620e-01
6.004101e-01
5.995810e-01
5.972151e-01
5.937062e-01
5.894986e-01
5.850678e-01
5.807777e-01
5.762318e-01
0.000000e+00
1.000000e+00
5.780288e-01
5.829611e-01
5.886783e-01
5.944640e-01
5.999518e-01
6.045653e-01
6.076772e-01
6.087880e-01
6.077063e-01
6.046094e-01
6.000278e-01
5.945310e-01
5.887377e-01
5.831775e-01
5.771436e-01
0.000000e+00
1.000000e+00
5.791972e-01
5.852683e-01
5.923328e-01
5.994686e-01
6.062375e-01
6.119286e-01
6.157685e-01
6.171406e-01
6.158063e-01
6.119782e-01
6.063303e-01
5.995442e-01
5.923900e-01
5.855619e-01
5.779845e-01
0.000000e+00
1.000000e+00
5.802978e-01
5.874280e-01
5.957699e-01
6.041759e-01
6.121496e-01
6.188539e-01
6.233786e-01
6.249968e-01
6.234238e-01
6.189106e-01
6.122591e-01
6.042635e-01
5.958241e-01
5.877512e-01
5.788902e-01
0.000000e+00
1.000000e+00
5.812949e-01
5.893039e-01
5.987975e-01
6.083225e-01
6.173576e-01
6.249553e-01
6.300840e-01
6.319194e-01
6.301362e-01
6.250236e-01
6.174819e-01
6.084343e-01
5.988548e-01
5.896367e-01
5.799490e-01
0.000000e+00
1.000000e+00
5.821274e-01
5.907909e-01
6.012629e-01
6.116999e-01
6.216000e-01
6.299247e-01
6.355453e-01
6.375583e-01
6.356059e-01
6.300057e-01
6.217328e-01
6.118467e-01
6.013298e-01
5.911711e-01
5.808887e-01
0.000000e+00
1.000000e+00
5.826810e-01
5.919204e-01
6.030695e-01
6.141731e-01
6.247044e-01
6.335606e-01
6.395417e-01
6.416855e-01
6.396109e-01
6.336527e-01
6.248467e-01
6.143507e-01
6.031482e-01
5.922967e-01
5.816293e-01
0.000000e+00
1.000000e+00
5.830060e-01
5.926297e-01
6.041730e-01
6.156843e-01
6.266015e-01
6.357834e-01
6.419846e-01
6.442074e-01
6.420567e-01
6.358856e-01
6.267577e-01
6.158774e-01
6.042644e-01
5.929903e-01
5.821389e-01
0.000000e+00
1.000000e+00
5.831421e-01
5.929281e-01
6.045842e-01
6.162486e-01
6.273124e-01
6.366181e-01
6.429032e-01
6.451564e-01
6.429769e-01
6.367318e-01
6.274850e-01
6.164443e-01
6.046888e-01
5.932535e-01
5.823699e-01
0.000000e+00
1.000000e+00
5.830437e-01
5.928722e-01
6.043660e-01
6.159484e-01
6.269361e-01
6.361783e-01
6.424217e-01
6.446612e-01
6.424998e-01
6.363029e-01
6.271206e-01
6.161363e-01
6.044786e-01
5.931222e-01
5.823373e-01
0.000000e+00
1.000000e+00
5.827325e-01
5.924540e-01
6.036110e-01
6.149089e-01
6.256262e-01
6.346415e-01
6.407321e-01
6.429180e-01
6.408094e-01
6.347612e-01
6.258044e-01
6.150773e-01
6.037099e-01
5.926273e-01
5.821460e-01
0.000000e+00
1.000000e+00
5.719538e-01
5.706512e-01
5.693238e-01
5.679639e-01
5.666745e-01
5.655911e-01
5.648613e-01
5.646032e-01
5.648629e-01
5.655955e-01
5.666849e-01
5.679803e-01
5.693352e-01
5.706998e-01
5.717640e-01
0.000000e+00
1.000000e+00
5.723992e-01
5.715688e-01
5.707599e-01
5.699304e-01
5.691439e-01
5.684831e-01
5.680378e-01
5.678800e-01
5.680377e-01
5.684838e-01
5.691510e-01
5.699452e-01
5.707772e-01
5.716134e-01
5.721508e-01
0.000000e+00
1.000000e+00
5.730142e-01
5.728518e-01
5.727691e-01
5.726813e-01
5.725981e-01
5.725281e-01
5.724807e-01
5.724633e-01
5.724787e-01
5.725241e-01
5.725972e-01
5.726938e-01
5.727930e-01
5.728943e-01
5.727386e-01
0.000000e+00
1.000000e+00
5.738185e-01
5.745076e-01
5.753677e-01
5.762394e-01
5.770660e-01
5.777605e-01
5.782281e-01
5.783928e-01
5.782250e-01
5.777540e-01
5.770637e-01
5.762518e-01
5.754045e-01
5.745505e-01
5.735939e-01
0.000000e+00
1.000000e+00
5.748095e-01
5.765227e-01
5.785256e-01
5.805637e-01
5.824963e-01
5.841202e-01
5.852140e-01
5.856005e-01
5.852118e-01
5.841197e-01
5.825180e-01
5.805965e-01
5.785816e-01
5.765831e-01
5.745479e-01
0.000000e+00
1.000000e+00
5.759503e-01
5.788380e-01
5.821596e-01
5.855387e-01
5.887430e-01
5.914356e-01
5.932497e-01
5.938922e-01
5.932544e-01
5.914544e-01
5.887939e-01
5.855892e-01
5.822172e-01
5.789252e-01
5.755086e-01
0.000000e+00
1.000000e+00
5.772066e-01
5.813581e-01
5.861252e-01
5.909678e-01
5.955601e-01
5.994198e-01
6.020218e-01
6.029474e-01
6.020418e-01
5.994601e-01
5.956294e-01
5.910325e-01
5.861857e-01
5.814957e-01
5.765447e-01
0.000000e+00
1.000000e+00
5.785188e-01
5.839578e-01
5.902282e-01
5.965853e-01
6.026148e-01
6.076837e-01
6.111030e-01
6.123240e-01
6.111389e-01
6.077380e-01
6.027030e-01
5.966623e-01
5.902878e-01
5.841677e-01
5.775536e-01
0.000000e+00
1.000000e+00
5.798098e-01
5.864899e-01
5.942405e-01
6.020793e-01
6.095153e-01
6.157680e-01
6.199881e-01
6.214989e-01
6.200364e-01
6.158309e-01
6.096256e-01
6.021703e-01
5.942980e-01
5.867514e-01
5.785208e-01
0.000000e+00
1.000000e+00
5.810030e-01
5.888033e-01
5.979280e-01
6.071299e-01
6.158600e-01
6.232020e-01
6.281593e-01
6.299360e-01
6.282162e-01
6.232730e-01
6.159905e-01
6.072460e-01
5.979878e-01
5.890714e-01
5.797035e-01
0.000000e+00
1.000000e+00
5.820419e-01
5.907564e-01
6.010820e-01
6.114517e-01
6.212897e-01
6.295640e-01
6.351516e-01
6.371548e-01
6.352160e-01
6.296475e-01
6.214296e-01
6.116049e-01
6.011528e-01
5.910424e-01
5.808664e-01
0.000000e+00
1.000000e+00
5.828327e-01
5.922660e-01
6.035465e-01
6.148288e-01
6.255315e-01
6.345322e-01
6.406115e-01
6.427921e-01
6.406845e-01
6.346332e-01
6.256706e-01
6.150212e-01
6.036381e-01
5.925916e-01
5.817545e-01
0.000000e+00
1.000000e+00
5.833632e-01
5.933062e-01
6.052297e-01
6.171338e-01
6.284247e-01
6.379201e-01
6.443350e-01
6.466365e-01
6.444156e-01
6.380351e-01
6.285660e-01
6.173522e-01
6.053473e-01
5.936507e-01
5.824376e-01
0.000000e+00
1.000000e+00
5.836484e-01
5.938463e-01
6.061034e-01
6.183317e-01
6.299290e-01
6.396831e-01
6.462725e-01
6.486366e-01
6.463567e-01
6.398075e-01
6.300859e-01
6.185608e-01
6.062373e-01
5.942095e-01
5.828305e-01
0.000000e+00
1.000000e+00
5.836570e-01
5.939806e-01
6.062080e-01
6.184742e-01
6.301093e-01
6.398967e-01
6.465084e-01
6.488817e-01
6.465948e-01
6.400321e-01
6.302904e-01
6.187007e-01
6.063400e-01
5.942822e-01
5.828825e-01
0.000000e+00
1.000000e+00
5.834330e-01
5.936904e-01
6.056319e-01
6.176819e-01
6.291138e-01
6.387309e-01
6.452286e-01
6.475623e-01
6.453164e-01
6.388755e-01
6.293114e-01
6.178938e-01
6.057568e-01
5.939246e-01
5.827076e-01
0.000000e+00
1.000000e+00
5.830124e-01
5.930133e-01
6.044906e-01
6.161159e-01
6.271434e-01
6.364185e-01
6.426844e-01
6.449345e-01
6.427649e-01
6.365534e-01
6.273269e-01
6.162992e-01
6.045952e-01
5.931847e-01
5.824106e-01
0.000000e+00
1.000000e+00
5.713527e-01
5.694189e-01
5.673936e-01
5.653211e-01
5.633560e-01
5.617051e-01
5.605935e-01
5.602011e-01
5.605978e-01
5.617148e-01
5.633743e-01
5.653475e-01
5.674136e-01
5.694649e-01
5.711805e-01
0.000000e+00
1.000000e+00
5.718989e-01
5.705392e-01
5.691472e-01
5.677223e-01
5.663714e-01
5.652364e-01
5.644720e-01
5.642018e-01
5.644742e-01
5.652419e-01
5.663873e-01
5.677479e-01
5.691762e-01
5.705900e-01
5.716712e-01
0.000000e+00
1.000000e+00
5.726208e-01
5.720574e-01
5.715246e-01
5.709773e-01
5.704584e-01
5.700224e-01
5.697286e-01
5.696243e-01
5.697278e-01
5.700213e-01
5.704662e-01
5.710042e-01
5.715584e-01
5.721026e-01
5.723642e-01
0.000000e+00
1.000000e+00
5.735513e-01
5.739779e-01
5.745354e-01
5.750998e-01
5.756350e-01
5.760846e-01
5.763873e-01
5.764934e-01
5.763838e-01
5.760771e-01
5.756299e-01
5.751194e-01
5.745809e-01
5.740299e-01
5.733264e-01
0.000000e+00
1.000000e+00
5.746774e-01
5.762755e-01
5.781373e-01
5.800320e-01
5.818288e-01
5.833386e-01
5.843556e-01
5.847148e-01
5.843524e-01
5.833324e-01
5.818432e-01
5.800693e-01
5.782061e-01
5.763489e-01
5.744214e-01
0.000000e+00
1.000000e+00
5.759585e-01
5.788835e-01
5.822261e-01
5.856302e-01
5.888583e-01
5.915709e-01
5.933986e-01
5.940453e-01
5.933988e-01
5.915803e-01
5.889129e-01
5.856916e-01
5.822965e-01
5.789822e-01
5.755084e-01
0.000000e+00
1.000000e+00
5.773488e-01
5.816866e-01
5.866301e-01
5.916592e-01
5.964281e-01
6.004360e-01
6.031375e-01
6.040969e-01
6.031536e-01
6.004744e-01
5.965063e-01
5.917365e-01
5.867002e-01
5.818150e-01
5.766534e-01
0.000000e+00
1.000000e+00
5.787831e-01
5.845399e-01
5.911246e-01
5.978121e-01
6.041545e-01
6.094859e-01
6.130819e-01
6.143648e-01
6.131187e-01
6.095468e-01
6.042524e-01
5.979034e-01
5.911889e-01
5.847129e-01
5.777992e-01
0.000000e+00
1.000000e+00
5.801724e-01
5.872766e-01
5.954499e-01
6.037338e-01
6.115915e-01
6.181987e-01
6.226585e-01
6.242561e-01
6.227143e-01
6.182736e-01
6.117139e-01
6.038466e-01
5.955100e-01
5.874674e-01
5.789929e-01
0.000000e+00
1.000000e+00
5.814283e-01
5.897315e-01
5.993467e-01
6.090700e-01
6.182949e-01
6.260538e-01
6.312944e-01
6.331763e-01
6.313643e-01
6.261401e-01
6.184356e-01
6.092227e-01
5.994142e-01
5.899220e-01
5.803291e-01
0.000000e+00
1.000000e+00
5.824764e-01
5.917629e-01
6.025912e-01
6.135151e-01
6.238801e-01
6.325994e-01
6.384908e-01
6.406078e-01
6.385703e-01
6.327005e-01
6.240254e-01
6.137164e-01
6.026833e-01
5.919704e-01
5.815245e-01
0.000000e+00
1.000000e+00
5.832547e-01
5.932749e-01
6.050241e-01
6.168504e-01
6.280701e-01
6.375086e-01
6.438868e-01
6.461783e-01
6.439735e-01
6.376295e-01
6.282163e-01
6.170773e-01
6.051552e-01
5.935179e-01
5.823961e-01
0.000000e+00
1.000000e+00
5.837687e-01
5.942167e-01
6.065633e-01
6.189602e-01
6.307208e-01
6.406139e-01
6.472990e-01
6.496998e-01
6.473897e-01
6.407533e-01
6.308760e-01
6.191754e-01
6.067425e-01
5.945009e-01
5.829843e-01
0.000000e+00
1.000000e+00
5.839978e-01
5.946045e-01
6.072009e-01
6.198352e-01
6.318231e-01
6.419067e-01
6.487199e-01
6.511666e-01
6.488135e-01
6.420590e-01
6.319970e-01
6.200445e-01
6.073988e-01
5.949146e-01
5.832135e-01
0.000000e+00
1.000000e+00
5.838966e-01
5.945365e-01
6.070091e-01
6.195692e-01
6.314882e-01
6.415152e-01
6.482904e-01
6.507247e-01
6.483866e-01
6.416754e-01
6.316822e-01
6.197938e-01
6.071807e-01
5.947910e-01
5.831272e-01
0.000000e+00
1.000000e+00
5.835572e-01
5.940106e-01
6.060966e-01
6.183148e-01
6.299096e-01
6.396650e-01
6.462571e-01
6.486260e-01
6.463510e-01
6.398266e-01
6.301122e-01
6.185373e-01
6.062379e-01
5.942143e-01
5.828445e-01
0.000000e+00
1.000000e+00
5.830325e-01
5.930921e-01
6.045996e-01
6.162631e-01
6.273287e-01
6.366373e-01
6.429261e-01
6.451840e-01
6.430089e-01
6.367823e-01
6.275110e-01
6.164546e-01
6.047036e-01
5.932470e-01
5.824359e-01
0.000000e+00
1.000000e+00
5.706530e-01
5.679751e-01
5.651325e-01
5.622251e-01
5.594686e-01
5.571531e-01
5.555944e-01
5.550450e-01
5.556026e-01
5.571695e-01
5.594957e-01
5.622624e-01
5.651615e-01
5.680228e-01
5.704907e-01
0.000000e+00
1.000000e+00
5.712839e-01
5.692730e-01
5.671645e-01
5.650076e-01
5.629627e-01
5.612450e-01
5.600885e-01
5.596805e-01
5.600939e-01
5.612568e-01
5.629880e-01
5.650449e-01
5.672063e-01
5.693295e-01
5.710784e-01
0.000000e+00
1.000000e+00
5.721041e-01
5.709969e-01
5.698634e-01
5.687028e-01
5.676026e-01
5.666784e-01
5.660561e-01
5.658362e-01
5.660578e-01
5.666831e-01
5.676229e-01
5.687431e-01
5.699088e-01
5.710477e-01
5.718710e-01
0.000000e+00
1.000000e+00
5.731455e-01
5.731477e-01
5.732329e-01
5.733164e-01
5.733956e-01
5.734623e-01
5.735071e-01
5.735222e-01
5.735047e-01
5.734567e-01
5.733934e-01
5.733529e-01
5.732878e-01
5.732034e-01
5.729312e-01
0.000000e+00
1.000000e+00
5.743871e-01
5.756893e-01
5.772178e-01
5.787729e-01
5.802477e-01
5.814870e-01
5.823218e-01
5.826166e-01
5.823190e-01
5.814796e-01
5.802501e-01
5.788090e-01
5.772961e-01
5.757690e-01
5.741353e-01
0.000000e+00
1.000000e+00
5.757881e-01
5.785457e-01
5.816951e-01
5.849034e-01
5.879460e-01
5.905030e-01
5.922259e-01
5.928355e-01
5.922243e-01
5.905017e-01
5.879932e-01
5.849728e-01
5.817789e-01
5.786437e-01
5.753916e-01
0.000000e+00
1.000000e+00
5.772914e-01
5.815855e-01
5.864672e-01
5.914367e-01
5.961492e-01
6.001096e-01
6.027789e-01
6.037256e-01
6.027883e-01
6.001387e-01
5.962328e-01
5.915267e-01
5.865499e-01
5.816898e-01
5.766983e-01
0.000000e+00
1.000000e+00
5.788170e-01
5.846473e-01
5.912828e-01
5.980290e-01
6.044266e-01
6.098040e-01
6.134301e-01
6.147214e-01
6.134615e-01
6.098659e-01
6.045306e-01
5.981369e-01
5.913583e-01
5.847568e-01
5.780580e-01
0.000000e+00
1.000000e+00
5.802752e-01
5.875482e-01
5.958558e-01
6.042894e-01
6.122880e-01
6.190129e-01
6.235513e-01
6.251757e-01
6.236087e-01
6.190980e-01
6.124144e-01
6.044256e-01
5.959269e-01
5.876701e-01
5.794123e-01
0.000000e+00
1.000000e+00
5.815722e-01
5.901094e-01
5.999058e-01
6.098344e-01
6.192526e-01
6.271737e-01
6.325241e-01
6.344468e-01
6.326027e-01
6.272756e-01
6.193944e-01
6.100195e-01
5.999880e-01
5.902393e-01
5.807669e-01
0.000000e+00
1.000000e+00
5.826297e-01
5.921823e-01
6.031980e-01
6.143437e-01
6.249179e-01
6.338139e-01
6.398261e-01
6.419899e-01
6.399175e-01
6.339328e-01
6.250597e-01
6.145774e-01
6.033175e-01
5.923386e-01
5.819029e-01
0.000000e+00
1.000000e+00
5.834015e-01
5.936651e-01
6.055718e-01
6.175980e-01
6.290083e-01
6.386086e-01
6.450978e-01
6.474324e-01
6.451955e-01
6.387456e-01
6.291526e-01
6.178335e-01
6.057497e-01
5.938648e-01
5.826644e-01
0.000000e+00
1.000000e+00
5.838814e-01
5.945094e-01
6.069571e-01
6.194984e-01
6.313984e-01
6.414106e-01
6.481780e-01
6.506117e-01
6.482790e-01
6.415702e-01
6.315698e-01
6.196952e-01
6.071680e-01
5.947638e-01
5.831230e-01
0.000000e+00
1.000000e+00
5.840179e-01
5.947724e-01
6.073734e-01
6.200668e-01
6.321137e-01
6.422500e-01
6.491020e-01
6.515667e-01
6.492067e-01
6.424286e-01
6.323156e-01
6.202510e-01
6.075853e-01
5.950332e-01
5.832432e-01
0.000000e+00
1.000000e+00
5.838304e-01
5.945147e-01
6.069097e-01
6.194281e-01
6.313089e-01
6.413062e-01
6.480645e-01
6.504959e-01
6.481704e-01
6.414869e-01
6.315126e-01
6.196247e-01
6.071123e-01
5.947245e-01
5.830859e-01
0.000000e+00
1.000000e+00
5.834008e-01
5.937802e-01
6.056981e-01
6.177660e-01
6.292171e-01
6.388522e-01
6.453651e-01
6.477068e-01
6.454647e-01
6.390231e-01
6.294103e-01
6.179848e-01
6.058598e-01
5.939493e-01
5.827146e-01
0.000000e+00
1.000000e+00
5.827971e-01
5.926529e-01
6.038937e-01
6.152956e-01
6.261122e-01
6.352107e-01
6.413581e-01
6.435640e-01
6.414417e-01
6.353573e-01
6.262864e-01
6.154896e-01
6.039954e-01
5.927878e-01
5.822150e-01
0.000000e+00
1.000000e+00
5.698820e-01
5.663771e-01
5.626308e-01
5.587998e-01
5.551677e-01
5.521170e-01
5.500639e-01
5.493410e-01
5.500765e-01
5.521416e-01
5.552038e-01
5.588488e-01
5.626684e-01
5.664279e-01
5.697316e-01
0.000000e+00
1.000000e+00
5.705819e-01
5.678234e-01
5.648951e-01
5.619005e-01
5.590614e-01
5.566768e-01
5.550718e-01
5.545063e-01
5.550810e-01
5.566958e-01
5.590960e-01
5.619493e-01
5.649478e-01
5.678828e-01
5.703969e-01
0.000000e+00
1.000000e+00
5.714811e-01
5.697167e-01
5.678586e-01
5.659579e-01
5.641562e-01
5.626431e-01
5.616246e-01
5.612656e-01
5.616300e-01
5.626554e-01
5.641889e-01
5.660111e-01
5.679181e-01
5.697791e-01
5.712697e-01
0.000000e+00
1.000000e+00
5.726104e-01
5.720541e-01
5.715183e-01
5.709688e-01
5.704481e-01
5.700109e-01
5.697167e-01
5.696125e-01
5.697169e-01
5.700106e-01
5.704603e-01
5.710292e-01
5.715820e-01
5.721134e-01
5.724113e-01
0.000000e+00
1.000000e+00
5.739444e-01
5.747902e-01
5.758069e-01
5.768411e-01
5.778220e-01
5.786464e-01
5.792019e-01
5.793979e-01
5.791996e-01
5.786409e-01
5.778178e-01
5.768811e-01
5.758887e-01
5.748705e-01
5.736868e-01
0.000000e+00
1.000000e+00
5.754390e-01
5.778371e-01
5.805843e-01
5.833827e-01
5.860367e-01
5.882673e-01
5.897704e-01
5.903024e-01
5.897693e-01
5.882621e-01
5.860668e-01
5.834542e-01
5.806817e-01
5.779275e-01
5.751173e-01
0.000000e+00
1.000000e+00
5.770325e-01
5.810547e-01
5.856333e-01
5.902957e-01
5.947172e-01
5.984332e-01
6.009378e-01
6.018255e-01
6.009416e-01
5.984487e-01
5.947976e-01
5.903954e-01
5.857293e-01
5.811379e-01
5.766857e-01
0.000000e+00
1.000000e+00
5.786215e-01
5.842650e-01
5.906780e-01
5.972019e-01
6.033886e-01
6.085885e-01
6.120942e-01
6.133404e-01
6.121171e-01
6.086454e-01
6.034932e-01
5.973238e-01
5.907693e-01
5.843465e-01
5.782022e-01
0.000000e+00
1.000000e+00
5.801150e-01
5.872757e-01
5.954155e-01
6.036874e-01
6.115322e-01
6.181270e-01
6.225760e-01
6.241653e-01
6.226273e-01
6.182183e-01
6.116544e-01
6.038403e-01
5.955025e-01
5.873724e-01
5.795920e-01
0.000000e+00
1.000000e+00
5.814352e-01
5.898965e-01
5.995504e-01
6.093487e-01
6.186418e-01
6.264564e-01
6.317331e-01
6.336271e-01
6.318112e-01
6.265684e-01
6.187795e-01
6.095481e-01
5.996494e-01
5.900098e-01
5.809203e-01
0.000000e+00
1.000000e+00
5.824994e-01
5.919707e-01
6.028409e-01
6.138558e-01
6.243045e-01
6.330935e-01
6.390324e-01
6.411691e-01
6.391267e-01
6.332230e-01
6.244449e-01
6.140942e-01
6.029805e-01
5.921158e-01
5.819565e-01
0.000000e+00
1.000000e+00
5.832516e-01
5.934051e-01
6.051328e-01
6.169949e-01
6.282501e-01
6.377202e-01
6.441219e-01
6.464261e-01
6.442240e-01
6.378692e-01
6.283987e-01
6.172187e-01
6.053293e-01
5.935937e-01
5.825642e-01
0.000000e+00
1.000000e+00
5.836668e-01
5.941708e-01
6.063681e-01
6.186864e-01
6.303764e-01
6.402139e-01
6.468656e-01
6.492612e-01
6.469752e-01
6.403886e-01
6.305506e-01
6.188772e-01
6.065610e-01
5.944071e-01
5.829280e-01
0.000000e+00
1.000000e+00
5.837277e-01
5.943120e-01
6.065838e-01
6.189803e-01
6.307448e-01
6.406452e-01
6.473401e-01
6.497523e-01
6.474552e-01
6.408362e-01
6.309409e-01
6.191670e-01
6.067703e-01
5.945432e-01
5.829974e-01
0.000000e+00
1.000000e+00
5.834723e-01
5.938938e-01
6.058871e-01
6.180243e-01
6.295410e-01
6.392322e-01
6.457848e-01
6.481448e-01
6.458969e-01
6.394189e-01
6.297302e-01
6.182030e-01
6.060937e-01
5.940721e-01
5.827719e-01
0.000000e+00
1.000000e+00
5.829735e-01
5.929903e-01
6.044292e-01
6.160273e-01
6.270303e-01
6.362868e-01
6.425430e-01