<?xml version="1.0"?>
<VTKFile type="StructuredGrid" version="0.1">
  <StructuredGrid WholeExtent="0 16 0 16 0 16">
    <Piece Extent="0 16 0 16 0 16">
      <PointData Scalars="temperature" Vectors="velocity">
        <DataArray type="Float32" Name="temperature" format="ascii">
1.000000e+00
5.730012e-01
5.730025e-01
5.730038e-01
5.730052e-01
5.730066e-01
5.730077e-01
5.730084e-01
5.730087e-01
5.730084e-01
5.730077e-01
5.730066e-01
5.730052e-01
5.730038e-01
5.730025e-01
5.730012e-01
0.000000e+00
1.000000e+00
5.729910e-01
5.729810e-01
5.729703e-01
5.729593e-01
5.729489e-01
5.729401e-01
5.729342e-01
5.729321e-01
5.729342e-01
5.729401e-01
5.729489e-01
5.729593e-01
5.729703e-01
5.729810e-01
5.729910e-01
0.000000e+00
1.000000e+00
5.729693e-01
5.729352e-01
5.728986e-01
5.728611e-01
5.728256e-01
5.727958e-01
5.727757e-01
5.727686e-01
5.727757e-01
5.727958e-01
5.728256e-01
5.728611e-01
5.728986e-01
5.729352e-01
5.729693e-01
0.000000e+00
1.000000e+00
5.729352e-01
5.728633e-01
5.727861e-01
5.727070e-01
5.726321e-01
5.725692e-01
5.725268e-01
5.725117e-01
5.725268e-01
5.725692e-01
5.726321e-01
5.727070e-01
5.727861e-01
5.728633e-01
5.729352e-01
0.000000e+00
1.000000e+00
5.728886e-01
5.727650e-01
5.726322e-01
5.724964e-01
5.723676e-01
5.722593e-01
5.721864e-01
5.721606e-01
5.721864e-01
5.722593e-01
5.723676e-01
5.724964e-01
5.726322e-01
5.727650e-01
5.728886e-01
0.000000e+00
1.000000e+00
5.728302e-01
5.726418e-01
5.724395e-01
5.722325e-01
5.720362e-01
5.718713e-01
5.717602e-01
5.717208e-01
5.717602e-01
5.718713e-01
5.720362e-01
5.722325e-01
5.724395e-01
5.726418e-01
5.728302e-01
0.000000e+00
1.000000e+00
5.727618e-01
5.724976e-01
5.722137e-01
5.719234e-01
5.716481e-01
5.714168e-01
5.712609e-01
5.712057e-01
5.712609e-01
5.714168e-01
5.716481e-01
5.719234e-01
5.722137e-01
5.724976e-01
5.727618e-01
0.000000e+00
1.000000e+00
5.726862e-01
5.723380e-01
5.719640e-01
5.715814e-01
5.712187e-01
5.709138e-01
5.707084e-01
5.706357e-01
5.707084e-01
5.709138e-01
5.712187e-01
5.715814e-01
5.719640e-01
5.723380e-01
5.726862e-01
0.000000e+00
1.000000e+00
5.726067e-01
5.721705e-01
5.717018e-01
5.712224e-01
5.707679e-01
5.703859e-01
5.701285e-01
5.700373e-01
5.701285e-01
5.703859e-01
5.707679e-01
5.712224e-01
5.717018e-01
5.721705e-01
5.726067e-01
0.000000e+00
1.000000e+00
5.725275e-01
5.720034e-01
5.714403e-01
5.708644e-01
5.703183e-01
5.698594e-01
5.695502e-01
5.694407e-01
5.695502e-01
5.698594e-01
5.703183e-01
5.708644e-01
5.714403e-01
5.720034e-01
5.725275e-01
0.000000e+00
1.000000e+00
5.724526e-01
5.718453e-01
5.711929e-01
5.705257e-01
5.698929e-01
5.693613e-01
5.690030e-01
5.688761e-01
5.690030e-01
5.693613e-01
5.698929e-01
5.705257e-01
5.711929e-01
5.718453e-01
5.724526e-01
0.000000e+00
1.000000e+00
5.723855e-01
5.717039e-01
5.709715e-01
5.702226e-01
5.695123e-01
5.689155e-01
5.685134e-01
5.683709e-01
5.685134e-01
5.689155e-01
5.695123e-01
5.702226e-01
5.709715e-01
5.717039e-01
5.723855e-01
0.000000e+00
1.000000e+00
5.723293e-01
5.715852e-01
5.707858e-01
5.699682e-01
5.691930e-01
5.685415e-01
5.681025e-01
5.679471e-01
5.681025e-01
5.685415e-01
5.691930e-01
5.699682e-01
5.707858e-01
5.715852e-01
5.723293e-01
0.000000e+00
1.000000e+00
5.722858e-01
5.714934e-01
5.706421e-01
5.697715e-01
5.689460e-01
5.682522e-01
5.677848e-01
5.676192e-01
5.677848e-01
5.682522e-01
5.689460e-01
5.697715e-01
5.706421e-01
5.714934e-01
5.722858e-01
0.000000e+00
1.000000e+00
5.722559e-01
5.714304e-01
5.705436e-01
5.696366e-01
5.687765e-01
5.680538e-01
5.675668e-01
5.673943e-01
5.675668e-01
5.680538e-01
5.687765e-01
5.696366e-01
5.705436e-01
5.714304e-01
5.722559e-01
0.000000e+00
1.000000e+00
5.722397e-01
5.713962e-01
5.704901e-01
5.695634e-01
5.686846e-01
5.679462e-01
5.674485e-01
5.672723e-01
5.674485e-01
5.679462e-01
5.686846e-01
5.695634e-01
5.704901e-01
5.713962e-01
5.722397e-01
0.000000e+00
1.000000e+00
5.722364e-01
5.713893e-01
5.704792e-01
5.695484e-01
5.686658e-01
5.679241e-01
5.674244e-01
5.672474e-01
5.674244e-01
5.679241e-01
5.686658e-01
5.695484e-01
5.704792e-01
5.713893e-01
5.722364e-01
0.000000e+00
1.000000e+00
5.730113e-01
5.730238e-01
5.730373e-01
5.730511e-01
5.730641e-01
5.730751e-01
5.730825e-01
5.730851e-01
5.730825e-01
5.730751e-01
5.730641e-01
5.730511e-01
5.730373e-01
5.730238e-01
5.730113e-01
0.000000e+00
1.000000e+00
5.729903e-01
5.729795e-01
5.729679e-01
5.729561e-01
5.729449e-01
5.729354e-01
5.729291e-01
5.729268e-01
5.729291e-01
5.729354e-01
5.729449e-01
5.729561e-01
5.729679e-01
5.729795e-01
5.729903e-01
0.000000e+00
1.000000e+00
5.729564e-01
5.729081e-01
5.728562e-01
5.728030e-01
5.727527e-01
5.727103e-01
5.726818e-01
5.726717e-01
5.726818e-01
5.727103e-01
5.727527e-01
5.728030e-01
5.728562e-01
5.729081e-01
5.729564e-01
0.000000e+00
1.000000e+00
5.729090e-01
5.728081e-01
5.726997e-01
5.725888e-01
5.724837e-01
5.723954e-01
5.723358e-01
5.723147e-01
5.723358e-01
5.723954e-01
5.724837e-01
5.725888e-01
5.726997e-01
5.728081e-01
5.729090e-01
0.000000e+00
1.000000e+00
5.728483e-01
5.726801e-01
5.724993e-01
5.723144e-01
5.721391e-01
5.719918e-01
5.718925e-01
5.718573e-01
5.718925e-01
5.719918e-01
5.721391e-01
5.723144e-01
5.724993e-01
5.726801e-01
5.728483e-01
0.000000e+00
1.000000e+00
5.727756e-01
5.725265e-01
5.722590e-01
5.719854e-01
5.717260e-01
5.715080e-01
5.713611e-01
5.713091e-01
5.713611e-01
5.715080e-01
5.717260e-01
5.719854e-01
5.722590e-01
5.725265e-01
5.727756e-01
0.000000e+00
1.000000e+00
5.726931e-01
5.723527e-01
5.719870e-01
5.716129e-01
5.712583e-01
5.709602e-01
5.707594e-01
5.706882e-01
5.707594e-01
5.709602e-01
5.712583e-01
5.716129e-01
5.719870e-01
5.723527e-01
5.726931e-01
0.000000e+00
1.000000e+00
5.726046e-01
5.721660e-01
5.716947e-01
5.712128e-01
5.707558e-01
5.703717e-01
5.701130e-01
5.700213e-01
5.701130e-01
5.703717e-01
5.707558e-01
5.712128e-01
5.716947e-01
5.721660e-01
5.726046e-01
0.000000e+00
1.000000e+00
5.725143e-01
5.719755e-01
5.713966e-01
5.708046e-01
5.702432e-01
5.697715e-01
5.694536e-01
5.693410e-01
5.694536e-01
5.697715e-01
5.702432e-01
5.708046e-01
5.713966e-01
5.719755e-01
5.725143e-01
0.000000e+00
1.000000e+00
5.724270e-01
5.717912e-01
5.711082e-01
5.704097e-01
5.697474e-01
5.691908e-01
5.688157e-01
5.686829e-01
5.688157e-01
5.691908e-01
5.697474e-01
5.704097e-01
5.711082e-01
5.717912e-01
5.724270e-01
0.000000e+00
1.000000e+00
5.723471e-01
5.716228e-01
5.708447e-01
5.700489e-01
5.692942e-01
5.686601e-01
5.682328e-01
5.680814e-01
5.682328e-01
5.686601e-01
5.692942e-01
5.700489e-01
5.708447e-01
5.716228e-01
5.723471e-01
0.000000e+00
1.000000e+00
5.722787e-01
5.714785e-01
5.706189e-01
5.697397e-01
5.689060e-01
5.682054e-01
5.677333e-01
5.675661e-01
5.677333e-01
5.682054e-01
5.689060e-01
5.697397e-01
5.706189e-01
5.714785e-01
5.722787e-01
0.000000e+00
1.000000e+00
5.722246e-01
5.713644e-01
5.704403e-01
5.694952e-01
5.685990e-01
5.678459e-01
5.673384e-01
5.671587e-01
5.673384e-01
5.678459e-01
5.685990e-01
5.694952e-01
5.704403e-01
5.713644e-01
5.722246e-01
0.000000e+00
1.000000e+00
5.721865e-01
5.712840e-01
5.703144e-01
5.693228e-01
5.683825e-01
5.675923e-01
5.670599e-01
5.668713e-01
5.670599e-01
5.675923e-01
5.683825e-01
5.693228e-01
5.703144e-01
5.712840e-01
5.721865e-01
0.000000e+00
1.000000e+00
5.721647e-01
5.712380e-01
5.702425e-01
5.692243e-01
5.682588e-01
5.674475e-01
5.669008e-01
5.667071e-01
5.669008e-01
5.674475e-01
5.682588e-01
5.692243e-01
5.702425e-01
5.712380e-01
5.721647e-01
0.000000e+00
1.000000e+00
5.721586e-01
5.712251e-01
5.702223e-01
5.691967e-01
5.682242e-01
5.674069e-01
5.668562e-01
5.666612e-01
5.668562e-01
5.674069e-01
5.682242e-01
5.691967e-01
5.702223e-01
5.712251e-01
5.721586e-01
0.000000e+00
1.000000e+00
5.721667e-01
5.712423e-01
5.702492e-01
5.692335e-01
5.682703e-01
5.674610e-01
5.669156e-01
5.667225e-01
5.669156e-01
5.674610e-01
5.682703e-01
5.692335e-01
5.702492e-01
5.712423e-01
5.721667e-01
0.000000e+00
1.000000e+00
5.730329e-01
5.730694e-01
5.731086e-01
5.731487e-01
5.731867e-01
5.732186e-01
5.732402e-01
5.732478e-01
5.732402e-01
5.732186e-01
5.731867e-01
5.731487e-01
5.731086e-01
5.730694e-01
5.730329e-01
0.000000e+00
1.000000e+00
5.730008e-01
5.730018e-01
5.730028e-01
5.730038e-01
5.730047e-01
5.730056e-01
5.730061e-01
5.730063e-01
5.730061e-01
5.730056e-01
5.730047e-01
5.730038e-01
5.730028e-01
5.730018e-01
5.730008e-01
0.000000e+00
1.000000e+00
5.729545e-01
5.729040e-01
5.728497e-01
5.727942e-01
5.727416e-01
5.726973e-01
5.726675e-01
5.726570e-01
5.726675e-01
5.726973e-01
5.727416e-01
5.727942e-01
5.728497e-01
5.729040e-01
5.729545e-01
0.000000e+00
1.000000e+00
5.728933e-01
5.727750e-01
5.726478e-01
5.725177e-01
5.723944e-01
5.722908e-01
5.722210e-01
5.721962e-01
5.722210e-01
5.722908e-01
5.723944e-01
5.725177e-01
5.726478e-01
5.727750e-01
5.728933e-01
0.000000e+00
1.000000e+00
5.728179e-01
5.726160e-01
5.723990e-01
5.721770e-01
5.719666e-01
5.717898e-01
5.716706e-01
5.716284e-01
5.716706e-01
5.717898e-01
5.719666e-01
5.721770e-01
5.723990e-01
5.726160e-01
5.728179e-01
0.000000e+00
1.000000e+00
5.727302e-01
5.724308e-01
5.721093e-01
5.717804e-01
5.714685e-01
5.712064e-01
5.710298e-01
5.709673e-01
5.710298e-01
5.712064e-01
5.714685e-01
5.717804e-01
5.721093e-01
5.724308e-01
5.727302e-01
0.000000e+00
1.000000e+00
5.726332e-01
5.722263e-01
5.717892e-01
5.713422e-01
5.709183e-01
5.705620e-01
5.703220e-01
5.702370e-01
5.703220e-01
5.705620e-01
5.709183e-01
5.713422e-01
5.717892e-01
5.722263e-01
5.726332e-01
0.000000e+00
1.000000e+00
5.725315e-01
5.720118e-01
5.714534e-01
5.708823e-01
5.703408e-01
5.698858e-01
5.695792e-01
5.694706e-01
5.695792e-01
5.698858e-01
5.703408e-01
5.708823e-01
5.714534e-01
5.720118e-01
5.725315e-01
0.000000e+00
1.000000e+00
5.724302e-01
5.717981e-01
5.711191e-01
5.704246e-01
5.697661e-01
5.692126e-01
5.688397e-01
5.687077e-01
5.688397e-01
5.692126e-01
5.697661e-01
5.704246e-01
5.711191e-01
5.717981e-01
5.724302e-01
0.000000e+00
1.000000e+00
5.723350e-01
5.715971e-01
5.708045e-01
5.699939e-01
5.692252e-01
5.685792e-01
5.681439e-01
5.679898e-01
5.681439e-01
5.685792e-01
5.692252e-01
5.699939e-01
5.708045e-01
5.715971e-01
5.723350e-01
0.000000e+00
1.000000e+00
5.722508e-01
5.714196e-01
5.705266e-01
5.696133e-01
5.687473e-01
5.680196e-01
5.675292e-01
5.673556e-01
5.675292e-01
5.680196e-01
5.687473e-01
5.696133e-01
5.705266e-01
5.714195e-01
5.722508e-01
0.000000e+00
1.000000e+00
5.721818e-01
5.712741e-01
5.702990e-01
5.693018e-01
5.683561e-01
5.675614e-01
5.670259e-01
5.668363e-01
5.670259e-01
5.675614e-01
5.683561e-01
5.693018e-01
5.702990e-01
5.712741e-01
5.721818e-01
0.000000e+00
1.000000e+00
5.721309e-01
5.711667e-01
5.701309e-01
5.690716e-01
5.680671e-01
5.672229e-01
5.666541e-01
5.664526e-01
5.666541e-01
5.672229e-01
5.680671e-01
5.690716e-01
5.701309e-01
5.711667e-01
5.721309e-01
0.000000e+00
1.000000e+00
5.720992e-01
5.710999e-01
5.700263e-01
5.689283e-01
5.678872e-01
5.670122e-01
5.664227e-01
5.662139e-01
5.664227e-01
5.670122e-01
5.678872e-01
5.689283e-01
5.700263e-01
5.710999e-01
5.720992e-01
0.000000e+00
1.000000e+00
5.720865e-01
5.710731e-01
5.699844e-01
5.688709e-01
5.678150e-01
5.669278e-01
5.663299e-01
5.661181e-01
5.663299e-01
5.669278e-01
5.678150e-01
5.688709e-01
5.699844e-01
5.710731e-01
5.720865e-01
0.000000e+00
1.000000e+00
5.720914e-01
5.710833e-01
5.700004e-01
5.688929e-01
5.678427e-01
5.669601e-01
5.663654e-01
5.661548e-01
5.663654e-01
5.669601e-01
5.678427e-01
5.688929e-01
5.700004e-01
5.710833e-01
5.720914e-01
0.000000e+00
1.000000e+00
5.721116e-01
5.711260e-01
5.700673e-01
5.689844e-01
5.679576e-01
5.670947e-01
5.665132e-01
5.663073e-01
5.665132e-01
5.670947e-01
5.679576e-01
5.689844e-01
5.700673e-01
5.711260e-01
5.721116e-01
0.000000e+00
1.000000e+00
5.730667e-01
5.731408e-01
5.732203e-01
5.733016e-01
5.733787e-01
5.734435e-01
5.734872e-01
5.735027e-01
5.734872e-01
5.734435e-01
5.733787e-01
5.733016e-01
5.732203e-01
5.731408e-01
5.730667e-01
0.000000e+00
1.000000e+00
5.730238e-01
5.730502e-01
5.730786e-01
5.731076e-01
5.731351e-01
5.731582e-01
5.731738e-01
5.731793e-01
5.731738e-01
5.731582e-01
5.731351e-01
5.731076e-01
5.730786e-01
5.730502e-01
5.730238e-01
0.000000e+00
1.000000e+00
5.729650e-01
5.729262e-01
5.728845e-01
5.728419e-01
5.728015e-01
5.727675e-01
5.727446e-01
5.727365e-01
5.727446e-01
5.727675e-01
5.728015e-01
5.728419e-01
5.728845e-01
5.729262e-01
5.729650e-01
0.000000e+00
1.000000e+00
5.728901e-01
5.727682e-01
5.726373e-01
5.725033e-01
5.723763e-01
5.722696e-01
5.721977e-01
5.721722e-01
5.721977e-01
5.722696e-01
5.723763e-01
5.725033e-01
5.726373e-01
5.727682e-01
5.728901e-01
0.000000e+00
1.000000e+00
5.728001e-01
5.725783e-01
5.723400e-01
5.720963e-01
5.718652e-01
5.716710e-01
5.715401e-01
5.714938e-01
5.715401e-01
5.716710e-01
5.718652e-01
5.720963e-01
5.723400e-01
5.725783e-01
5.728001e-01
0.000000e+00
1.000000e+00
5.726973e-01
5.723615e-01
5.720008e-01
5.716318e-01
5.712820e-01
5.709880e-01
5.707899e-01
5.707197e-01
5.707899e-01
5.709880e-01
5.712820e-01
5.716318e-01
5.720008e-01
5.723615e-01
5.726973e-01
0.000000e+00
1.000000e+00
5.725859e-01
5.721265e-01
5.716329e-01
5.711282e-01
5.706495e-01
5.702473e-01
5.699763e-01
5.698803e-01
5.699763e-01
5.702473e-01
5.706495e-01
5.711282e-01
5.716329e-01
5.721265e-01
5.725859e-01
0.000000e+00
1.000000e+00
5.724711e-01
5.718844e-01
5.712541e-01
5.706095e-01
5.699982e-01
5.694845e-01
5.691384e-01
5.690158e-01
5.691384e-01
5.694845e-01
5.699982e-01
5.706095e-01
5.712541e-01
5.718844e-01
5.724711e-01
0.000000e+00
1.000000e+00
5.723593e-01
5.716484e-01
5.708848e-01
5.701038e-01
5.693632e-01
5.687409e-01
5.683216e-01
5.681730e-01
5.683216e-01
5.687409e-01
5.693632e-01
5.701038e-01
5.708848e-01
5.716484e-01
5.723593e-01
0.000000e+00
1.000000e+00
5.722566e-01
5.714319e-01
5.705459e-01
5.696398e-01
5.687806e-01
5.680585e-01
5.675720e-01
5.673996e-01
5.675720e-01
5.680585e-01
5.687806e-01
5.696398e-01
5.705459e-01
5.714319e-01
5.722566e-01
0.000000e+00
1.000000e+00
5.721688e-01
5.712467e-01
5.702561e-01
5.692430e-01
5.682823e-01
5.674750e-01
5.669310e-01
5.667383e-01
5.669310e-01
5.674750e-01
5.682823e-01
5.692430e-01
5.702561e-01
5.712467e-01
5.721688e-01
0.000000e+00
1.000000e+00
5.721002e-01
5.711020e-01
5.700297e-01
5.689329e-01
5.678929e-01
5.670190e-01
5.664301e-01
5.662215e-01
5.664301e-01
5.670190e-01
5.678929e-01
5.689329e-01
5.700297e-01
5.711020e-01
5.721002e-01
0.000000e+00
1.000000e+00
5.720534e-01
5.710032e-01
5.698750e-01
5.687211e-01
5.676270e-01
5.667075e-01
5.660880e-01
5.658685e-01
5.660880e-01
5.667075e-01
5.676270e-01
5.687211e-01
5.698750e-01
5.710032e-01
5.720534e-01
0.000000e+00
1.000000e+00
5.720289e-01
5.709516e-01
5.697943e-01
5.686107e-01
5.674883e-01
5.665451e-01
5.659096e-01
5.656845e-01
5.659096e-01
5.665451e-01
5.674883e-01
5.686107e-01
5.697943e-01
5.709516e-01
5.720289e-01
0.000000e+00
1.000000e+00
5.720260e-01
5.709454e-01
5.697845e-01
5.685973e-01
5.674714e-01
5.665254e-01
5.658879e-01
5.656621e-01
5.658879e-01
5.665254e-01
5.674714e-01
5.685973e-01
5.697845e-01
5.709454e-01
5.720260e-01
0.000000e+00
1.000000e+00
5.720422e-01
5.709797e-01
5.698382e-01
5.686707e-01
5.675637e-01
5.666334e-01
5.660066e-01
5.657846e-01
5.660066e-01
5.666334e-01
5.675637e-01
5.686707e-01
5.698382e-01
5.709797e-01
5.720422e-01
0.000000e+00
1.000000e+00
5.720747e-01
5.710482e-01
5.699455e-01
5.688176e-01
5.677482e-01
5.668494e-01
5.662439e-01
5.660294e-01
5.662439e-01
5.668494e-01
5.677482e-01
5.688176e-01
5.699455e-01
5.710482e-01
5.720747e-01
0.000000e+00
1.000000e+00
5.731129e-01
5.732381e-01
5.733726e-01
5.735102e-01
5.736406e-01
5.737503e-01
5.738241e-01
5.738503e-01
5.738241e-01
5.737503e-01
5.736406e-01
5.735102e-01
5.733726e-01
5.732381e-01
5.731129e-01
0.000000e+00
1.000000e+00
5.730597e-01
5.731259e-01
5.731970e-01
5.732697e-01
5.733387e-01
5.733966e-01
5.734357e-01
5.734495e-01
5.734357e-01
5.733966e-01
5.733387e-01
5.732697e-01
5.731970e-01
5.731259e-01
5.730597e-01
0.000000e+00
1.000000e+00
5.729891e-01
5.729770e-01
5.729640e-01
5.729507e-01
5.729380e-01
5.729274e-01
5.729203e-01
5.729177e-01
5.729203e-01
5.729274e-01
5.729380e-01
5.729507e-01
5.729640e-01
5.729770e-01
5.729891e-01
0.000000e+00
1.000000e+00
5.729011e-01
5.727913e-01
5.726733e-01
5.725527e-01
5.724383e-01
5.723422e-01
5.722775e-01
5.722545e-01
5.722775e-01
5.723422e-01
5.724383e-01
5.725527e-01
5.726733e-01
5.727913e-01
5.729011e-01
0.000000e+00
1.000000e+00
5.727970e-01
5.725717e-01
5.723297e-01
5.720822e-01
5.718475e-01
5.716502e-01
5.715173e-01
5.714703e-01
5.715173e-01
5.716502e-01
5.718475e-01
5.720822e-01
5.723297e-01
5.725717e-01
5.727970e-01
0.000000e+00
1.000000e+00
5.726799e-01
5.723248e-01
5.719432e-01
5.715530e-01
5.711830e-01
5.708721e-01
5.706626e-01
5.705884e-01
5.706626e-01
5.708721e-01
5.711830e-01
5.715530e-01
5.719432e-01
5.723248e-01
5.726799e-01
0.000000e+00
1.000000e+00
5.725547e-01
5.720607e-01
5.715300e-01
5.709873e-01
5.704726e-01
5.700401e-01
5.697487e-01
5.696455e-01
5.697487e-01
5.700401e-01
5.704726e-01
5.709873e-01
5.715300e-01
5.720607e-01
5.725547e-01
0.000000e+00
1.000000e+00
5.724278e-01
5.717930e-01
5.711110e-01
5.704135e-01
5.697521e-01
5.691963e-01
5.688218e-01
5.686891e-01
5.688218e-01
5.691963e-01
5.697521e-01
5.704135e-01
5.711110e-01
5.717930e-01
5.724278e-01
0.000000e+00
1.000000e+00
5.723062e-01
5.715365e-01
5.707097e-01
5.698640e-01
5.690621e-01
5.683882e-01
5.679341e-01
5.677733e-01
5.679341e-01
5.683882e-01
5.690621e-01
5.698640e-01
5.707097e-01
5.715365e-01
5.723062e-01
0.000000e+00
1.000000e+00
5.721971e-01
5.713064e-01
5.703496e-01
5.693709e-01
5.684430e-01
5.676631e-01
5.671377e-01
5.669516e-01
5.671377e-01
5.676631e-01
5.684430e-01
5.693709e-01
5.703496e-01
5.713064e-01
5.721971e-01
0.000000e+00
1.000000e+00
5.721067e-01
5.711157e-01
5.700510e-01
5.689622e-01
5.679296e-01
5.670620e-01
5.664773e-01
5.662703e-01
5.664773e-01
5.670620e-01
5.679296e-01
5.689622e-01
5.700510e-01
5.711157e-01
5.721067e-01
0.000000e+00
1.000000e+00
5.720393e-01
5.709735e-01
5.698286e-01
5.686575e-01
5.675471e-01
5.666140e-01
5.659853e-01
5.657626e-01
5.659853e-01
5.666140e-01
5.675471e-01
5.686575e-01
5.698286e-01
5.709735e-01
5.720393e-01
0.000000e+00
1.000000e+00
5.719972e-01
5.708847e-01
5.696896e-01
5.684673e-01
5.673082e-01
5.663342e-01
5.656779e-01
5.654455e-01
5.656779e-01
5.663342e-01
5.673082e-01
5.684673e-01
5.696896e-01
5.708847e-01
5.719972e-01
0.000000e+00
1.000000e+00
5.719805e-01
5.708495e-01
5.696344e-01
5.683918e-01
5.672134e-01
5.662232e-01
5.655559e-01
5.653196e-01
5.655559e-01
5.662232e-01
5.672134e-01
5.683918e-01
5.696344e-01
5.708495e-01
5.719805e-01
0.000000e+00
1.000000e+00
5.719874e-01
5.708641e-01
5.696573e-01
5.684230e-01
5.672527e-01
5.662692e-01
5.656064e-01
5.653717e-01
5.656064e-01
5.662692e-01
5.672527e-01
5.684230e-01
5.696573e-01
5.708641e-01
5.719874e-01
0.000000e+00
1.000000e+00
5.720149e-01
5.709221e-01
5.697480e-01
5.685473e-01
5.674087e-01
5.664519e-01
5.658071e-01
5.655788e-01
5.658071e-01
5.664519e-01
5.674087e-01
5.685473e-01
5.697480e-01
5.709220e-01
5.720149e-01
0.000000e+00
1.000000e+00
5.720592e-01
5.710155e-01
5.698942e-01
5.687474e-01
5.676600e-01
5.667462e-01
5.661305e-01
5.659124e-01
5.661305e-01
5.667462e-01
5.676600e-01
5.687474e-01
5.698942e-01
5.710155e-01
5.720592e-01
0.000000e+00
1.000000e+00
5.731705e-01
5.733597e-01
5.735629e-01
5.737707e-01
5.739678e-01
5.741334e-01
5.742450e-01
5.742845e-01
5.742450e-01
5.741334e-01
5.739678e-01
5.737707e-01
5.735629e-01
5.733597e-01
5.731705e-01
0.000000e+00
1.000000e+00
5.731080e-01
5.732279e-01
5.733566e-01
5.734883e-01
5.736131e-01
5.737180e-01
5.737887e-01
5.738138e-01
5.737887e-01
5.737180e-01
5.736131e-01
5.734883e-01
5.733566e-01
5.732279e-01
5.731080e-01
0.000000e+00
1.000000e+00
5.730267e-01
5.730564e-01
5.730882e-01
5.731208e-01
5.731517e-01
5.731777e-01
5.731952e-01
5.732014e-01
5.731952e-01
5.731777e-01
5.731517e-01
5.731208e-01
5.730882e-01
5.730564e-01
5.730267e-01
0.000000e+00
1.000000e+00
5.729268e-01
5.728456e-01
5.727583e-01
5.726690e-01
5.725844e-01
5.725133e-01
5.724654e-01
5.724484e-01
5.724654e-01
5.725133e-01
5.725844e-01
5.726690e-01
5.727583e-01
5.728456e-01
5.729268e-01
0.000000e+00
1.000000e+00
5.728100e-01
5.725992e-01
5.723727e-01
5.721411e-01
5.719214e-01
5.717369e-01
5.716125e-01
5.715684e-01
5.716125e-01
5.717369e-01
5.719214e-01
5.721411e-01
5.723727e-01
5.725992e-01
5.728100e-01
0.000000e+00
1.000000e+00
5.726801e-01
5.723251e-01
5.719438e-01
5.715538e-01
5.711839e-01
5.708732e-01
5.706638e-01
5.705896e-01
5.706638e-01
5.708732e-01
5.711839e-01
5.715538e-01
5.719438e-01
5.723251e-01
5.726801e-01
0.000000e+00
1.000000e+00
5.725427e-01
5.720353e-01
5.714902e-01
5.709327e-01
5.704041e-01
5.699599e-01
5.696606e-01
5.695546e-01
5.696606e-01
5.699599e-01
5.704041e-01
5.709327e-01
5.714902e-01
5.720353e-01
5.725427e-01
0.000000e+00
1.000000e+00
5.724051e-01
5.717450e-01
5.710360e-01
5.703108e-01
5.696231e-01
5.690452e-01
5.686558e-01
5.685179e-01
5.686558e-01
5.690452e-01
5.696231e-01
5.703108e-01
5.710360e-01
5.717450e-01
5.724051e-01
0.000000e+00
1.000000e+00
5.722753e-01
5.714713e-01
5.706075e-01
5.697241e-01
5.688865e-01
5.681826e-01
5.677082e-01
5.675403e-01
5.677082e-01
5.681826e-01
5.688865e-01
5.697241e-01
5.706075e-01
5.714713e-01
5.722753e-01
0.000000e+00
1.000000e+00
5.721611e-01
5.712305e-01
5.702308e-01
5.692083e-01
5.682387e-01
5.674239e-01
5.668749e-01
5.666804e-01
5.668749e-01
5.674239e-01
5.682387e-01
5.692083e-01
5.702308e-01
5.712305e-01
5.721611e-01
0.000000e+00
1.000000e+00
5.720692e-01
5.710365e-01
5.699272e-01
5.687926e-01
5.677167e-01
5.668127e-01
5.662035e-01
5.659877e-01
5.662035e-01
5.668127e-01
5.677167e-01
5.687926e-01
5.699272e-01
5.710365e-01
5.720692e-01
0.000000e+00
1.000000e+00
5.720038e-01
5.708986e-01
5.697114e-01
5.684971e-01
5.673457e-01
5.663781e-01
5.657261e-01
5.654952e-01
5.657261e-01
5.663781e-01
5.673457e-01
5.684971e-01
5.697114e-01
5.708986e-01
5.720038e-01
0.000000e+00
1.000000e+00
5.719669e-01
5.708208e-01
5.695896e-01
5.683304e-01
5.671363e-01
5.661329e-01
5.654567e-01
5.652173e-01
5.654567e-01
5.661329e-01
5.671363e-01
5.683304e-01
5.695896e-01
5.708208e-01
5.719669e-01
0.000000e+00
1.000000e+00
5.719580e-01
5.708019e-01
5.695600e-01
5.682898e-01
5.670853e-01
5.660732e-01
5.653912e-01
5.651496e-01
5.653912e-01
5.660732e-01
5.670853e-01
5.682898e-01
5.695600e-01
5.708019e-01
5.719579e-01
0.000000e+00
1.000000e+00
5.719744e-01
5.708365e-01
5.696141e-01
5.683639e-01
5.671785e-01
5.661823e-01
5.655110e-01
5.652732e-01
5.655110e-01
5.661823e-01
5.671785e-01
5.683639e-01
5.696141e-01
5.708365e-01
5.719744e-01
0.000000e+00
1.000000e+00
5.720123e-01
5.709165e-01
5.697394e-01
5.685354e-01
5.673938e-01
5.664344e-01
5.657880e-01
5.655590e-01
5.657880e-01
5.664344e-01
5.673938e-01
5.685354e-01
5.697394e-01
5.709165e-01
5.720123e-01
0.000000e+00
1.000000e+00
5.720673e-01
5.710325e-01
5.699208e-01
5.687839e-01
5.677058e-01
5.667999e-01
5.661894e-01
5.659732e-01
5.661894e-01
5.667999e-01
5.677058e-01
5.687839e-01
5.699208e-01
5.710325e-01
5.720673e-01
0.000000e+00
1.000000e+00
5.732378e-01
5.735017e-01
5.737851e-01
5.740750e-01
5.743499e-01
5.745809e-01
5.747365e-01
5.747916e-01
5.747365e-01
5.745809e-01
5.743499e-01
5.740750e-01
5.737851e-01
5.735017e-01
5.732378e-01
0.000000e+00
1.000000e+00
5.731674e-01
5.733530e-01
5.735525e-01
5.737565e-01
5.739499e-01
5.741124e-01
5.742220e-01
5.742608e-01
5.742220e-01
5.741124e-01
5.739499e-01
5.737565e-01
5.735525e-01
5.733530e-01
5.731674e-01
0.000000e+00
1.000000e+00
5.730769e-01
5.731622e-01
5.732539e-01
5.733476e-01
5.734365e-01
5.735111e-01
5.735615e-01
5.735793e-01
5.735615e-01
5.735111e-01
5.734365e-01
5.733476e-01
5.732539e-01
5.731622e-01
5.730769e-01
0.000000e+00
1.000000e+00
5.729668e-01
5.729300e-01
5.728905e-01
5.728500e-01
5.728117e-01
5.727794e-01
5.727577e-01
5.727500e-01
5.727577e-01
5.727794e-01
5.728117e-01
5.728500e-01
5.728905e-01
5.729300e-01
5.729668e-01
0.000000e+00
1.000000e+00
5.728393e-01
5.726611e-01
5.724695e-01
5.722737e-01
5.720879e-01
5.719319e-01
5.718267e-01
5.717895e-01
5.718267e-01
5.719319e-01
5.720879e-01
5.722737e-01
5.724695e-01
5.726611e-01
5.728393e-01
0.000000e+00
1.000000e+00
5.726987e-01
5.723644e-01
5.720053e-01
5.716380e-01
5.712898e-01
5.709971e-01
5.707999e-01
5.707301e-01
5.707999e-01
5.709971e-01
5.712898e-01
5.716380e-01
5.720053e-01
5.723644e-01
5.726987e-01
0.000000e+00
1.000000e+00
5.725514e-01
5.720536e-01
5.715189e-01
5.709720e-01
5.704534e-01
5.700177e-01
5.697240e-01
5.696200e-01
5.697240e-01
5.700177e-01
5.704534e-01
5.709720e-01
5.715189e-01
5.720536e-01
5.725514e-01
0.000000e+00
1.000000e+00
5.724053e-01
5.717456e-01
5.710368e-01
5.703119e-01
5.696246e-01
5.690470e-01
5.686578e-01
5.685199e-01
5.686578e-01
5.690470e-01
5.696246e-01
5.703119e-01
5.710368e-01
5.717456e-01
5.724053e-01
0.000000e+00
1.000000e+00
5.722694e-01
5.714588e-01
5.705881e-01
5.696975e-01
5.688531e-01
5.681434e-01
5.676652e-01
5.674959e-01
5.676652e-01
5.681434e-01
5.688531e-01
5.696975e-01
5.705881e-01
5.714588e-01
5.722694e-01
0.000000e+00
1.000000e+00
5.721519e-01
5.712111e-01
5.702003e-01
5.691666e-01
5.681864e-01
5.673627e-01
5.668076e-01
5.666110e-01
5.668076e-01
5.673627e-01
5.681864e-01
5.691666e-01
5.702003e-01
5.712111e-01
5.721519e-01
0.000000e+00
1.000000e+00
5.720597e-01
5.710166e-01
5.698960e-01
5.687498e-01
5.676630e-01
5.667498e-01
5.661344e-01
5.659164e-01
5.661344e-01
5.667498e-01
5.676630e-01
5.687498e-01
5.698960e-01
5.710166e-01
5.720597e-01
0.000000e+00
1.000000e+00
5.719971e-01
5.708845e-01
5.696892e-01
5.684667e-01
5.673076e-01
5.663335e-01
5.656771e-01
5.654446e-01
5.656771e-01
5.663335e-01
5.673076e-01
5.684667e-01
5.696892e-01
5.708845e-01
5.719971e-01
0.000000e+00
1.000000e+00
5.719655e-01
5.708179e-01
5.695850e-01
5.683240e-01
5.671284e-01
5.661236e-01
5.654465e-01
5.652067e-01
5.654465e-01
5.661236e-01
5.671284e-01
5.683240e-01
5.695850e-01
5.708179e-01
5.719655e-01
0.000000e+00
1.000000e+00
5.719638e-01
5.708143e-01
5.695794e-01
5.683164e-01
5.671188e-01
5.661124e-01
5.654342e-01
5.651940e-01
5.654342e-01
5.661124e-01
5.671188e-01
5.683164e-01
5.695794e-01
5.708143e-01
5.719638e-01
0.000000e+00
1.000000e+00
5.719888e-01
5.708669e-01
5.696618e-01
5.684291e-01
5.672603e-01
5.662782e-01
5.656163e-01
5.653819e-01
5.656163e-01
5.662782e-01
5.672603e-01
5.684291e-01
5.696618e-01
5.708669e-01
5.719888e-01
0.000000e+00
1.000000e+00
5.720358e-01
5.709661e-01
5.698170e-01
5.686417e-01
5.675272e-01
5.665907e-01
5.659596e-01
5.657361e-01
5.659596e-01
5.665907e-01
5.675272e-01
5.686417e-01
5.698170e-01
5.709661e-01
5.720358e-01
0.000000e+00
1.000000e+00
5.720998e-01
5.711011e-01
5.700283e-01
5.689310e-01
5.678905e-01
5.670162e-01
5.664270e-01
5.662183e-01
5.664270e-01
5.670162e-01
5.678905e-01
5.689310e-01
5.700283e-01
5.711011e-01
5.720998e-01
0.000000e+00
1.000000e+00
5.733121e-01
5.736582e-01
5.740301e-01
5.744105e-01
5.747712e-01
5.750743e-01
5.752785e-01
5.753508e-01
5.752785e-01
5.750743e-01
5.747712e-01
5.744105e-01
5.740301e-01
5.736582e-01
5.733121e-01
0.000000e+00
1.000000e+00
5.732351e-01
5.734959e-01
5.737761e-01
5.740627e-01
5.743344e-01
5.745627e-01
5.747166e-01
5.747711e-01
5.747166e-01
5.745627e-01
5.743344e-01
5.740627e-01
5.737761e-01
5.734959e-01
5.732351e-01
0.000000e+00
1.000000e+00
5.731373e-01
5.732897e-01
5.734533e-01
5.736207e-01
5.737794e-01
5.739128e-01
5.740026e-01
5.740345e-01
5.740026e-01
5.739128e-01
5.737794e-01
5.736207e-01
5.734533e-01
5.732897e-01
5.731373e-01
0.000000e+00
1.000000e+00
5.730193e-01
5.730407e-01
5.730638e-01
5.730873e-01
5.731096e-01
5.731284e-01
5.731410e-01
5.731455e-01
5.731410e-01
5.731284e-01
5.731096e-01
5.730873e-01
5.730638e-01
5.730407e-01
5.730193e-01
0.000000e+00
1.000000e+00
5.728836e-01
5.727545e-01
5.726159e-01
5.724740e-01
5.723395e-01
5.722265e-01
5.721503e-01
5.721234e-01
5.721503e-01
5.722265e-01
5.723395e-01
5.724740e-01
5.726159e-01
5.727545e-01
5.728836e-01
0.000000e+00
1.000000e+00
5.727351e-01
5.724412e-01
5.721255e-01
5.718026e-01
5.714964e-01
5.712391e-01
5.710657e-01
5.710043e-01
5.710657e-01
5.712391e-01
5.714964e-01
5.718026e-01
5.721255e-01
5.724412e-01
5.727351e-01
0.000000e+00
1.000000e+00
5.725807e-01
5.721155e-01
5.716157e-01
5.711046e-01
5.706200e-01
5.702127e-01
5.699382e-01
5.698410e-01
5.699382e-01
5.702127e-01
5.706200e-01
5.711046e-01
5.716157e-01
5.721155e-01
5.725807e-01
0.000000e+00
1.000000e+00
5.724290e-01
5.717956e-01
5.711151e-01
5.704192e-01
5.697592e-01
5.692047e-01
5.688310e-01
5.686986e-01
5.688310e-01
5.692047e-01
5.697592e-01
5.704192e-01
5.711151e-01
5.717956e-01
5.724290e-01
0.000000e+00
1.000000e+00
5.722895e-01
5.715012e-01
5.706544e-01
5.697883e-01
5.689671e-01
5.682770e-01
5.678119e-01
5.676472e-01
5.678119e-01
5.682770e-01
5.689671e-01
5.697883e-01
5.706544e-01
5.715012e-01
5.722895e-01
0.000000e+00
1.000000e+00
5.721707e-01
5.712507e-01
5.702624e-01
5.692515e-01
5.682930e-01
5.674875e-01
5.669447e-01
5.667525e-01
5.669447e-01
5.674875e-01
5.682930e-01
5.692515e-01
5.702624e-01
5.712507e-01
5.721707e-01
0.000000e+00
1.000000e+00
5.720796e-01
5.710586e-01
5.699616e-01
5.688398e-01
5.677760e-01
5.668820e-01
5.662796e-01
5.660663e-01
5.662796e-01
5.668820e-01
5.677760e-01
5.688398e-01
5.699616e-01
5.710585e-01
5.720796e-01
0.000000e+00
1.000000e+00
5.720203e-01
5.709335e-01
5.697660e-01
5.685718e-01
5.674395e-01
5.664880e-01
5.658468e-01
5.656197e-01
5.658468e-01
5.664880e-01
5.674395e-01
5.685718e-01
5.697660e-01
5.709335e-01
5.720203e-01
0.000000e+00
1.000000e+00
5.719940e-01
5.708778e-01
5.696788e-01
5.684525e-01
5.672897e-01
5.663126e-01
5.656541e-01
5.654209e-01
5.656541e-01
5.663126e-01
5.672897e-01
5.684525e-01
5.696788e-01
5.708778e-01
5.719940e-01
0.000000e+00
1.000000e+00
5.719987e-01
5.708879e-01
5.696946e-01
5.684741e-01
5.673168e-01
5.663443e-01
5.656889e-01
5.654568e-01
5.656889e-01
5.663443e-01
5.673168e-01
5.684741e-01
5.696946e-01
5.708879e-01
5.719987e-01
0.000000e+00
1.000000e+00
5.720308e-01
5.709556e-01
5.698005e-01
5.686191e-01
5.674989e-01
5.665575e-01
5.659232e-01
5.656985e-01
5.659232e-01
5.665575e-01
5.674989e-01
5.686191e-01
5.698005e-01
5.709556e-01
5.720308e-01
0.000000e+00
1.000000e+00
5.720851e-01
5.710701e-01
5.699797e-01
5.688645e-01
5.678070e-01
5.669184e-01
5.663196e-01