<?xml version="1.0"?>
<VTKFile type="StructuredGrid" version="0.1">
  <StructuredGrid WholeExtent="0 16 0 16 0 16">
    <Piece Extent="0 16 0 16 0 16">
      <PointData Scalars="temperature" Vectors="velocity">
        <DataArray type="Float32" Name="temperature" format="ascii">
1.000000e+00
5.803713e-01
5.885484e-01
5.973334e-01
6.063180e-01
6.148377e-01
6.219971e-01
6.268214e-01
6.285300e-01
6.268214e-01
6.219971e-01
6.148377e-01
6.063180e-01
5.973334e-01
5.885484e-01
5.803713e-01
0.000000e+00
1.000000e+00
5.795217e-01
5.867564e-01
5.945289e-01
6.024781e-01
6.100158e-01
6.163501e-01
6.206184e-01
6.221301e-01
6.206184e-01
6.163501e-01
6.100158e-01
6.024781e-01
5.945289e-01
5.867564e-01
5.795217e-01
0.000000e+00
1.000000e+00
5.785530e-01
5.847131e-01
5.913311e-01
5.980995e-01
6.045177e-01
6.099110e-01
6.135454e-01
6.148325e-01
6.135454e-01
6.099110e-01
6.045177e-01
5.980995e-01
5.913311e-01
5.847131e-01
5.785530e-01
0.000000e+00
1.000000e+00
5.774889e-01
5.824685e-01
5.878182e-01
5.932896e-01
5.984778e-01
6.028376e-01
6.057755e-01
6.068159e-01
6.057755e-01
6.028376e-01
5.984778e-01
5.932896e-01
5.878182e-01
5.824685e-01
5.774889e-01
0.000000e+00
1.000000e+00
5.763643e-01
5.800963e-01
5.841058e-01
5.882064e-01
5.920948e-01
5.953624e-01
5.975642e-01
5.983441e-01
5.975642e-01
5.953624e-01
5.920948e-01
5.882064e-01
5.841058e-01
5.800963e-01
5.763643e-01
0.000000e+00
1.000000e+00
5.752245e-01
5.776922e-01
5.803433e-01
5.830547e-01
5.856258e-01
5.877863e-01
5.892422e-01
5.897578e-01
5.892422e-01
5.877863e-01
5.856258e-01
5.830547e-01
5.803433e-01
5.776922e-01
5.752245e-01
0.000000e+00
1.000000e+00
5.741222e-01
5.753671e-01
5.767046e-01
5.780724e-01
5.793694e-01
5.804594e-01
5.811939e-01
5.814540e-01
5.811939e-01
5.804594e-01
5.793694e-01
5.780724e-01
5.767046e-01
5.753671e-01
5.741222e-01
0.000000e+00
1.000000e+00
5.731129e-01
5.732380e-01
5.733725e-01
5.735100e-01
5.736405e-01
5.737501e-01
5.738239e-01
5.738501e-01
5.738239e-01
5.737501e-01
5.736405e-01
5.735100e-01
5.733725e-01
5.732380e-01
5.731129e-01
0.000000e+00
1.000000e+00
5.722488e-01
5.714154e-01
5.705201e-01
5.696045e-01
5.687362e-01
5.680066e-01
5.675149e-01
5.673408e-01
5.675149e-01
5.680066e-01
5.687362e-01
5.696045e-01
5.705201e-01
5.714154e-01
5.722488e-01
0.000000e+00
1.000000e+00
5.715735e-01
5.699910e-01
5.682909e-01
5.665521e-01
5.649033e-01
5.635178e-01
5.625841e-01
5.622535e-01
5.625841e-01
5.635178e-01
5.649033e-01
5.665521e-01
5.682909e-01
5.699910e-01
5.715735e-01
0.000000e+00
1.000000e+00
5.711165e-01
5.690271e-01
5.667824e-01
5.644866e-01
5.623097e-01
5.604804e-01
5.592477e-01
5.588111e-01
5.592477e-01
5.604804e-01
5.623097e-01
5.644866e-01
5.667824e-01
5.690271e-01
5.711165e-01
0.000000e+00
1.000000e+00
5.708909e-01
5.685512e-01
5.660376e-01
5.634669e-01
5.610292e-01
5.589807e-01
5.576003e-01
5.571114e-01
5.576003e-01
5.589807e-01
5.610292e-01
5.634669e-01
5.660376e-01
5.685512e-01
5.708909e-01
0.000000e+00
1.000000e+00
5.708928e-01
5.685551e-01
5.660437e-01
5.634752e-01
5.610397e-01
5.589930e-01
5.576139e-01
5.571254e-01
5.576139e-01
5.589930e-01
5.610397e-01
5.634752e-01
5.660437e-01
5.685551e-01
5.708928e-01
0.000000e+00
1.000000e+00
5.711035e-01
5.689997e-01
5.667394e-01
5.644278e-01
5.622359e-01
5.603939e-01
5.591527e-01
5.587131e-01
5.591527e-01
5.603939e-01
5.622359e-01
5.644278e-01
5.667394e-01
5.689997e-01
5.711035e-01
0.000000e+00
1.000000e+00
5.714937e-01
5.698227e-01
5.680275e-01
5.661915e-01
5.644505e-01
5.629875e-01
5.620016e-01
5.616525e-01
5.620016e-01
5.629875e-01
5.644505e-01
5.661915e-01
5.680275e-01
5.698227e-01
5.714937e-01
0.000000e+00
1.000000e+00
5.720275e-01
5.709487e-01
5.697897e-01
5.686043e-01
5.674803e-01
5.665357e-01
5.658992e-01
5.656738e-01
5.658992e-01
5.665357e-01
5.674803e-01
5.686043e-01
5.697897e-01
5.709487e-01
5.720275e-01
0.000000e+00
1.000000e+00
5.726671e-01
5.722978e-01
5.719010e-01
5.714952e-01
5.711104e-01
5.707870e-01
5.705691e-01
5.704919e-01
5.705691e-01
5.707870e-01
5.711104e-01
5.714952e-01
5.719010e-01
5.722978e-01
5.726671e-01
0.000000e+00
1.000000e+00
5.811563e-01
5.902044e-01
5.999250e-01
6.098665e-01
6.192935e-01
6.272154e-01
6.325536e-01
6.344442e-01
6.325536e-01
6.272154e-01
6.192935e-01
6.098665e-01
5.999250e-01
5.902044e-01
5.811563e-01
0.000000e+00
1.000000e+00
5.803648e-01
5.885347e-01
5.973119e-01
6.062886e-01
6.148008e-01
6.219539e-01
6.267739e-01
6.284810e-01
6.267739e-01
6.219539e-01
6.148008e-01
6.062886e-01
5.973119e-01
5.885347e-01
5.803648e-01
0.000000e+00
1.000000e+00
5.794389e-01
5.865817e-01
5.942554e-01
6.021036e-01
6.095456e-01
6.157994e-01
6.200135e-01
6.215060e-01
6.200135e-01
6.157994e-01
6.095456e-01
6.021036e-01
5.942554e-01
5.865817e-01
5.794389e-01
0.000000e+00
1.000000e+00
5.784002e-01
5.843907e-01
5.908266e-01
5.974087e-01
6.036502e-01
6.088952e-01
6.124295e-01
6.136812e-01
6.124295e-01
6.088952e-01
6.036502e-01
5.974087e-01
5.908266e-01
5.843907e-01
5.784002e-01
0.000000e+00
1.000000e+00
5.772829e-01
5.820341e-01
5.871384e-01
5.923588e-01
5.973090e-01
6.014688e-01
6.042718e-01
6.052646e-01
6.042718e-01
6.014688e-01
5.973090e-01
5.923588e-01
5.871384e-01
5.820341e-01
5.772829e-01
0.000000e+00
1.000000e+00
5.761334e-01
5.796094e-01
5.833437e-01
5.871629e-01
5.907845e-01
5.938278e-01
5.958786e-01
5.966049e-01
5.958786e-01
5.938278e-01
5.907845e-01
5.871629e-01
5.833437e-01
5.796094e-01
5.761334e-01
0.000000e+00
1.000000e+00
5.750072e-01
5.772337e-01
5.796258e-01
5.820723e-01
5.843921e-01
5.863416e-01
5.876552e-01
5.881204e-01
5.876552e-01
5.863416e-01
5.843921e-01
5.820723e-01
5.796258e-01
5.772337e-01
5.750072e-01
0.000000e+00
1.000000e+00
5.739640e-01
5.750334e-01
5.761822e-01
5.773572e-01
5.784714e-01
5.794076e-01
5.800385e-01
5.802620e-01
5.800385e-01
5.794076e-01
5.784714e-01
5.773572e-01
5.761822e-01
5.750334e-01
5.739640e-01
0.000000e+00
1.000000e+00
5.730615e-01
5.731298e-01
5.732031e-01
5.732781e-01
5.733492e-01
5.734089e-01
5.734492e-01
5.734635e-01
5.734492e-01
5.734089e-01
5.733492e-01
5.732781e-01
5.732031e-01
5.731298e-01
5.730615e-01
0.000000e+00
1.000000e+00
5.723483e-01
5.716253e-01
5.708486e-01
5.700542e-01
5.693010e-01
5.686680e-01
5.682415e-01
5.680904e-01
5.682415e-01
5.686680e-01
5.693010e-01
5.700542e-01
5.708486e-01
5.716253e-01
5.723483e-01
0.000000e+00
1.000000e+00
5.718579e-01
5.705910e-01
5.692299e-01
5.678379e-01
5.665179e-01
5.654086e-01
5.646612e-01
5.643964e-01
5.646612e-01
5.654086e-01
5.665179e-01
5.678379e-01
5.692299e-01
5.705910e-01
5.718579e-01
0.000000e+00
1.000000e+00
5.716059e-01
5.700594e-01
5.683980e-01
5.666987e-01
5.650874e-01
5.637334e-01
5.628210e-01
5.624979e-01
5.628210e-01
5.637334e-01
5.650874e-01
5.666987e-01
5.683980e-01
5.700594e-01
5.716059e-01
0.000000e+00
1.000000e+00
5.715890e-01
5.700238e-01
5.683422e-01
5.666224e-01
5.649916e-01
5.636211e-01
5.626977e-01
5.623706e-01
5.626977e-01
5.636211e-01
5.649916e-01
5.666224e-01
5.683422e-01
5.700238e-01
5.715890e-01
0.000000e+00
1.000000e+00
5.717879e-01
5.704432e-01
5.689985e-01
5.675211e-01
5.661200e-01
5.649427e-01
5.641494e-01
5.638684e-01
5.641494e-01
5.649427e-01
5.661200e-01
5.675211e-01
5.689985e-01
5.704432e-01
5.717879e-01
0.000000e+00
1.000000e+00
5.721711e-01
5.712515e-01
5.702636e-01
5.692533e-01
5.682952e-01
5.674901e-01
5.669476e-01
5.667554e-01
5.669476e-01
5.674901e-01
5.682952e-01
5.692533e-01
5.702636e-01
5.712515e-01
5.721711e-01
0.000000e+00
1.000000e+00
5.727007e-01
5.723686e-01
5.720118e-01
5.716469e-01
5.713009e-01
5.710102e-01
5.708143e-01
5.707449e-01
5.708143e-01
5.710102e-01
5.713009e-01
5.716469e-01
5.720118e-01
5.723686e-01
5.727007e-01
0.000000e+00
1.000000e+00
5.733366e-01
5.737100e-01
5.741111e-01
5.745213e-01
5.749103e-01
5.752372e-01
5.754575e-01
5.755355e-01
5.754575e-01
5.752372e-01
5.749103e-01
5.745213e-01
5.741111e-01
5.737100e-01
5.733366e-01
0.000000e+00
1.000000e+00
5.818060e-01
5.915748e-01
6.020698e-01
6.128032e-01
6.229812e-01
6.315341e-01
6.372975e-01
6.393387e-01
6.372975e-01
6.315341e-01
6.229812e-01
6.128032e-01
6.020698e-01
5.915748e-01
5.818060e-01
0.000000e+00
1.000000e+00
5.810764e-01
5.900359e-01
5.996613e-01
6.095055e-01
6.188402e-01
6.266845e-01
6.319704e-01
6.338424e-01
6.319704e-01
6.266845e-01
6.188402e-01
6.095055e-01
5.996613e-01
5.900359e-01
5.810764e-01
0.000000e+00
1.000000e+00
5.801986e-01
5.881842e-01
5.967633e-01
6.055375e-01
6.138576e-01
6.208493e-01
6.255606e-01
6.272292e-01
6.255606e-01
6.208493e-01
6.138576e-01
6.055375e-01
5.967633e-01
5.881842e-01
5.801986e-01
0.000000e+00
1.000000e+00
5.791913e-01
5.860595e-01
5.934383e-01
6.009847e-01
6.081406e-01
6.141539e-01
6.182060e-01
6.196411e-01
6.182060e-01
6.141539e-01
6.081406e-01
6.009847e-01
5.934383e-01
5.860595e-01
5.791913e-01
0.000000e+00
1.000000e+00
5.780876e-01
5.837314e-01
5.897948e-01
5.959959e-01
6.018761e-01
6.068175e-01
6.101472e-01
6.113265e-01
6.101472e-01
6.068175e-01
6.018761e-01
5.959959e-01
5.897948e-01
5.837314e-01
5.780876e-01
0.000000e+00
1.000000e+00
5.769342e-01
5.812986e-01
5.859873e-01
5.907826e-01
5.953298e-01
5.991509e-01
6.017258e-01
6.026377e-01
6.017258e-01
5.991509e-01
5.953298e-01
5.907826e-01
5.859873e-01
5.812986e-01
5.769342e-01
0.000000e+00
1.000000e+00
5.757892e-01
5.788833e-01
5.822074e-01
5.856070e-01
5.888307e-01
5.915397e-01
5.933651e-01
5.940116e-01
5.933651e-01
5.915397e-01
5.888307e-01
5.856070e-01
5.822074e-01
5.788833e-01
5.757892e-01
0.000000e+00
1.000000e+00
5.747164e-01
5.766204e-01
5.786660e-01
5.807580e-01
5.827418e-01
5.844089e-01
5.855322e-01
5.859301e-01
5.855322e-01
5.844089e-01
5.827418e-01
5.807580e-01
5.786660e-01
5.766204e-01
5.747164e-01
0.000000e+00
1.000000e+00
5.737786e-01
5.746424e-01
5.755703e-01
5.765194e-01
5.774193e-01
5.781756e-01
5.786851e-01
5.788656e-01
5.786851e-01
5.781756e-01
5.774193e-01
5.765194e-01
5.755703e-01
5.746424e-01
5.737786e-01
0.000000e+00
1.000000e+00
5.730296e-01
5.730623e-01
5.730976e-01
5.731336e-01
5.731677e-01
5.731964e-01
5.732158e-01
5.732226e-01
5.732158e-01
5.731964e-01
5.731677e-01
5.731336e-01
5.730976e-01
5.730623e-01
5.730296e-01
0.000000e+00
1.000000e+00
5.725071e-01
5.719602e-01
5.713728e-01
5.707719e-01
5.702022e-01
5.697234e-01
5.694008e-01
5.692865e-01
5.694008e-01
5.697234e-01
5.702022e-01
5.707719e-01
5.713728e-01
5.719602e-01
5.725071e-01
0.000000e+00
1.000000e+00
5.722292e-01
5.713742e-01
5.704556e-01
5.695161e-01
5.686252e-01
5.678765e-01
5.673721e-01
5.671934e-01
5.673721e-01
5.678765e-01
5.686252e-01
5.695161e-01
5.704556e-01
5.713742e-01
5.722292e-01
0.000000e+00
1.000000e+00
5.721937e-01
5.712992e-01
5.703381e-01
5.693553e-01
5.684233e-01
5.676402e-01
5.671124e-01
5.669255e-01
5.671124e-01
5.676402e-01
5.684233e-01
5.693553e-01
5.703381e-01
5.712992e-01
5.721937e-01
0.000000e+00
1.000000e+00
5.723803e-01
5.716927e-01
5.709541e-01
5.701987e-01
5.694824e-01
5.688804e-01
5.684748e-01
5.683311e-01
5.684748e-01
5.688804e-01
5.694824e-01
5.701987e-01
5.709541e-01
5.716927e-01
5.723803e-01
0.000000e+00
1.000000e+00
5.727560e-01
5.724852e-01
5.721944e-01
5.718969e-01
5.716149e-01
5.713779e-01
5.712181e-01
5.711616e-01
5.712181e-01
5.713779e-01
5.716149e-01
5.718969e-01
5.721944e-01
5.724852e-01
5.727560e-01
0.000000e+00
1.000000e+00
5.732806e-01
5.735919e-01
5.739264e-01
5.742684e-01
5.745928e-01
5.748653e-01
5.750490e-01
5.751140e-01
5.750490e-01
5.748653e-01
5.745928e-01
5.742684e-01
5.739264e-01
5.735919e-01
5.732806e-01
0.000000e+00
1.000000e+00
5.739123e-01
5.749242e-01
5.760114e-01
5.771233e-01
5.781777e-01
5.790637e-01
5.796608e-01
5.798722e-01
5.796608e-01
5.790637e-01
5.781777e-01
5.771233e-01
5.760114e-01
5.749242e-01
5.739123e-01
0.000000e+00
1.000000e+00
5.822820e-01
5.925789e-01
6.036411e-01
6.149547e-01
6.256829e-01
6.346981e-01
6.407730e-01
6.429245e-01
6.407730e-01
6.346981e-01
6.256829e-01
6.149547e-01
6.036411e-01
5.925789e-01
5.822820e-01
0.000000e+00
1.000000e+00
5.816140e-01
5.911698e-01
6.014359e-01
6.119353e-01
6.218914e-01
6.302578e-01
6.358955e-01
6.378922e-01
6.358955e-01
6.302578e-01
6.218914e-01
6.119353e-01
6.014359e-01
5.911698e-01
5.816140e-01
0.000000e+00
1.000000e+00
5.807854e-01
5.894221e-01
5.987007e-01
6.081902e-01
6.171886e-01
6.247503e-01
6.298457e-01
6.316503e-01
6.298457e-01
6.247503e-01
6.171886e-01
6.081902e-01
5.987007e-01
5.894221e-01
5.807854e-01
0.000000e+00
1.000000e+00
5.798124e-01
5.873695e-01
5.954884e-01
6.037918e-01
6.116655e-01
6.182820e-01
6.227406e-01
6.243196e-01
6.227406e-01
6.182820e-01
6.116655e-01
6.037918e-01
5.954884e-01
5.873695e-01
5.798124e-01
0.000000e+00
1.000000e+00
5.787260e-01
5.850780e-01
5.919022e-01
5.988814e-01
6.054995e-01
6.110609e-01
6.148084e-01
6.161357e-01
6.148084e-01
6.110609e-01
6.054995e-01
5.988814e-01
5.919022e-01
5.850780e-01
5.787260e-01
0.000000e+00
1.000000e+00
5.775732e-01
5.826463e-01
5.880966e-01
5.936707e-01
5.989564e-01
6.033981e-01
6.063912e-01
6.074512e-01
6.063912e-01
6.033981e-01
5.989564e-01
5.936707e-01
5.880966e-01
5.826463e-01
5.775732e-01
0.000000e+00
1.000000e+00
5.764139e-01
5.802011e-01
5.842697e-01
5.884308e-01
5.923766e-01
5.956924e-01
5.979267e-01
5.987181e-01
5.979267e-01
5.956924e-01
5.923766e-01
5.884308e-01
5.842697e-01
5.802011e-01
5.764139e-01
0.000000e+00
1.000000e+00
5.753159e-01
5.778850e-01
5.806451e-01
5.834679e-01
5.861446e-01
5.883940e-01
5.899097e-01
5.904465e-01
5.899097e-01
5.883940e-01
5.861446e-01
5.834679e-01
5.806451e-01
5.778850e-01
5.753159e-01
0.000000e+00
1.000000e+00
5.743468e-01
5.758409e-01
5.774460e-01
5.790876e-01
5.806442e-01
5.819523e-01
5.828338e-01
5.831459e-01
5.828338e-01
5.819523e-01
5.806442e-01
5.790876e-01
5.774460e-01
5.758409e-01
5.743468e-01
0.000000e+00
1.000000e+00
5.735653e-01
5.741924e-01
5.748662e-01
5.755552e-01
5.762086e-01
5.767577e-01
5.771277e-01
5.772587e-01
5.771277e-01
5.767577e-01
5.762086e-01
5.755552e-01
5.748662e-01
5.741924e-01
5.735653e-01
0.000000e+00
1.000000e+00
5.730136e-01
5.730286e-01
5.730447e-01
5.730612e-01
5.730769e-01
5.730900e-01
5.730989e-01
5.731020e-01
5.730989e-01
5.730900e-01
5.730769e-01
5.730612e-01
5.730447e-01
5.730286e-01
5.730136e-01
0.000000e+00
1.000000e+00
5.727122e-01
5.723930e-01
5.720501e-01
5.716993e-01
5.713667e-01
5.710872e-01
5.708989e-01
5.708322e-01
5.708989e-01
5.710872e-01
5.713667e-01
5.716993e-01
5.720501e-01
5.723930e-01
5.727122e-01
0.000000e+00
1.000000e+00
5.726600e-01
5.722827e-01
5.718775e-01
5.714630e-01
5.710700e-01
5.707397e-01
5.705172e-01
5.704383e-01
5.705172e-01
5.707397e-01
5.710700e-01
5.714630e-01
5.718775e-01
5.722827e-01
5.726600e-01
0.000000e+00
1.000000e+00
5.728360e-01
5.726540e-01
5.724586e-01
5.722586e-01
5.720691e-01
5.719098e-01
5.718024e-01
5.717644e-01
5.718024e-01
5.719098e-01
5.720691e-01
5.722586e-01
5.724586e-01
5.726540e-01
5.728360e-01
0.000000e+00
1.000000e+00
5.732057e-01
5.734339e-01
5.736790e-01
5.739297e-01
5.741675e-01
5.743672e-01
5.745019e-01
5.745495e-01
5.745019e-01
5.743672e-01
5.741675e-01
5.739297e-01
5.736790e-01
5.734339e-01
5.732057e-01
0.000000e+00
1.000000e+00
5.737269e-01
5.745333e-01
5.753997e-01
5.762857e-01
5.771259e-01
5.778319e-01
5.783077e-01
5.784762e-01
5.783077e-01
5.778319e-01
5.771259e-01
5.762857e-01
5.753997e-01
5.745333e-01
5.737269e-01
0.000000e+00
1.000000e+00
5.743558e-01
5.758599e-01
5.774757e-01
5.791283e-01
5.806954e-01
5.820122e-01
5.828996e-01
5.832138e-01
5.828996e-01
5.820122e-01
5.806954e-01
5.791283e-01
5.774757e-01
5.758599e-01
5.743558e-01
0.000000e+00
1.000000e+00
5.825499e-01
5.931439e-01
6.045254e-01
6.161655e-01
6.272033e-01
6.364787e-01
6.427289e-01
6.449425e-01
6.427289e-01
6.364787e-01
6.272033e-01
6.161655e-01
6.045254e-01
5.931439e-01
5.825499e-01
0.000000e+00
1.000000e+00
5.819380e-01
5.918532e-01
6.025054e-01
6.133997e-01
6.237302e-01
6.324113e-01
6.382610e-01
6.403328e-01
6.382610e-01
6.324113e-01
6.237302e-01
6.133997e-01
6.025054e-01
5.918532e-01
5.819380e-01
0.000000e+00
1.000000e+00
5.811553e-01
5.902023e-01
5.999217e-01
6.098620e-01
6.192879e-01
6.272088e-01
6.325463e-01
6.344366e-01
6.325463e-01
6.272088e-01
6.192879e-01
6.098620e-01
5.999217e-01
5.902023e-01
5.811553e-01
0.000000e+00
1.000000e+00
5.802151e-01
5.882189e-01
5.968177e-01
6.056120e-01
6.139511e-01
6.209588e-01
6.256809e-01
6.273533e-01
6.256809e-01
6.209588e-01
6.139511e-01
6.056120e-01
5.968177e-01
5.882189e-01
5.802151e-01
0.000000e+00
1.000000e+00
5.791466e-01
5.859653e-01
5.932908e-01
6.007828e-01
6.078871e-01
6.138571e-01
6.178799e-01
6.193047e-01
6.178799e-01
6.138571e-01
6.078871e-01
6.007828e-01
5.932908e-01
5.859653e-01
5.791466e-01
0.000000e+00
1.000000e+00
5.779967e-01
5.835396e-01
5.894946e-01
5.955849e-01
6.013600e-01
6.062131e-01
6.094833e-01
6.106415e-01
6.094833e-01
6.062131e-01
6.013600e-01
5.955849e-01
5.894946e-01
5.835396e-01
5.779967e-01
0.000000e+00
1.000000e+00
5.768267e-01
5.810718e-01
5.856324e-01
5.902966e-01
5.947195e-01
5.984362e-01
6.009407e-01
6.018277e-01
6.009407e-01
5.984362e-01
5.947195e-01
5.902966e-01
5.856324e-01
5.810718e-01
5.768267e-01
0.000000e+00
1.000000e+00
5.757078e-01
5.787116e-01
5.819387e-01
5.852391e-01
5.883688e-01
5.909987e-01
5.927709e-01
5.933985e-01
5.927709e-01
5.909987e-01
5.883688e-01
5.852391e-01
5.819387e-01
5.787116e-01
5.757078e-01
0.000000e+00
1.000000e+00
5.747120e-01
5.766112e-01
5.786516e-01
5.807384e-01
5.827171e-01
5.843799e-01
5.855004e-01
5.858973e-01
5.855004e-01
5.843799e-01
5.827171e-01
5.807384e-01
5.786516e-01
5.766112e-01
5.747120e-01
0.000000e+00
1.000000e+00
5.739029e-01
5.749045e-01
5.759806e-01
5.770811e-01
5.781246e-01
5.790016e-01
5.795925e-01
5.798018e-01
5.795925e-01
5.790016e-01
5.781246e-01
5.770811e-01
5.759806e-01
5.749045e-01
5.739029e-01
0.000000e+00
1.000000e+00
5.733265e-01
5.736887e-01
5.740777e-01
5.744757e-01
5.748530e-01
5.751701e-01
5.753838e-01
5.754595e-01
5.753838e-01
5.751701e-01
5.748530e-01
5.744757e-01
5.740777e-01
5.736887e-01
5.733265e-01
0.000000e+00
1.000000e+00
5.730061e-01
5.730129e-01
5.730202e-01
5.730276e-01
5.730347e-01
5.730406e-01
5.730446e-01
5.730460e-01
5.730446e-01
5.730406e-01
5.730347e-01
5.730276e-01
5.730202e-01
5.730129e-01
5.730061e-01
0.000000e+00
1.000000e+00
5.729413e-01
5.728761e-01
5.728061e-01
5.727345e-01
5.726666e-01
5.726095e-01
5.725711e-01
5.725575e-01
5.725711e-01
5.726095e-01
5.726666e-01
5.727345e-01
5.728061e-01
5.728761e-01
5.729413e-01
0.000000e+00
1.000000e+00
5.731107e-01
5.732334e-01
5.733653e-01
5.735002e-01
5.736281e-01
5.737355e-01
5.738080e-01
5.738336e-01
5.738080e-01
5.737355e-01
5.736281e-01
5.735002e-01
5.733653e-01
5.732334e-01
5.731107e-01
0.000000e+00
1.000000e+00
5.734782e-01
5.740087e-01
5.745786e-01
5.751615e-01
5.757142e-01
5.761787e-01
5.764917e-01
5.766025e-01
5.764917e-01
5.761787e-01
5.757142e-01
5.751615e-01
5.745786e-01
5.740087e-01
5.734782e-01
0.000000e+00
1.000000e+00
5.739999e-01
5.751092e-01
5.763009e-01
5.775197e-01
5.786754e-01
5.796465e-01
5.803010e-01
5.805327e-01
5.803010e-01
5.796465e-01
5.786754e-01
5.775197e-01
5.763009e-01
5.751092e-01
5.739999e-01
0.000000e+00
1.000000e+00
5.746302e-01
5.764386e-01
5.783815e-01
5.803685e-01
5.822526e-01
5.838360e-01
5.849029e-01
5.852807e-01
5.849029e-01
5.838360e-01
5.822526e-01
5.803685e-01
5.783815e-01
5.764386e-01
5.746302e-01
0.000000e+00
1.000000e+00
5.825837e-01
5.932152e-01
6.046369e-01
6.163182e-01
6.273950e-01
6.367032e-01
6.429755e-01
6.451969e-01
6.429755e-01
6.367032e-01
6.273950e-01
6.163182e-01
6.046369e-01
5.932152e-01
5.825837e-01
0.000000e+00
1.000000e+00
5.820173e-01
5.920206e-01
6.027673e-01
6.137583e-01
6.241805e-01
6.329387e-01
6.388404e-01
6.409305e-01
6.388404e-01
6.329387e-01
6.241805e-01
6.137583e-01
6.027673e-01
5.920206e-01
5.820173e-01
0.000000e+00
1.000000e+00
5.812723e-01
5.904490e-01
6.003078e-01
6.103907e-01
6.199518e-01
6.279863e-01
6.334003e-01
6.353178e-01
6.334003e-01
6.279863e-01
6.199518e-01
6.103907e-01
6.003078e-01
5.904490e-01
5.812723e-01
0.000000e+00
1.000000e+00
5.803592e-01
5.885230e-01
5.972936e-01
6.062635e-01
6.147693e-01
6.219170e-01
6.267334e-01
6.284392e-01
6.267334e-01
6.219170e-01
6.147693e-01
6.062635e-01
5.972936e-01
5.885230e-01
5.803592e-01
0.000000e+00
1.000000e+00
5.793059e-01
5.863011e-01
5.938164e-01
6.015024e-01
6.087907e-01
6.149153e-01
6.190424e-01
6.205040e-01
6.190424e-01
6.149153e-01
6.087907e-01
6.015024e-01
5.938164e-01
5.863011e-01
5.793059e-01
0.000000e+00
1.000000e+00
5.781585e-01
5.838809e-01
5.900287e-01
5.963162e-01
6.022784e-01
6.072886e-01
6.106647e-01
6.118604e-01
6.106647e-01
6.072886e-01
6.022784e-01
5.963162e-01
5.900287e-01
5.838809e-01
5.781585e-01
0.000000e+00
1.000000e+00
5.769799e-01
5.813949e-01
5.861381e-01
5.909890e-01
5.955890e-01
5.994545e-01
6.020592e-01
6.029817e-01
6.020592e-01
5.994545e-01
5.955890e-01
5.909890e-01
5.861381e-01
5.813949e-01
5.769799e-01
0.000000e+00
1.000000e+00
5.758440e-01
5.789990e-01
5.823884e-01
5.858549e-01
5.891420e-01
5.919043e-01
5.937657e-01
5.944249e-01
5.937657e-01
5.919043e-01
5.891420e-01
5.858549e-01
5.823884e-01
5.789990e-01
5.758440e-01
0.000000e+00
1.000000e+00
5.748269e-01
5.768535e-01
5.790308e-01
5.812575e-01
5.833691e-01
5.851434e-01
5.863391e-01
5.867626e-01
5.863391e-01
5.851434e-01
5.833691e-01
5.812575e-01
5.790308e-01
5.768535e-01
5.748269e-01
0.000000e+00
1.000000e+00
5.739961e-01
5.751012e-01
5.762883e-01
5.775025e-01
5.786538e-01
5.796213e-01
5.802733e-01
5.805042e-01
5.802733e-01
5.796213e-01
5.786538e-01
5.775025e-01
5.762883e-01
5.751012e-01
5.739961e-01
0.000000e+00
1.000000e+00
5.734014e-01
5.738467e-01
5.743250e-01
5.748143e-01
5.752782e-01
5.756681e-01
5.759308e-01
5.760238e-01
5.759308e-01
5.756681e-01
5.752782e-01
5.748143e-01
5.743250e-01
5.738467e-01
5.734014e-01
0.000000e+00
1.000000e+00
5.730683e-01
5.731440e-01
5.732254e-01
5.733086e-01
5.733875e-01
5.734538e-01
5.734985e-01
5.735144e-01
5.734985e-01
5.734538e-01
5.733875e-01
5.733086e-01
5.732254e-01
5.731440e-01
5.730683e-01
0.000000e+00
1.000000e+00
5.729971e-01
5.729938e-01
5.729903e-01
5.729866e-01
5.729832e-01
5.729804e-01
5.729784e-01
5.729777e-01
5.729784e-01
5.729804e-01
5.729832e-01
5.729866e-01
5.729903e-01
5.729938e-01
5.729971e-01
0.000000e+00
1.000000e+00
5.731659e-01
5.733499e-01
5.735476e-01
5.737498e-01
5.739415e-01
5.741026e-01
5.742112e-01
5.742497e-01
5.742112e-01
5.741026e-01
5.739415e-01
5.737498e-01
5.735476e-01
5.733499e-01
5.731659e-01
0.000000e+00
1.000000e+00
5.735373e-01
5.741334e-01
5.747738e-01
5.754287e-01
5.760497e-01
5.765716e-01
5.769233e-01
5.770478e-01
5.769233e-01
5.765716e-01
5.760497e-01
5.754287e-01
5.747738e-01
5.741334e-01
5.735373e-01
0.000000e+00
1.000000e+00
5.740657e-01
5.752478e-01
5.765178e-01
5.778167e-01
5.790484e-01
5.800834e-01
5.807809e-01
5.810279e-01
5.807809e-01
5.800834e-01
5.790484e-01
5.778167e-01
5.765178e-01
5.752478e-01
5.740657e-01
0.000000e+00
1.000000e+00
5.747037e-01
5.765936e-01
5.786240e-01
5.807005e-01
5.826696e-01
5.843243e-01
5.854393e-01
5.858342e-01
5.854393e-01
5.843243e-01
5.826696e-01
5.807005e-01
5.786240e-01
5.765936e-01
5.747037e-01
0.000000e+00
1.000000e+00
5.823701e-01
5.927647e-01
6.039319e-01
6.153529e-01
6.261828e-01
6.352836e-01
6.414162e-01
6.435881e-01
6.414162e-01
6.352836e-01
6.261828e-01
6.153529e-01
6.039319e-01
5.927647e-01
5.823701e-01
0.000000e+00
1.000000e+00
5.818346e-01
5.916352e-01
6.021642e-01
6.129325e-01
6.231435e-01
6.317242e-01
6.375063e-01
6.395541e-01
6.375063e-01
6.317242e-01
6.231435e-01
6.129325e-01
6.021642e-01
5.916352e-01
5.818346e-01
0.000000e+00
1.000000e+00
5.811148e-01
5.901169e-01
5.997880e-01
6.096790e-01
6.190581e-01
6.269397e-01
6.322507e-01
6.341316e-01
6.322507e-01
6.269397e-01
6.190581e-01
6.096790e-01
5.997880e-01
5.901169e-01
5.811148e-01
0.000000e+00
1.000000e+00
5.802195e-01
5.882284e-01
5.968325e-01
6.056322e-01
6.139765e-01
6.209885e-01
6.257135e-01
6.273870e-01
6.257135e-01
6.209885e-01
6.139765e-01
6.056322e-01
5.968325e-01
5.882284e-01
5.802195e-01
0.000000e+00
1.000000e+00
5.791752e-01
5.860256e-01
5.933851e-01
6.009119e-01
6.080492e-01
6.140469e-01
6.180885e-01
6.195198e-01
6.180885e-01
6.140469e-01
6.080492e-01
6.009119e-01
5.933851e-01
5.860256e-01
5.791752e-01
0.000000e+00
1.000000e+00
5.780279e-01
5.836055e-01
5.895977e-01
5.957260e-01
6.015372e-01
6.064206e-01
6.097113e-01
6.108767e-01
6.097113e-01
6.064206e-01
6.015372e-01
5.957260e-01
5.895977e-01
5.836055e-01
5.780279e-01
0.000000e+00
1.000000e+00
5.768415e-01
5.811030e-01
5.856812e-01
5.903635e-01
5.948035e-01
5.985345e-01
6.010487e-01
6.019391e-01
6.010487e-01
5.985345e-01
5.948035e-01
5.903635e-01
5.856812e-01
5.811030e-01
5.768415e-01
0.000000e+00
1.000000e+00
5.756922e-01
5.786788e-01
5.818874e-01
5.851689e-01
5.882805e-01
5.908954e-01
5.926574e-01
5.932814e-01
5.926574e-01
5.908954e-01
5.882805e-01
5.851689e-01
5.818874e-01
5.786788e-01
5.756922e-01
0.000000e+00
1.000000e+00
5.746594e-01
5.765001e-01
5.784777e-01
5.805003e-01
5.824181e-01
5.840298e-01
5.851158e-01
5.855004e-01
5.851158e-01
5.840298e-01
5.824181e-01
5.805003e-01
5.784777e-01
5.765001e-01
5.746594e-01
0.000000e+00
1.000000e+00
5.738139e-01
5.747167e-01
5.756867e-01
5.766787e-01
5.776194e-01
5.784099e-01
5.789425e-01
5.791312e-01
5.789425e-01
5.784099e-01
5.776194e-01
5.766787e-01
5.756867e-01
5.747167e-01
5.738139e-01
0.000000e+00
1.000000e+00
5.732083e-01
5.734394e-01
5.736877e-01
5.739417e-01
5.741824e-01
5.743848e-01
5.745211e-01
5.745694e-01
5.745211e-01
5.743848e-01
5.741824e-01
5.739417e-01
5.736877e-01
5.734394e-01
5.732083e-01
0.000000e+00
1.000000e+00
5.728701e-01
5.727261e-01
5.725713e-01
5.724130e-01
5.722629e-01
5.721368e-01
5.720518e-01
5.720217e-01
5.720518e-01
5.721368e-01
5.722629e-01
5.724130e-01
5.725713e-01
5.727261e-01
5.728701e-01
0.000000e+00
1.000000e+00
5.728001e-01
5.725783e-01
5.723400e-01
5.720963e-01
5.718652e-01
5.716710e-01
5.715402e-01
5.714938e-01
5.715402e-01
5.716710e-01
5.718652e-01
5.720963e-01
5.723400e-01
5.725783e-01
5.728001e-01
0.000000e+00
1.000000e+00
5.729758e-01
5.729489e-01
5.729200e-01
5.728905e-01
5.728625e-01
5.728389e-01
5.728231e-01
5.728175e-01
5.728231e-01
5.728389e-01
5.728625e-01
5.728905e-01
5.729200e-01
5.729489e-01
5.729758e-01
0.000000e+00
1.000000e+00
5.733585e-01
5.737562e-01
5.741834e-01
5.746204e-01
5.750347e-01
5.753829e-01
5.756175e-01
5.757006e-01
5.756175e-01
5.753829e-01
5.750347e-01
5.746204e-01
5.741834e-01
5.737562e-01
5.733585e-01
0.000000e+00
1.000000e+00
5.739010e-01
5.749005e-01
5.759742e-01
5.770724e-01
5.781137e-01
5.789888e-01
5.795785e-01
5.797873e-01
5.795785e-01
5.789888e-01
5.781137e-01
5.770724e-01
5.759742e-01
5.749005e-01
5.739010e-01
0.000000e+00
1.000000e+00
5.745545e-01
5.762790e-01
5.781317e-01
5.800264e-01
5.818231e-01
5.833330e-01
5.843504e-01
5.847107e-01
5.843504e-01
5.833330e-01
5.818231e-01
5.800264e-01
5.781317e-01
5.762790e-01
5.745545e-01
0.000000e+00
1.000000e+00
5.819121e-01
5.917985e-01
6.024199e-01
6.132826e-01
6.235831e-01
6.322391e-01
6.380718e-01
6.401376e-01
6.380718e-01
6.322391e-01
6.235831e-01
6.132826e-01
6.024199e-01
5.917985e-01
5.819121e-01
0.000000e+00
1.000000e+00
5.813902e-01
5.906978e-01
6.006971e-01
6.109238e-01
6.206212e-01
6.287702e-01
6.342615e-01
6.362063e-01
6.342615e-01
6.287702e-01
6.206212e-01
6.109238e-01
6.006971e-01
5.906978e-01
5.813902e-01
0.000000e+00
1.000000e+00
5.806808e-01
5.892014e-01
5.983553e-01
6.077172e-01
6.165947e-01
6.240547e-01
6.290817e-01
6.308620e-01
6.290817e-01
6.240547e-01
6.165947e-01
6.077172e-01
5.983553e-01
5.892014e-01
5.806808e-01
0.000000e+00
1.000000e+00
5.797916e-01
5.873257e-01
5.954198e-01
6.036978e-01
6.115475e-01
6.181438e-01
6.225888e-01
6.241630e-01
6.225888e-01
6.181438e-01
6.115475e-01
6.036978e-01
5.954198e-01
5.873257e-01
5.797916e-01
0.000000e+00
1.000000e+00
5.787483e-01
5.851251e-01
5.919759e-01
5.989824e-01
6.056263e-01
6.112094e-01
6.149716e-01
6.163040e-01
6.149716e-01
6.112094e-01
6.056263e-01
5.989824e-01
5.919759e-01
5.851251e-01
5.787483e-01
0.000000e+00
1.000000e+00
5.775972e-01
5.826969e-01
5.881758e-01
5.937792e-01
5.990925e-01
6.035576e-01
6.065663e-01
6.076319e-01
6.065663e-01
6.035576e-01
5.990925e-01
5.937792e-01
5.881758e-01
5.826969e-01
5.775972e-01
0.000000e+00
1.000000e+00
5.764029e-01
5.801779e-01
5.842334e-01
5.883811e-01
5.923142e-01
5.956193e-01
5.978465e-01
5.986352e-01
5.978465e-01
5.956193e-01
5.923142e-01
5.883811e-01
5.842334e-01
5.801779e-01
5.764029e-01
0.000000e+00
1.000000e+00
5.752436e-01
5.777325e-01
5.804063e-01
5.831410e-01
5.857341e-01
5.879132e-01
5.893816e-01
5.899016e-01
5.893816e-01
5.879132e-01
5.857341e-01
5.831410e-01
5.804063e-01
5.777325e-01
5.752436e-01
0.000000e+00
1.000000e+00
5.742007e-01
5.755327e-01
5.769637e-01
5.784273e-01
5.798150e-01
5.809813e-01
5.817671e-01
5.820454e-01
5.817671e-01
5.809813e-01
5.798150e-01
5.784273e-01
5.769637e-01
5.755327e-01
5.742007e-01
0.000000e+00
1.000000e+00
5.733478e-01
5.737336e-01
5.741481e-01
5.745720e-01
5.749740e-01
5.753118e-01
5.755394e-01
5.756200e-01
5.755394e-01
5.753118e-01
5.749740e-01
5.745720e-01
5.741481e-01
5.737336e-01
5.733478e-01
0.000000e+00
1.000000e+00
5.727393e-01
5.724502e-01
5.721395e-01
5.718218e-01
5.715205e-01
5.712674e-01
5.710968e-01
5.710363e-01
5.710968e-01
5.712674e-01
5.715205e-01
5.718218e-01
5.721395e-01
5.724502e-01
5.727393e-01
0.000000e+00
1.000000e+00
5.724040e-01
5.717428e-01
5.710324e-01
5.703059e-01
5.696170e-01
5.690381e-01
5.686480e-01
5.685099e-01
5.686480e-01
5.690381e-01
5.696170e-01
5.703059e-01
5.710324e-01
5.717428e-01
5.724040e-01
0.000000e+00
1.000000e+00
5.723427e-01
5.716136e-01
5.708303e-01
5.700292e-01
5.692695e-01
5.686311e-01
5.682010e-01
5.680486e-01
5.682010e-01
5.686311e-01
5.692695e-01
5.700292e-01
5.708303e-01
5.716136e-01
5.723427e-01
0.000000e+00
1.000000e+00
5.725327e-01
5.720144e-01
5.714575e-01
5.708879e-01
5.703478e-01
5.698940e-01
5.695882e-01
5.694798e-01
5.695882e-01
5.698940e-01
5.703478e-01
5.708879e-01
5.714575e-01
5.720144e-01
5.725327e-01
0.000000e+00
1.000000e+00
5.729341e-01
5.728609e-01
5.727824e-01
5.727020e-01
5.726258e-01
5.725618e-01
5.725186e-01
5.725033e-01
5.725186e-01
5.725618e-01
5.726258e-01
5.727020e-01
5.727824e-01
5.728609e-01
5.729341e-01
0.000000e+00
1.000000e+00
5.734982e-01
5.740509e-01
5.746446e-01
5.752518e-01
5.758277e-01
5.763115e-01
5.766376e-01