<?xml version="1.0"?>
<VTKFile type="StructuredGrid" version="0.1">
  <StructuredGrid WholeExtent="0 16 0 16 0 16">
    <Piece Extent="0 16 0 16 0 16">
      <PointData Scalars="temperature" Vectors="velocity">
        <DataArray type="Float32" Name="temperature" format="ascii">
1.000000e+00
5.730012e-01
5.730025e-01
5.730038e-01
5.730052e-01
5.730066e-01
5.730077e-01
5.730084e-01
5.730087e-01
5.730084e-01
5.730077e-01
5.730066e-01
5.730052e-01
5.730038e-01
5.730025e-01
5.730012e-01
0.000000e+00
1.000000e+00
5.730008e-01
5.730017e-01
5.730027e-01
5.730037e-01
5.730046e-01
5.730054e-01
5.730060e-01
5.730062e-01
5.730060e-01
5.730054e-01
5.730046e-01
5.730037e-01
5.730027e-01
5.730017e-01
5.730008e-01
0.000000e+00
1.000000e+00
5.729892e-01
5.729773e-01
5.729644e-01
5.729513e-01
5.729388e-01
5.729283e-01
5.729213e-01
5.729188e-01
5.729213e-01
5.729283e-01
5.729388e-01
5.729513e-01
5.729644e-01
5.729773e-01
5.729892e-01
0.000000e+00
1.000000e+00
5.729652e-01
5.729267e-01
5.728853e-01
5.728429e-01
5.728027e-01
5.727689e-01
5.727462e-01
5.727381e-01
5.727462e-01
5.727689e-01
5.728027e-01
5.728429e-01
5.728853e-01
5.729267e-01
5.729652e-01
0.000000e+00
1.000000e+00
5.729284e-01
5.728490e-01
5.727636e-01
5.726764e-01
5.725936e-01
5.725240e-01
5.724772e-01
5.724606e-01
5.724772e-01
5.725240e-01
5.725936e-01
5.726764e-01
5.727636e-01
5.728490e-01
5.729284e-01
0.000000e+00
1.000000e+00
5.728791e-01
5.727449e-01
5.726008e-01
5.724534e-01
5.723137e-01
5.721962e-01
5.721171e-01
5.720890e-01
5.721171e-01
5.721962e-01
5.723137e-01
5.724534e-01
5.726008e-01
5.727449e-01
5.728791e-01
0.000000e+00
1.000000e+00
5.728187e-01
5.726175e-01
5.724014e-01
5.721804e-01
5.719708e-01
5.717946e-01
5.716760e-01
5.716339e-01
5.716760e-01
5.717946e-01
5.719708e-01
5.721804e-01
5.724014e-01
5.726175e-01
5.728187e-01
0.000000e+00
1.000000e+00
5.727496e-01
5.724717e-01
5.721732e-01
5.718680e-01
5.715785e-01
5.713352e-01
5.711713e-01
5.711133e-01
5.711713e-01
5.713352e-01
5.715785e-01
5.718680e-01
5.721732e-01
5.724717e-01
5.727496e-01
0.000000e+00
1.000000e+00
5.726750e-01
5.723144e-01
5.719271e-01
5.715309e-01
5.711553e-01
5.708396e-01
5.706269e-01
5.705516e-01
5.706269e-01
5.708396e-01
5.711553e-01
5.715309e-01
5.719271e-01
5.723144e-01
5.726750e-01
0.000000e+00
1.000000e+00
5.725988e-01
5.721538e-01
5.716756e-01
5.711866e-01
5.707230e-01
5.703333e-01
5.700707e-01
5.699777e-01
5.700707e-01
5.703333e-01
5.707230e-01
5.711866e-01
5.716756e-01
5.721538e-01
5.725988e-01
0.000000e+00
1.000000e+00
5.725250e-01
5.719981e-01
5.714321e-01
5.708531e-01
5.703042e-01
5.698428e-01
5.695320e-01
5.694219e-01
5.695320e-01
5.698428e-01
5.703042e-01
5.708531e-01
5.714321e-01
5.719981e-01
5.725250e-01
0.000000e+00
1.000000e+00
5.724574e-01
5.718554e-01
5.712087e-01
5.705473e-01
5.699201e-01
5.693931e-01
5.690379e-01
5.689122e-01
5.690379e-01
5.693931e-01
5.699201e-01
5.705473e-01
5.712087e-01
5.718554e-01
5.724574e-01
0.000000e+00
1.000000e+00
5.723990e-01
5.717321e-01
5.710158e-01
5.702832e-01
5.695885e-01
5.690047e-01
5.686113e-01
5.684720e-01
5.686113e-01
5.690047e-01
5.695885e-01
5.702832e-01
5.710158e-01
5.717321e-01
5.723990e-01
0.000000e+00
1.000000e+00
5.723520e-01
5.716330e-01
5.708607e-01
5.700708e-01
5.693218e-01
5.686924e-01
5.682683e-01
5.681180e-01
5.682683e-01
5.686924e-01
5.693218e-01
5.700708e-01
5.708607e-01
5.716330e-01
5.723520e-01
0.000000e+00
1.000000e+00
5.723177e-01
5.715607e-01
5.707475e-01
5.699159e-01
5.691272e-01
5.684645e-01
5.680179e-01
5.678598e-01
5.680179e-01
5.684645e-01
5.691272e-01
5.699159e-01
5.707475e-01
5.715607e-01
5.723177e-01
0.000000e+00
1.000000e+00
5.722964e-01
5.715158e-01
5.706773e-01
5.698196e-01
5.690064e-01
5.683230e-01
5.678625e-01
5.676994e-01
5.678625e-01
5.683230e-01
5.690064e-01
5.698196e-01
5.706773e-01
5.715158e-01
5.722964e-01
0.000000e+00
1.000000e+00
5.722876e-01
5.714973e-01
5.706484e-01
5.697800e-01
5.689567e-01
5.682648e-01
5.677985e-01
5.676334e-01
5.677985e-01
5.682648e-01
5.689567e-01
5.697800e-01
5.706484e-01
5.714973e-01
5.722876e-01
0.000000e+00
1.000000e+00
5.730015e-01
5.730031e-01
5.730049e-01
5.730067e-01
5.730084e-01
5.730099e-01
5.730109e-01
5.730112e-01
5.730109e-01
5.730099e-01
5.730084e-01
5.730067e-01
5.730049e-01
5.730031e-01
5.730015e-01
0.000000e+00
1.000000e+00
5.729903e-01
5.729795e-01
5.729679e-01
5.729560e-01
5.729448e-01
5.729353e-01
5.729289e-01
5.729267e-01
5.729289e-01
5.729353e-01
5.729448e-01
5.729560e-01
5.729679e-01
5.729795e-01
5.729903e-01
0.000000e+00
1.000000e+00
5.729666e-01
5.729294e-01
5.728896e-01
5.728488e-01
5.728101e-01
5.727776e-01
5.727557e-01
5.727479e-01
5.727557e-01
5.727776e-01
5.728101e-01
5.728488e-01
5.728896e-01
5.729294e-01
5.729666e-01
0.000000e+00
1.000000e+00
5.729294e-01
5.728510e-01
5.727668e-01
5.726807e-01
5.725990e-01
5.725304e-01
5.724842e-01
5.724678e-01
5.724842e-01
5.725304e-01
5.725990e-01
5.726807e-01
5.727668e-01
5.728510e-01
5.729294e-01
0.000000e+00
1.000000e+00
5.728786e-01
5.727438e-01
5.725991e-01
5.724510e-01
5.723107e-01
5.721927e-01
5.721132e-01
5.720850e-01
5.721132e-01
5.721927e-01
5.723107e-01
5.724510e-01
5.725991e-01
5.727438e-01
5.728786e-01
0.000000e+00
1.000000e+00
5.728150e-01
5.726098e-01
5.723893e-01
5.721638e-01
5.719499e-01
5.717702e-01
5.716491e-01
5.716062e-01
5.716491e-01
5.717702e-01
5.719499e-01
5.721638e-01
5.723893e-01
5.726098e-01
5.728150e-01
0.000000e+00
1.000000e+00
5.727407e-01
5.724531e-01
5.721441e-01
5.718280e-01
5.715283e-01
5.712765e-01
5.711068e-01
5.710467e-01
5.711068e-01
5.712765e-01
5.715283e-01
5.718280e-01
5.721441e-01
5.724531e-01
5.727407e-01
0.000000e+00
1.000000e+00
5.726589e-01
5.722804e-01
5.718739e-01
5.714581e-01
5.710638e-01
5.707325e-01
5.705092e-01
5.704301e-01
5.705092e-01
5.707325e-01
5.710638e-01
5.714581e-01
5.718739e-01
5.722804e-01
5.726589e-01
0.000000e+00
1.000000e+00
5.725735e-01
5.721004e-01
5.715921e-01
5.710723e-01
5.705794e-01
5.701652e-01
5.698860e-01
5.697872e-01
5.698860e-01
5.701652e-01
5.705794e-01
5.710723e-01
5.715921e-01
5.721004e-01
5.725735e-01
0.000000e+00
1.000000e+00
5.724892e-01
5.719226e-01
5.713139e-01
5.706913e-01
5.701010e-01
5.696049e-01
5.692706e-01
5.691522e-01
5.692706e-01
5.696049e-01
5.701010e-01
5.706913e-01
5.713139e-01
5.719226e-01
5.724892e-01
0.000000e+00
1.000000e+00
5.724106e-01
5.717566e-01
5.710541e-01
5.703356e-01
5.696543e-01
5.690818e-01
5.686960e-01
5.685594e-01
5.686960e-01
5.690818e-01
5.696543e-01
5.703356e-01
5.710541e-01
5.717566e-01
5.724106e-01
0.000000e+00
1.000000e+00
5.723415e-01
5.716110e-01
5.708262e-01
5.700235e-01
5.692624e-01
5.686229e-01
5.681919e-01
5.680392e-01
5.681919e-01
5.686229e-01
5.692624e-01
5.700235e-01
5.708262e-01
5.716110e-01
5.723415e-01
0.000000e+00
1.000000e+00
5.722852e-01
5.714922e-01
5.706403e-01
5.697690e-01
5.689428e-01
5.682485e-01
5.677807e-01
5.676150e-01
5.677807e-01
5.682485e-01
5.689428e-01
5.697690e-01
5.706403e-01
5.714922e-01
5.722852e-01
0.000000e+00
1.000000e+00
5.722436e-01
5.714044e-01
5.705029e-01
5.695808e-01
5.687065e-01
5.679718e-01
5.674767e-01
5.673014e-01
5.674767e-01
5.679718e-01
5.687065e-01
5.695808e-01
5.705029e-01
5.714044e-01
5.722436e-01
0.000000e+00
1.000000e+00
5.722174e-01
5.713491e-01
5.704163e-01
5.694623e-01
5.685577e-01
5.677975e-01
5.672853e-01
5.671038e-01
5.672853e-01
5.677975e-01
5.685577e-01
5.694623e-01
5.704163e-01
5.713491e-01
5.722173e-01
0.000000e+00
1.000000e+00
5.722062e-01
5.713256e-01
5.703796e-01
5.694120e-01
5.684945e-01
5.677235e-01
5.672040e-01
5.670200e-01
5.672040e-01
5.677235e-01
5.684945e-01
5.694120e-01
5.703796e-01
5.713256e-01
5.722062e-01
0.000000e+00
1.000000e+00
5.722090e-01
5.713315e-01
5.703889e-01
5.694247e-01
5.685105e-01
5.677422e-01
5.672245e-01
5.670412e-01
5.672245e-01
5.677422e-01
5.685105e-01
5.694247e-01
5.703889e-01
5.713315e-01
5.722090e-01
0.000000e+00
1.000000e+00
5.730131e-01
5.730276e-01
5.730432e-01
5.730591e-01
5.730742e-01
5.730869e-01
5.730955e-01
5.730985e-01
5.730955e-01
5.730869e-01
5.730742e-01
5.730591e-01
5.730432e-01
5.730276e-01
5.730131e-01
0.000000e+00
1.000000e+00
5.729906e-01
5.729802e-01
5.729690e-01
5.729575e-01
5.729467e-01
5.729375e-01
5.729314e-01
5.729292e-01
5.729314e-01
5.729375e-01
5.729467e-01
5.729575e-01
5.729690e-01
5.729802e-01
5.729906e-01
0.000000e+00
1.000000e+00
5.729542e-01
5.729034e-01
5.728489e-01
5.727931e-01
5.727402e-01
5.726957e-01
5.726657e-01
5.726551e-01
5.726657e-01
5.726957e-01
5.727402e-01
5.727931e-01
5.728489e-01
5.729034e-01
5.729542e-01
0.000000e+00
1.000000e+00
5.729032e-01
5.727957e-01
5.726803e-01
5.725623e-01
5.724504e-01
5.723563e-01
5.722930e-01
5.722705e-01
5.722930e-01
5.723563e-01
5.724504e-01
5.725623e-01
5.726803e-01
5.727957e-01
5.729032e-01
0.000000e+00
1.000000e+00
5.728377e-01
5.726575e-01
5.724641e-01
5.722662e-01
5.720785e-01
5.719208e-01
5.718146e-01
5.717769e-01
5.718146e-01
5.719208e-01
5.720785e-01
5.722662e-01
5.724641e-01
5.726575e-01
5.728377e-01
0.000000e+00
1.000000e+00
5.727591e-01
5.724919e-01
5.722047e-01
5.719111e-01
5.716327e-01
5.713987e-01
5.712410e-01
5.711852e-01
5.712410e-01
5.713987e-01
5.716327e-01
5.719111e-01
5.722047e-01
5.724919e-01
5.727591e-01
0.000000e+00
1.000000e+00
5.726703e-01
5.723045e-01
5.719116e-01
5.715097e-01
5.711286e-01
5.708083e-01
5.705925e-01
5.705161e-01
5.705925e-01
5.708083e-01
5.711286e-01
5.715097e-01
5.719116e-01
5.723045e-01
5.726703e-01
0.000000e+00
1.000000e+00
5.725753e-01
5.721040e-01
5.715978e-01
5.710800e-01
5.705891e-01
5.701765e-01
5.698985e-01
5.698001e-01
5.698985e-01
5.701765e-01
5.705891e-01
5.710800e-01
5.715978e-01
5.721040e-01
5.725752e-01
0.000000e+00
1.000000e+00
5.724789e-01
5.719008e-01
5.712798e-01
5.706446e-01
5.700423e-01
5.695362e-01
5.691951e-01
5.690744e-01
5.691951e-01
5.695362e-01
5.700423e-01
5.706446e-01
5.712798e-01
5.719008e-01
5.724789e-01
0.000000e+00
1.000000e+00
5.723867e-01
5.717062e-01
5.709752e-01
5.702276e-01
5.695186e-01
5.689229e-01
5.685215e-01
5.683793e-01
5.685215e-01
5.689229e-01
5.695186e-01
5.702276e-01
5.709752e-01
5.717062e-01
5.723867e-01
0.000000e+00
1.000000e+00
5.723036e-01
5.715309e-01
5.707009e-01
5.698520e-01
5.690471e-01
5.683706e-01
5.679148e-01
5.677534e-01
5.679148e-01
5.683706e-01
5.690471e-01
5.698520e-01
5.707009e-01
5.715309e-01
5.723036e-01
0.000000e+00
1.000000e+00
5.722340e-01
5.713841e-01
5.704711e-01
5.695374e-01
5.686519e-01
5.679079e-01
5.674065e-01
5.672289e-01
5.674065e-01
5.679079e-01
5.686519e-01
5.695374e-01
5.704711e-01
5.713841e-01
5.722340e-01
0.000000e+00
1.000000e+00
5.721808e-01
5.712720e-01
5.702956e-01
5.692971e-01
5.683502e-01
5.675545e-01
5.670184e-01
5.668285e-01
5.670184e-01
5.675545e-01
5.683502e-01
5.692971e-01
5.702956e-01
5.712720e-01
5.721808e-01
0.000000e+00
1.000000e+00
5.721457e-01
5.711978e-01
5.701796e-01
5.691382e-01
5.681507e-01
5.673209e-01
5.667617e-01
5.665637e-01
5.667617e-01
5.673209e-01
5.681507e-01
5.691382e-01
5.701796e-01
5.711978e-01
5.721456e-01
0.000000e+00
1.000000e+00
5.721286e-01
5.711619e-01
5.701234e-01
5.690612e-01
5.680541e-01
5.672077e-01
5.666374e-01
5.664354e-01
5.666374e-01
5.672077e-01
5.680541e-01
5.690612e-01
5.701234e-01
5.711619e-01
5.721286e-01
0.000000e+00
1.000000e+00
5.721286e-01
5.711620e-01
5.701235e-01
5.690614e-01
5.680542e-01
5.672079e-01
5.666376e-01
5.664356e-01
5.666376e-01
5.672079e-01
5.680542e-01
5.690614e-01
5.701235e-01
5.711620e-01
5.721286e-01
0.000000e+00
1.000000e+00
5.721438e-01
5.711940e-01
5.701736e-01
5.691300e-01
5.681404e-01
5.673088e-01
5.667484e-01
5.665500e-01
5.667484e-01
5.673088e-01
5.681404e-01
5.691300e-01
5.701736e-01
5.711940e-01
5.721438e-01
0.000000e+00
1.000000e+00
5.730371e-01
5.730783e-01
5.731225e-01
5.731677e-01
5.732106e-01
5.732467e-01
5.732710e-01
5.732796e-01
5.732710e-01
5.732467e-01
5.732106e-01
5.731677e-01
5.731225e-01
5.730783e-01
5.730371e-01
0.000000e+00
1.000000e+00
5.730034e-01
5.730072e-01
5.730112e-01
5.730153e-01
5.730192e-01
5.730225e-01
5.730247e-01
5.730255e-01
5.730247e-01
5.730225e-01
5.730192e-01
5.730153e-01
5.730112e-01
5.730072e-01
5.730034e-01
0.000000e+00
1.000000e+00
5.729543e-01
5.729035e-01
5.728490e-01
5.727932e-01
5.727404e-01
5.726959e-01
5.726660e-01
5.726554e-01
5.726660e-01
5.726959e-01
5.727404e-01
5.727932e-01
5.728490e-01
5.729035e-01
5.729543e-01
0.000000e+00
1.000000e+00
5.728892e-01
5.727662e-01
5.726341e-01
5.724990e-01
5.723709e-01
5.722632e-01
5.721907e-01
5.721650e-01
5.721907e-01
5.722632e-01
5.723709e-01
5.724990e-01
5.726341e-01
5.727662e-01
5.728892e-01
0.000000e+00
1.000000e+00
5.728087e-01
5.725965e-01
5.723685e-01
5.721353e-01
5.719142e-01
5.717284e-01
5.716032e-01
5.715589e-01
5.716032e-01
5.717284e-01
5.719142e-01
5.721353e-01
5.723685e-01
5.725965e-01
5.728087e-01
0.000000e+00
1.000000e+00
5.727149e-01
5.723987e-01
5.720589e-01
5.717115e-01
5.713820e-01
5.711051e-01
5.709185e-01
5.708524e-01
5.709185e-01
5.711051e-01
5.713820e-01
5.717115e-01
5.720589e-01
5.723987e-01
5.727149e-01
0.000000e+00
1.000000e+00
5.726114e-01
5.721804e-01
5.717173e-01
5.712437e-01
5.707945e-01
5.704171e-01
5.701628e-01
5.700728e-01
5.701628e-01
5.704171e-01
5.707945e-01
5.712437e-01
5.717173e-01
5.721804e-01
5.726114e-01
0.000000e+00
1.000000e+00
5.725032e-01
5.719520e-01
5.713599e-01
5.707544e-01
5.701801e-01
5.696976e-01
5.693724e-01
5.692573e-01
5.693724e-01
5.696976e-01
5.701801e-01
5.707544e-01
5.713599e-01
5.719520e-01
5.725032e-01
0.000000e+00
1.000000e+00
5.723961e-01
5.717261e-01
5.710064e-01
5.702703e-01
5.695723e-01
5.689857e-01
5.685904e-01
5.684505e-01
5.685904e-01
5.689857e-01
5.695723e-01
5.702703e-01
5.710064e-01
5.717261e-01
5.723961e-01
0.000000e+00
1.000000e+00
5.722963e-01
5.715157e-01
5.706770e-01
5.698193e-01
5.690060e-01
5.683225e-01
5.678619e-01
5.676988e-01
5.678619e-01
5.683225e-01
5.690060e-01
5.698193e-01
5.706770e-01
5.715157e-01
5.722963e-01
0.000000e+00
1.000000e+00
5.722095e-01
5.713326e-01
5.703905e-01
5.694270e-01
5.685134e-01
5.677456e-01
5.672283e-01
5.670450e-01
5.672283e-01
5.677456e-01
5.685134e-01
5.694270e-01
5.703905e-01
5.713326e-01
5.722095e-01
0.000000e+00
1.000000e+00
5.721402e-01
5.711863e-01
5.701616e-01
5.691136e-01
5.681198e-01
5.672847e-01
5.667220e-01
5.665227e-01
5.667220e-01
5.672847e-01
5.681198e-01
5.691136e-01
5.701616e-01
5.711863e-01
5.721402e-01
0.000000e+00
1.000000e+00
5.720911e-01
5.710828e-01
5.699997e-01
5.688918e-01
5.678413e-01
5.669586e-01
5.663637e-01
5.661530e-01
5.663637e-01
5.669586e-01
5.678413e-01
5.688918e-01
5.699997e-01
5.710828e-01
5.720911e-01
0.000000e+00
1.000000e+00
5.720634e-01
5.710243e-01
5.699080e-01
5.687663e-01
5.676837e-01
5.667739e-01
5.661609e-01
5.659438e-01
5.661609e-01
5.667739e-01
5.676837e-01
5.687663e-01
5.699080e-01
5.710242e-01
5.720634e-01
0.000000e+00
1.000000e+00
5.720563e-01
5.710093e-01
5.698846e-01
5.687342e-01
5.676434e-01
5.667268e-01
5.661092e-01
5.658904e-01
5.661092e-01
5.667268e-01
5.676434e-01
5.687342e-01
5.698846e-01
5.710093e-01
5.720563e-01
0.000000e+00
1.000000e+00
5.720680e-01
5.710340e-01
5.699233e-01
5.687872e-01
5.677100e-01
5.668047e-01
5.661947e-01
5.659787e-01
5.661947e-01
5.668047e-01
5.677100e-01
5.687872e-01
5.699233e-01
5.710340e-01
5.720680e-01
0.000000e+00
1.000000e+00
5.720958e-01
5.710927e-01
5.700151e-01
5.689130e-01
5.678679e-01
5.669897e-01
5.663980e-01
5.661884e-01
5.663980e-01
5.669897e-01
5.678679e-01
5.689130e-01
5.700151e-01
5.710927e-01
5.720958e-01
0.000000e+00
1.000000e+00
5.730741e-01
5.731563e-01
5.732447e-01
5.733350e-01
5.734206e-01
5.734926e-01
5.735411e-01
5.735583e-01
5.735411e-01
5.734926e-01
5.734206e-01
5.733350e-01
5.732447e-01
5.731563e-01
5.730741e-01
0.000000e+00
1.000000e+00
5.730296e-01
5.730624e-01
5.730977e-01
5.731338e-01
5.731680e-01
5.731967e-01
5.732161e-01
5.732229e-01
5.732161e-01
5.731967e-01
5.731680e-01
5.731338e-01
5.730977e-01
5.730624e-01
5.730296e-01
0.000000e+00
1.000000e+00
5.729681e-01
5.729328e-01
5.728948e-01
5.728560e-01
5.728191e-01
5.727882e-01
5.727673e-01
5.727599e-01
5.727673e-01
5.727882e-01
5.728191e-01
5.728560e-01
5.728948e-01
5.729328e-01
5.729681e-01
0.000000e+00
1.000000e+00
5.728894e-01
5.727667e-01
5.726349e-01
5.725001e-01
5.723722e-01
5.722648e-01
5.721924e-01
5.721668e-01
5.721924e-01
5.722648e-01
5.723722e-01
5.725001e-01
5.726349e-01
5.727667e-01
5.728894e-01
0.000000e+00
1.000000e+00
5.727944e-01
5.725663e-01
5.723213e-01
5.720707e-01
5.718331e-01
5.716334e-01
5.714989e-01
5.714512e-01
5.714989e-01
5.716334e-01
5.718331e-01
5.720707e-01
5.723213e-01
5.725663e-01
5.727944e-01
0.000000e+00
1.000000e+00
5.726859e-01
5.723374e-01
5.719630e-01
5.715801e-01
5.712171e-01
5.709120e-01
5.707064e-01
5.706336e-01
5.707064e-01
5.709120e-01
5.712171e-01
5.715801e-01
5.719630e-01
5.723374e-01
5.726859e-01
0.000000e+00
1.000000e+00
5.725682e-01
5.720892e-01
5.715746e-01
5.710483e-01
5.705493e-01
5.701299e-01
5.698473e-01
5.697472e-01
5.698473e-01
5.701299e-01
5.705493e-01
5.710483e-01
5.715746e-01
5.720892e-01
5.725682e-01
0.000000e+00
1.000000e+00
5.724474e-01
5.718343e-01
5.711757e-01
5.705022e-01
5.698634e-01
5.693267e-01
5.689650e-01
5.688369e-01
5.689650e-01
5.693267e-01
5.698634e-01
5.705022e-01
5.711757e-01
5.718343e-01
5.724474e-01
0.000000e+00
1.000000e+00
5.723303e-01
5.715873e-01
5.707891e-01
5.699727e-01
5.691986e-01
5.685481e-01
5.681098e-01
5.679545e-01
5.681098e-01
5.685481e-01
5.691986e-01
5.699727e-01
5.707891e-01
5.715873e-01
5.723303e-01
0.000000e+00
1.000000e+00
5.722238e-01
5.713627e-01
5.704377e-01
5.694915e-01
5.685944e-01
5.678405e-01
5.673325e-01
5.671526e-01
5.673325e-01
5.678405e-01
5.685944e-01
5.694915e-01
5.704377e-01
5.713627e-01
5.722238e-01
0.000000e+00
1.000000e+00
5.721342e-01
5.711737e-01
5.701418e-01
5.690865e-01
5.680857e-01
5.672448e-01
5.666781e-01
5.664774e-01
5.666781e-01
5.672448e-01
5.680857e-01
5.690865e-01
5.701418e-01
5.711737e-01
5.721342e-01
0.000000e+00
1.000000e+00
5.720660e-01
5.710298e-01
5.699166e-01
5.687781e-01
5.676986e-01
5.667914e-01
5.661801e-01
5.659636e-01
5.661801e-01
5.667914e-01
5.676986e-01
5.687781e-01
5.699166e-01
5.710298e-01
5.720660e-01
0.000000e+00
1.000000e+00
5.720217e-01
5.709364e-01
5.697705e-01
5.685781e-01
5.674474e-01
5.664972e-01
5.658569e-01
5.656301e-01
5.658569e-01
5.664972e-01
5.674474e-01
5.685781e-01
5.697705e-01
5.709364e-01
5.720217e-01
0.000000e+00
1.000000e+00
5.720018e-01
5.708945e-01
5.697049e-01
5.684882e-01
5.673345e-01
5.663650e-01
5.657117e-01
5.654803e-01
5.657117e-01
5.663650e-01
5.673345e-01
5.684882e-01
5.697049e-01
5.708945e-01
5.720018e-01
0.000000e+00
1.000000e+00
5.720049e-01
5.709010e-01
5.697151e-01
5.685022e-01
5.673521e-01
5.663856e-01
5.657343e-01
5.655037e-01
5.657343e-01
5.663856e-01
5.673521e-01
5.685022e-01
5.697151e-01
5.709010e-01
5.720049e-01
0.000000e+00
1.000000e+00
5.720283e-01
5.709503e-01
5.697922e-01
5.686078e-01
5.674847e-01
5.665409e-01
5.659049e-01
5.656797e-01
5.659049e-01
5.665409e-01
5.674847e-01
5.686078e-01
5.697922e-01
5.709503e-01
5.720283e-01
0.000000e+00
1.000000e+00
5.720684e-01
5.710349e-01
5.699247e-01
5.687892e-01
5.677125e-01
5.668076e-01
5.661979e-01
5.659820e-01
5.661979e-01
5.668076e-01
5.677125e-01
5.687892e-01
5.699247e-01
5.710349e-01
5.720684e-01
0.000000e+00
1.000000e+00
5.731238e-01
5.732611e-01
5.734086e-01
5.735595e-01
5.737025e-01
5.738227e-01
5.739037e-01
5.739324e-01
5.739037e-01
5.738227e-01
5.737025e-01
5.735595e-01
5.734086e-01
5.732611e-01
5.731238e-01
0.000000e+00
1.000000e+00
5.730693e-01
5.731462e-01
5.732288e-01
5.733133e-01
5.733935e-01
5.734608e-01
5.735062e-01
5.735222e-01
5.735062e-01
5.734608e-01
5.733935e-01
5.733133e-01
5.732288e-01
5.731462e-01
5.730693e-01
0.000000e+00
1.000000e+00
5.729965e-01
5.729926e-01
5.729884e-01
5.729841e-01
5.729801e-01
5.729767e-01
5.729744e-01
5.729735e-01
5.729744e-01
5.729767e-01
5.729801e-01
5.729841e-01
5.729884e-01
5.729926e-01
5.729965e-01
0.000000e+00
1.000000e+00
5.729052e-01
5.727999e-01
5.726869e-01
5.725713e-01
5.724617e-01
5.723695e-01
5.723075e-01
5.722855e-01
5.723075e-01
5.723695e-01
5.724617e-01
5.725713e-01
5.726869e-01
5.727999e-01
5.729052e-01
0.000000e+00
1.000000e+00
5.727968e-01
5.725713e-01
5.723291e-01
5.720814e-01
5.718465e-01
5.716491e-01
5.715161e-01
5.714690e-01
5.715161e-01
5.716491e-01
5.718465e-01
5.720814e-01
5.723291e-01
5.725713e-01
5.727968e-01
0.000000e+00
1.000000e+00
5.726747e-01
5.723138e-01
5.719261e-01
5.715295e-01
5.711535e-01
5.708375e-01
5.706246e-01
5.705492e-01
5.706246e-01
5.708375e-01
5.711535e-01
5.715295e-01
5.719261e-01
5.723138e-01
5.726747e-01
0.000000e+00
1.000000e+00
5.725442e-01
5.720384e-01
5.714952e-01
5.709395e-01
5.704126e-01
5.699699e-01
5.696715e-01
5.695659e-01
5.696715e-01
5.699699e-01
5.704126e-01
5.709395e-01
5.714952e-01
5.720384e-01
5.725442e-01
0.000000e+00
1.000000e+00
5.724121e-01
5.717598e-01
5.710591e-01
5.703425e-01
5.696629e-01
5.690919e-01
5.687071e-01
5.685708e-01
5.687071e-01
5.690919e-01
5.696629e-01
5.703425e-01
5.710591e-01
5.717598e-01
5.724121e-01
0.000000e+00
1.000000e+00
5.722862e-01
5.714943e-01
5.706436e-01
5.697736e-01
5.689486e-01
5.682553e-01
5.677881e-01
5.676226e-01
5.677881e-01
5.682553e-01
5.689486e-01
5.697736e-01
5.706436e-01
5.714943e-01
5.722862e-01
0.000000e+00
1.000000e+00
5.721743e-01
5.712582e-01
5.702741e-01
5.692677e-01
5.683133e-01
5.675113e-01
5.669708e-01
5.667794e-01
5.669708e-01
5.675113e-01
5.683133e-01
5.692677e-01
5.702741e-01
5.712582e-01
5.721743e-01
0.000000e+00
1.000000e+00
5.720829e-01
5.710654e-01
5.699723e-01
5.688544e-01
5.677944e-01
5.669036e-01
5.663033e-01
5.660907e-01
5.663033e-01
5.669036e-01
5.677944e-01
5.688544e-01
5.699723e-01
5.710654e-01
5.720829e-01
0.000000e+00
1.000000e+00
5.720165e-01
5.709255e-01
5.697534e-01
5.685546e-01
5.674179e-01
5.664627e-01
5.658191e-01
5.655911e-01
5.658191e-01
5.664627e-01
5.674179e-01
5.685546e-01
5.697534e-01
5.709255e-01
5.720165e-01
0.000000e+00
1.000000e+00
5.719775e-01
5.708432e-01
5.696245e-01
5.683782e-01
5.671964e-01
5.662032e-01
5.655340e-01
5.652970e-01
5.655340e-01
5.662032e-01
5.671964e-01
5.683782e-01
5.696245e-01
5.708431e-01
5.719775e-01
0.000000e+00
1.000000e+00
5.719656e-01
5.708179e-01
5.695851e-01
5.683242e-01
5.671285e-01
5.661238e-01
5.654467e-01
5.652070e-01
5.654467e-01
5.661238e-01
5.671285e-01
5.683242e-01
5.695851e-01
5.708179e-01
5.719656e-01
0.000000e+00
1.000000e+00
5.719785e-01
5.708452e-01
5.696278e-01
5.683827e-01
5.672020e-01
5.662098e-01
5.655412e-01
5.653044e-01
5.655412e-01
5.662098e-01
5.672020e-01
5.683827e-01
5.696278e-01
5.708452e-01
5.719785e-01
0.000000e+00
1.000000e+00
5.720128e-01
5.709176e-01
5.697410e-01
5.685377e-01
5.673966e-01
5.664378e-01
5.657916e-01
5.655628e-01
5.657916e-01
5.664378e-01
5.673966e-01
5.685377e-01
5.697410e-01
5.709176e-01
5.720128e-01
0.000000e+00
1.000000e+00
5.720642e-01
5.710260e-01
5.699108e-01
5.687701e-01
5.676885e-01
5.667796e-01
5.661671e-01
5.659502e-01
5.661671e-01
5.667796e-01
5.676885e-01
5.687701e-01
5.699108e-01
5.710260e-01
5.720642e-01
0.000000e+00
1.000000e+00
5.731848e-01
5.733898e-01
5.736100e-01
5.738352e-01
5.740487e-01
5.742282e-01
5.743491e-01
5.743920e-01
5.743491e-01
5.742282e-01
5.740487e-01
5.738352e-01
5.736100e-01
5.733898e-01
5.731848e-01
0.000000e+00
1.000000e+00
5.731216e-01
5.732566e-01
5.734015e-01
5.735497e-01
5.736903e-01
5.738084e-01
5.738880e-01
5.739162e-01
5.738880e-01
5.738084e-01
5.736903e-01
5.735497e-01
5.734015e-01
5.732566e-01
5.731216e-01
0.000000e+00
1.000000e+00
5.730389e-01
5.730819e-01
5.731282e-01
5.731756e-01
5.732205e-01
5.732582e-01
5.732836e-01
5.732926e-01
5.732836e-01
5.732582e-01
5.732205e-01
5.731756e-01
5.731282e-01
5.730819e-01
5.730389e-01
0.000000e+00
1.000000e+00
5.729366e-01
5.728661e-01
5.727905e-01
5.727132e-01
5.726398e-01
5.725782e-01
5.725366e-01
5.725219e-01
5.725366e-01
5.725782e-01
5.726398e-01
5.727132e-01
5.727905e-01
5.728661e-01
5.729366e-01
0.000000e+00
1.000000e+00
5.728166e-01
5.726131e-01
5.723945e-01
5.721709e-01
5.719590e-01
5.717808e-01
5.716608e-01
5.716182e-01
5.716608e-01
5.717808e-01
5.719590e-01
5.721709e-01
5.723945e-01
5.726131e-01
5.728166e-01
0.000000e+00
1.000000e+00
5.726829e-01
5.723312e-01
5.719533e-01
5.715668e-01
5.712003e-01
5.708923e-01
5.706848e-01
5.706113e-01
5.706848e-01
5.708923e-01
5.712003e-01
5.715668e-01
5.719533e-01
5.723312e-01
5.726829e-01
0.000000e+00
1.000000e+00
5.725416e-01
5.720330e-01
5.714866e-01
5.709278e-01
5.703979e-01
5.699527e-01
5.696526e-01
5.695464e-01
5.696526e-01
5.699527e-01
5.703979e-01
5.709278e-01
5.714866e-01
5.720330e-01
5.725416e-01
0.000000e+00
1.000000e+00
5.724003e-01
5.717349e-01
5.710201e-01
5.702890e-01
5.695958e-01
5.690133e-01
5.686207e-01
5.684817e-01
5.686207e-01
5.690133e-01
5.695958e-01
5.702890e-01
5.710201e-01
5.717349e-01
5.724003e-01
0.000000e+00
1.000000e+00
5.722675e-01
5.714549e-01
5.705819e-01
5.696891e-01
5.688425e-01
5.681310e-01
5.676516e-01
5.674819e-01
5.676516e-01
5.681310e-01
5.688425e-01
5.696891e-01
5.705819e-01
5.714549e-01
5.722675e-01
0.000000e+00
1.000000e+00
5.721517e-01
5.712106e-01
5.701996e-01
5.691656e-01
5.681851e-01
5.673611e-01
5.668059e-01
5.666093e-01
5.668059e-01
5.673611e-01
5.681851e-01
5.691656e-01
5.701996e-01
5.712106e-01
5.721517e-01
0.000000e+00
1.000000e+00
5.720596e-01
5.710164e-01
5.698956e-01
5.687494e-01
5.676625e-01
5.667491e-01
5.661336e-01
5.659156e-01
5.661336e-01
5.667491e-01
5.676625e-01
5.687494e-01
5.698956e-01
5.710164e-01
5.720596e-01
0.000000e+00
1.000000e+00
5.719958e-01
5.708818e-01
5.696850e-01
5.684610e-01
5.673004e-01
5.663251e-01
5.656678e-01
5.654351e-01
5.656678e-01
5.663251e-01
5.673004e-01
5.684610e-01
5.696850e-01
5.708818e-01
5.719958e-01
0.000000e+00
1.000000e+00
5.719621e-01
5.708107e-01
5.695737e-01
5.683086e-01
5.671090e-01
5.661009e-01
5.654216e-01
5.651811e-01
5.654216e-01
5.661009e-01
5.671090e-01
5.683086e-01
5.695737e-01
5.708107e-01
5.719621e-01
0.000000e+00
1.000000e+00
5.719576e-01
5.708012e-01
5.695590e-01
5.682884e-01
5.670836e-01
5.660712e-01
5.653889e-01
5.651473e-01
5.653889e-01
5.660712e-01
5.670836e-01
5.682884e-01
5.695590e-01
5.708012e-01
5.719576e-01
0.000000e+00
1.000000e+00
5.719795e-01
5.708473e-01
5.696311e-01
5.683871e-01
5.672076e-01
5.662164e-01
5.655484e-01
5.653119e-01
5.655484e-01
5.662164e-01
5.672076e-01
5.683871e-01
5.696311e-01
5.708473e-01
5.719795e-01
0.000000e+00
1.000000e+00
5.720234e-01
5.709399e-01
5.697760e-01
5.685855e-01
5.674567e-01
5.665081e-01
5.658690e-01
5.656426e-01
5.658690e-01
5.665081e-01
5.674567e-01
5.685855e-01
5.697760e-01
5.709399e-01
5.720234e-01
0.000000e+00
1.000000e+00
5.720845e-01
5.710688e-01
5.699776e-01
5.688617e-01
5.678035e-01
5.669142e-01
5.663150e-01
5.661028e-01
5.663150e-01
5.669142e-01
5.678035e-01
5.688617e-01
5.699776e-01
5.710688e-01
5.720845e-01
0.000000e+00
1.000000e+00
5.732548e-01
5.735374e-01
5.738411e-01
5.741516e-01
5.744461e-01
5.746936e-01
5.748603e-01
5.749194e-01
5.748603e-01
5.746936e-01
5.744461e-01
5.741516e-01
5.738411e-01
5.735374e-01
5.732548e-01
0.000000e+00
1.000000e+00
5.731844e-01
5.733890e-01
5.736087e-01
5.738335e-01
5.740466e-01
5.742257e-01
5.743464e-01
5.743892e-01
5.743464e-01
5.742257e-01
5.740466e-01
5.738335e-01
5.736087e-01
5.733890e-01
5.731844e-01
0.000000e+00
1.000000e+00
5.730935e-01
5.731971e-01
5.733085e-01
5.734224e-01
5.735304e-01
5.736212e-01
5.736824e-01
5.737040e-01
5.736824e-01
5.736212e-01
5.735304e-01
5.734224e-01
5.733085e-01
5.731971e-01
5.730935e-01
0.000000e+00
1.000000e+00
5.729823e-01
5.729627e-01
5.729415e-01
5.729200e-01
5.728995e-01
5.728823e-01
5.728707e-01
5.728666e-01
5.728707e-01
5.728823e-01
5.728995e-01
5.729200e-01
5.729415e-01
5.729627e-01
5.729823e-01
0.000000e+00
1.000000e+00
5.728532e-01
5.726903e-01
5.725153e-01
5.723363e-01
5.721666e-01
5.720239e-01
5.719278e-01
5.718938e-01
5.719278e-01
5.720239e-01
5.721666e-01
5.723363e-01
5.725153e-01
5.726903e-01
5.728532e-01
0.000000e+00
1.000000e+00
5.727105e-01
5.723894e-01
5.720444e-01
5.716916e-01
5.713570e-01
5.710759e-01
5.708864e-01
5.708193e-01
5.708864e-01
5.710759e-01
5.713570e-01
5.716916e-01
5.720444e-01
5.723894e-01
5.727105e-01
0.000000e+00
1.000000e+00
5.725611e-01
5.720741e-01
5.715510e-01
5.710160e-01
5.705086e-01
5.700823e-01
5.697950e-01
5.696933e-01
5.697950e-01
5.700823e-01
5.705086e-01
5.710160e-01
5.715510e-01
5.720741e-01
5.725611e-01
0.000000e+00
1.000000e+00
5.724131e-01
5.717621e-01
5.710626e-01
5.703473e-01
5.696690e-01
5.690990e-01
5.687149e-01
5.685788e-01
5.687149e-01
5.690990e-01
5.696690e-01
5.703473e-01
5.710626e-01
5.717621e-01
5.724131e-01
0.000000e+00
1.000000e+00
5.722759e-01
5.714726e-01
5.706096e-01
5.697269e-01
5.688900e-01
5.681867e-01
5.677127e-01
5.675449e-01
5.677127e-01
5.681867e-01
5.688900e-01
5.697269e-01
5.706096e-01
5.714726e-01
5.722759e-01
0.000000e+00
1.000000e+00
5.721580e-01
5.712239e-01
5.702205e-01
5.691942e-01
5.682210e-01
5.674032e-01
5.668521e-01
5.666569e-01
5.668521e-01
5.674032e-01
5.682210e-01
5.691942e-01
5.702205e-01
5.712239e-01
5.721580e-01
0.000000e+00
1.000000e+00
5.720665e-01
5.710309e-01
5.699184e-01
5.687806e-01
5.677016e-01
5.667950e-01
5.661840e-01
5.659676e-01
5.661840e-01
5.667950e-01
5.677016e-01
5.687806e-01
5.699184e-01
5.710309e-01
5.720665e-01
0.000000e+00
1.000000e+00
5.720058e-01
5.709028e-01
5.697178e-01
5.685059e-01
5.673568e-01
5.663911e-01
5.657404e-01
5.655099e-01
5.657404e-01
5.663911e-01
5.673568e-01
5.685059e-01
5.697178e-01
5.709028e-01
5.720058e-01
0.000000e+00
1.000000e+00
5.719772e-01
5.708424e-01
5.696234e-01
5.683766e-01
5.671943e-01
5.662008e-01
5.655314e-01
5.652943e-01
5.655314e-01
5.662008e-01
5.671943e-01
5.683766e-01
5.696234e-01
5.708424e-01
5.719771e-01
0.000000e+00
1.000000e+00
5.719793e-01
5.708468e-01
5.696303e-01
5.683861e-01
5.672063e-01
5.662149e-01
5.655468e-01
5.653102e-01
5.655468e-01
5.662149e-01
5.672063e-01
5.683861e-01
5.696303e-01
5.708468e-01
5.719793e-01
0.000000e+00
1.000000e+00
5.720086e-01
5.709087e-01
5.697271e-01
5.685186e-01
5.673727e-01
5.664097e-01
5.657608e-01
5.655310e-01
5.657608e-01
5.664097e-01
5.673727e-01
5.685186e-01
5.697271e-01
5.709087e-01
5.720086e-01
0.000000e+00
1.000000e+00
5.720602e-01
5.710176e-01
5.698976e-01
5.687521e-01
5.676659e-01
5.667531e-01
5.661380e-01