<?xml version="1.0"?>
<VTKFile type="StructuredGrid" version="0.1">
  <StructuredGrid WholeExtent="0 16 0 16 0 16">
    <Piece Extent="0 16 0 16 0 16">
      <PointData Scalars="temperature" Vectors="velocity">
        <DataArray type="Float32" Name="temperature" format="ascii">
1.000000e+00
5.738161e-01
5.744473e-01
5.752378e-01
5.760335e-01
5.768273e-01
5.775549e-01
5.781179e-01
5.784632e-01
5.785268e-01
5.782250e-01
5.775207e-01
5.766050e-01
5.756126e-01
5.747029e-01
5.728958e-01
0.000000e+00
1.000000e+00
5.737747e-01
5.742835e-01
5.749989e-01
5.757146e-01
5.764301e-01
5.770745e-01
5.775532e-01
5.778174e-01
5.779019e-01
5.776022e-01
5.769733e-01
5.761771e-01
5.753072e-01
5.745254e-01
5.729889e-01
0.000000e+00
1.000000e+00
5.737073e-01
5.740820e-01
5.747214e-01
5.753420e-01
5.759539e-01
5.764981e-01
5.769052e-01
5.771262e-01
5.771770e-01
5.768913e-01
5.763693e-01
5.757059e-01
5.749758e-01
5.743235e-01
5.728329e-01
0.000000e+00
1.000000e+00
5.736070e-01
5.738756e-01
5.744137e-01
5.749329e-01
5.754385e-01
5.758822e-01
5.762098e-01
5.763663e-01
5.763283e-01
5.761207e-01
5.757144e-01
5.751856e-01
5.746018e-01
5.740879e-01
5.728564e-01
0.000000e+00
1.000000e+00
5.735035e-01
5.736731e-01
5.740963e-01
5.745030e-01
5.748912e-01
5.752177e-01
5.754406e-01
5.755226e-01
5.754466e-01
5.752840e-01
5.750005e-01
5.746157e-01
5.741845e-01
5.738305e-01
5.727353e-01
0.000000e+00
1.000000e+00
5.734188e-01
5.734606e-01
5.737561e-01
5.740307e-01
5.742886e-01
5.744988e-01
5.746356e-01
5.746777e-01
5.746171e-01
5.744807e-01
5.742872e-01
5.740445e-01
5.737741e-01
5.735743e-01
5.726100e-01
0.000000e+00
1.000000e+00
5.733335e-01
5.732270e-01
5.733986e-01
5.735349e-01
5.736636e-01
5.737686e-01
5.738363e-01
5.738576e-01
5.738292e-01
5.737565e-01
5.736510e-01
5.735269e-01
5.733965e-01
5.733394e-01
5.725377e-01
0.000000e+00
1.000000e+00
5.731255e-01
5.730213e-01
5.730574e-01
5.730717e-01
5.730854e-01
5.730972e-01
5.731067e-01
5.731123e-01
5.731131e-01
5.731088e-01
5.730991e-01
5.730868e-01
5.730698e-01
5.731412e-01
5.720400e-01
0.000000e+00
1.000000e+00
5.730288e-01
5.728453e-01
5.727767e-01
5.726863e-01
5.726015e-01
5.725317e-01
5.724861e-01
5.724712e-01
5.724893e-01
5.725377e-01
5.726086e-01
5.726934e-01
5.727807e-01
5.729883e-01
5.718149e-01
0.000000e+00
1.000000e+00
5.728881e-01
5.727041e-01
5.725528e-01
5.723797e-01
5.722154e-01
5.720779e-01
5.719861e-01
5.719540e-01
5.719874e-01
5.720817e-01
5.722205e-01
5.723840e-01
5.725554e-01
5.728588e-01
5.717230e-01
0.000000e+00
1.000000e+00
5.727244e-01
5.726119e-01
5.724002e-01
5.721713e-01
5.719539e-01
5.717717e-01
5.716499e-01
5.716076e-01
5.716521e-01
5.717767e-01
5.719608e-01
5.721777e-01
5.724051e-01
5.727721e-01
5.715074e-01
0.000000e+00
1.000000e+00
5.726125e-01
5.725768e-01
5.723239e-01
5.720674e-01
5.718239e-01
5.716199e-01
5.714837e-01
5.714367e-01
5.714868e-01
5.716254e-01
5.718313e-01
5.720751e-01
5.723303e-01
5.727527e-01
5.713851e-01
0.000000e+00
1.000000e+00
5.725719e-01
5.725930e-01
5.723230e-01
5.720662e-01
5.718225e-01
5.716185e-01
5.714824e-01
5.714358e-01
5.714862e-01
5.716246e-01
5.718296e-01
5.720738e-01
5.723296e-01
5.727767e-01
5.714388e-01
0.000000e+00
1.000000e+00
5.725869e-01
5.726499e-01
5.723911e-01
5.721592e-01
5.719392e-01
5.717550e-01
5.716324e-01
5.715909e-01
5.716370e-01
5.717621e-01
5.719461e-01
5.721658e-01
5.723972e-01
5.728234e-01
5.716768e-01
0.000000e+00
1.000000e+00
5.726366e-01
5.727349e-01
5.725184e-01
5.723333e-01
5.721575e-01
5.720103e-01
5.719124e-01
5.718799e-01
5.719177e-01
5.720184e-01
5.721651e-01
5.723390e-01
5.725234e-01
5.728981e-01
5.718894e-01
0.000000e+00
1.000000e+00
5.727042e-01
5.728529e-01
5.726931e-01
5.725726e-01
5.724577e-01
5.723614e-01
5.722975e-01
5.722766e-01
5.723023e-01
5.723695e-01
5.724661e-01
5.725784e-01
5.726981e-01
5.730662e-01
5.724223e-01
0.000000e+00
1.000000e+00
5.728213e-01
5.729997e-01
5.729035e-01
5.728602e-01
5.728185e-01
5.727836e-01
5.727605e-01
5.727532e-01
5.727633e-01
5.727889e-01
5.728254e-01
5.728661e-01
5.729216e-01
5.741291e-01
5.683665e-01
0.000000e+00
1.000000e+00
5.739402e-01
5.745915e-01
5.754453e-01
5.762886e-01
5.771294e-01
5.779212e-01
5.785876e-01
5.790442e-01
5.790656e-01
5.788133e-01
5.780892e-01
5.770707e-01
5.759474e-01
5.748623e-01
5.733921e-01
0.000000e+00
1.000000e+00
5.738590e-01
5.744703e-01
5.752599e-01
5.760362e-01
5.768014e-01
5.775009e-01
5.780558e-01
5.784360e-01
5.785072e-01
5.782787e-01
5.775832e-01
5.766285e-01
5.755757e-01
5.746490e-01
5.731879e-01
0.000000e+00
1.000000e+00
5.737827e-01
5.742823e-01
5.749955e-01
5.757045e-01
5.763920e-01
5.770033e-01
5.774577e-01
5.777371e-01
5.778646e-01
5.775648e-01
5.769075e-01
5.760748e-01
5.751905e-01
5.744434e-01
5.730753e-01
0.000000e+00
1.000000e+00
5.736996e-01
5.740773e-01
5.746965e-01
5.753041e-01
5.758952e-01
5.764164e-01
5.768066e-01
5.770321e-01
5.770685e-01
5.767827e-01
5.762452e-01
5.755800e-01
5.748658e-01
5.742480e-01
5.730386e-01
0.000000e+00
1.000000e+00
5.735949e-01
5.738630e-01
5.743736e-01
5.748686e-01
5.753494e-01
5.757688e-01
5.760764e-01
5.762218e-01
5.761427e-01
5.759511e-01
5.755573e-01
5.750435e-01
5.744832e-01
5.740101e-01
5.729269e-01
0.000000e+00
1.000000e+00
5.735336e-01
5.736385e-01
5.740320e-01
5.744070e-01
5.747670e-01
5.750705e-01
5.752785e-01
5.753520e-01
5.752680e-01
5.751091e-01
5.748405e-01
5.744825e-01
5.740861e-01
5.737706e-01
5.727991e-01
0.000000e+00
1.000000e+00
5.734718e-01
5.734253e-01
5.736854e-01
5.739329e-01
5.741663e-01
5.743572e-01
5.744833e-01
5.745214e-01
5.744642e-01
5.743352e-01
5.741494e-01
5.739212e-01
5.736857e-01
5.735285e-01
5.727098e-01
0.000000e+00
1.000000e+00
5.733781e-01
5.732012e-01
5.733377e-01
5.734555e-01
5.735655e-01
5.736571e-01
5.737194e-01
5.737413e-01
5.737188e-01
5.736564e-01
5.735636e-01
5.734505e-01
5.733376e-01
5.732936e-01
5.725875e-01
0.000000e+00
1.000000e+00
5.732558e-01
5.729798e-01
5.730411e-01
5.730489e-01
5.730569e-01
5.730640e-01
5.730696e-01
5.730730e-01
5.730736e-01
5.730720e-01
5.730676e-01
5.730621e-01
5.730516e-01
5.731119e-01
5.722435e-01
0.000000e+00
1.000000e+00
5.731742e-01
5.728293e-01
5.728133e-01
5.727357e-01
5.726624e-01
5.726014e-01
5.725612e-01
5.725471e-01
5.725614e-01
5.726022e-01
5.726629e-01
5.727361e-01
5.728120e-01
5.729809e-01
5.722231e-01
0.000000e+00
1.000000e+00
5.730311e-01
5.727221e-01
5.726471e-01
5.725092e-01
5.723778e-01
5.722674e-01
5.721934e-01
5.721674e-01
5.721939e-01
5.722690e-01
5.723798e-01
5.725106e-01
5.726475e-01
5.728709e-01
5.723864e-01
0.000000e+00
1.000000e+00
5.728806e-01
5.726847e-01
5.725613e-01
5.723922e-01
5.722313e-01
5.720964e-01
5.720061e-01
5.719746e-01
5.720074e-01
5.720990e-01
5.722350e-01
5.723958e-01
5.725644e-01
5.728596e-01
5.719995e-01
0.000000e+00
1.000000e+00
5.728339e-01
5.727016e-01
5.725540e-01
5.723823e-01
5.722192e-01
5.720825e-01
5.719912e-01
5.719597e-01
5.719932e-01
5.720857e-01
5.722231e-01
5.723866e-01
5.725582e-01
5.729180e-01
5.718779e-01
0.000000e+00
1.000000e+00
5.728351e-01
5.727588e-01
5.726178e-01
5.724698e-01
5.723290e-01
5.722111e-01
5.721327e-01
5.721060e-01
5.721353e-01
5.722152e-01
5.723329e-01
5.724736e-01
5.726223e-01
5.730033e-01
5.718490e-01
0.000000e+00
1.000000e+00
5.728797e-01
5.728495e-01
5.727427e-01
5.726407e-01
5.725433e-01
5.724619e-01
5.724080e-01
5.723902e-01
5.724111e-01
5.724667e-01
5.725477e-01
5.726440e-01
5.727463e-01
5.731086e-01
5.718882e-01
0.000000e+00
1.000000e+00
5.729535e-01
5.729717e-01
5.729165e-01
5.728782e-01
5.728412e-01
5.728104e-01
5.727903e-01
5.727843e-01
5.727934e-01
5.728156e-01
5.728466e-01
5.728822e-01
5.729218e-01
5.733833e-01
5.718379e-01
0.000000e+00
1.000000e+00
5.732039e-01
5.731005e-01
5.731259e-01
5.731640e-01
5.731995e-01
5.732293e-01
5.732498e-01
5.732578e-01
5.732521e-01
5.732333e-01
5.732040e-01
5.731658e-01
5.731472e-01
5.746601e-01
5.669633e-01
0.000000e+00
1.000000e+00
5.740052e-01
5.747107e-01
5.756111e-01
5.764842e-01
5.773567e-01
5.782113e-01
5.789841e-01
5.795203e-01
5.795331e-01
5.792747e-01
5.785819e-01
5.774907e-01
5.762559e-01
5.750354e-01
5.734514e-01
0.000000e+00
1.000000e+00
5.739299e-01
5.746234e-01
5.754793e-01
5.763030e-01
5.770934e-01
5.778386e-01
5.785031e-01
5.790100e-01
5.789784e-01
5.788095e-01
5.781476e-01
5.770900e-01
5.758919e-01
5.748188e-01
5.731533e-01
0.000000e+00
1.000000e+00
5.738576e-01
5.744461e-01
5.752333e-01
5.760111e-01
5.767494e-01
5.774029e-01
5.779205e-01
5.782977e-01
5.783889e-01
5.781698e-01
5.774510e-01
5.764730e-01
5.754590e-01
5.746121e-01
5.730803e-01
0.000000e+00
1.000000e+00
5.737852e-01
5.742334e-01
5.749320e-01
5.756166e-01
5.762809e-01
5.768652e-01
5.772901e-01
5.775620e-01
5.776837e-01
5.773863e-01
5.767439e-01
5.759571e-01
5.751403e-01
5.744288e-01
5.730442e-01
0.000000e+00
1.000000e+00
5.736881e-01
5.740142e-01
5.746048e-01
5.751779e-01
5.757355e-01
5.762284e-01
5.765984e-01
5.768091e-01
5.768092e-01
5.765502e-01
5.760504e-01
5.754327e-01
5.747665e-01
5.741901e-01
5.729364e-01
0.000000e+00
1.000000e+00
5.736098e-01
5.737838e-01
5.742607e-01
5.747163e-01
5.751593e-01
5.755452e-01
5.758285e-01
5.759588e-01
5.758699e-01
5.756969e-01
5.753394e-01
5.748722e-01
5.743661e-01
5.739508e-01
5.727953e-01
0.000000e+00
1.000000e+00
5.735260e-01
5.735641e-01
5.739192e-01
5.742538e-01
5.745748e-01
5.748445e-01
5.750295e-01
5.750940e-01
5.750187e-01
5.748742e-01
5.746338e-01
5.743143e-01
5.739661e-01
5.737105e-01
5.726995e-01
0.000000e+00
1.000000e+00
5.734600e-01
5.733828e-01
5.735929e-01
5.738040e-01
5.740013e-01
5.741633e-01
5.742709e-01
5.743037e-01
5.742558e-01
5.741469e-01
5.739925e-01
5.737948e-01
5.735863e-01
5.734810e-01
5.726265e-01
0.000000e+00
1.000000e+00
5.734555e-01
5.731916e-01
5.732720e-01
5.733669e-01
5.734560e-01
5.735320e-01
5.735834e-01
5.736021e-01
5.735851e-01
5.735353e-01
5.734631e-01
5.733751e-01
5.732815e-01
5.732713e-01
5.724704e-01
0.000000e+00
1.000000e+00
5.733797e-01
5.729315e-01
5.730348e-01
5.730370e-01
5.730405e-01
5.730441e-01
5.730472e-01
5.730493e-01
5.730499e-01
5.730491e-01
5.730468e-01
5.730443e-01
5.730376e-01
5.731274e-01
5.720539e-01
0.000000e+00
1.000000e+00
5.733609e-01
5.727958e-01
5.728677e-01
5.728107e-01
5.727551e-01
5.727081e-01
5.726766e-01
5.726650e-01
5.726749e-01
5.727048e-01
5.727501e-01
5.728050e-01
5.728616e-01
5.730248e-01
5.722406e-01
0.000000e+00
1.000000e+00
5.732022e-01
5.727478e-01
5.727684e-01
5.726761e-01
5.725875e-01
5.725128e-01
5.724628e-01
5.724452e-01
5.724628e-01
5.725129e-01
5.725873e-01
5.726753e-01
5.727674e-01
5.730302e-01
5.718440e-01
0.000000e+00
1.000000e+00
5.731041e-01
5.727774e-01
5.727546e-01
5.726568e-01
5.725636e-01
5.724854e-01
5.724331e-01
5.724149e-01
5.724337e-01
5.724862e-01
5.725644e-01
5.726576e-01
5.727557e-01
5.731301e-01
5.714744e-01
0.000000e+00
1.000000e+00
5.731063e-01
5.728410e-01
5.728147e-01
5.727392e-01
5.726670e-01
5.726065e-01
5.725662e-01
5.725524e-01
5.725671e-01
5.726077e-01
5.726677e-01
5.727399e-01
5.728168e-01
5.732445e-01
5.714219e-01
0.000000e+00
1.000000e+00
5.731540e-01
5.729334e-01
5.729371e-01
5.729066e-01
5.728769e-01
5.728521e-01
5.728360e-01
5.728309e-01
5.728373e-01
5.728539e-01
5.728779e-01
5.729066e-01
5.729385e-01
5.733721e-01
5.713610e-01
0.000000e+00
1.000000e+00
5.733254e-01
5.730376e-01
5.731087e-01
5.731411e-01
5.731710e-01
5.731965e-01
5.732145e-01
5.732221e-01
5.732176e-01
5.732011e-01
5.731745e-01
5.731416e-01
5.731167e-01
5.737969e-01
5.709585e-01
0.000000e+00
1.000000e+00
5.736009e-01
5.731327e-01
5.733151e-01
5.734239e-01
5.735263e-01
5.736126e-01
5.736709e-01
5.736922e-01
5.736728e-01
5.736153e-01
5.735274e-01
5.734150e-01
5.733304e-01
5.746306e-01
5.681506e-01
0.000000e+00
1.000000e+00
5.740591e-01
5.747948e-01
5.757239e-01
5.766053e-01
5.775089e-01
5.784326e-01
5.792866e-01
5.798559e-01
5.798874e-01
5.795925e-01
5.789212e-01
5.778128e-01
5.764804e-01
5.751386e-01
5.734962e-01
0.000000e+00
1.000000e+00
5.739921e-01
5.747280e-01
5.756306e-01
5.764697e-01
5.772809e-01
5.780857e-01
5.788587e-01
5.794135e-01
5.793610e-01
5.791593e-01
5.785509e-01
5.774459e-01
5.761180e-01
5.749124e-01
5.732193e-01
0.000000e+00
1.000000e+00
5.739292e-01
5.745560e-01
5.754024e-01
5.762203e-01
5.769867e-01
5.776736e-01
5.782827e-01
5.787840e-01
5.787658e-01
5.786121e-01
5.779017e-01
5.768086e-01
5.756625e-01
5.747111e-01
5.731390e-01
0.000000e+00
1.000000e+00
5.738600e-01
5.743450e-01
5.751101e-01
5.758535e-01
5.765733e-01
5.772014e-01
5.776620e-01
5.779896e-01
5.781250e-01
5.778875e-01
5.771755e-01
5.762767e-01
5.753574e-01
5.745509e-01
5.730937e-01
0.000000e+00
1.000000e+00
5.737483e-01
5.741352e-01
5.747879e-01
5.754262e-01
5.760459e-01
5.765926e-01
5.769918e-01
5.772211e-01
5.773555e-01
5.770423e-01
5.764591e-01
5.757535e-01
5.749949e-01
5.743239e-01
5.729797e-01
0.000000e+00
1.000000e+00
5.736593e-01
5.739100e-01
5.744476e-01
5.749677e-01
5.754716e-01
5.759160e-01
5.762508e-01
5.764239e-01
5.763996e-01
5.761803e-01
5.757426e-01
5.751891e-01
5.745902e-01
5.740820e-01
5.728559e-01
0.000000e+00
1.000000e+00
5.735872e-01
5.736824e-01
5.741053e-01
5.745028e-01
5.748874e-01
5.752207e-01
5.754618e-01
5.755640e-01
5.754735e-01
5.753270e-01
5.750296e-01
5.746252e-01
5.741848e-01
5.738429e-01
5.727293e-01
0.000000e+00
1.000000e+00
5.735319e-01
5.734786e-01
5.737729e-01
5.740509e-01
5.743159e-01
5.745370e-01
5.746875e-01
5.747391e-01
5.746763e-01
5.745488e-01
5.743570e-01
5.740943e-01
5.738025e-01
5.736173e-01
5.725761e-01
0.000000e+00
1.000000e+00
5.735252e-01
5.733327e-01
5.734734e-01
5.736365e-01
5.737898e-01
5.739178e-01
5.740019e-01
5.740285e-01
5.739912e-01
5.739014e-01
5.737798e-01
5.736278e-01
5.734649e-01
5.734067e-01
5.725670e-01
0.000000e+00
1.000000e+00
5.735289e-01
5.731153e-01
5.731906e-01
5.732632e-01
5.733307e-01
5.733882e-01
5.734266e-01
5.734413e-01
5.734303e-01
5.733946e-01
5.733413e-01
5.732778e-01
5.732108e-01
5.732260e-01
5.724066e-01
0.000000e+00
1.000000e+00
5.734922e-01
5.728960e-01
5.730381e-01
5.730332e-01
5.730340e-01
5.730350e-01
5.730362e-01
5.730367e-01
5.730366e-01
5.730359e-01
5.730340e-01
5.730321e-01
5.730287e-01
5.731091e-01
5.723078e-01
0.000000e+00
1.000000e+00
5.733875e-01
5.728330e-01
5.729320e-01
5.729001e-01
5.728671e-01
5.728386e-01
5.728193e-01
5.728118e-01
5.728174e-01
5.728352e-01
5.728615e-01
5.728934e-01
5.729266e-01
5.731314e-01
5.716680e-01
0.000000e+00
1.000000e+00
5.732808e-01
5.728640e-01
5.729091e-01
5.728681e-01
5.728286e-01
5.727955e-01
5.727735e-01
5.727657e-01
5.727732e-01
5.727951e-01
5.728277e-01
5.728665e-01
5.729073e-01
5.732822e-01
5.710145e-01
0.000000e+00
1.000000e+00
5.733330e-01
5.729234e-01
5.729665e-01
5.729466e-01
5.729271e-01
5.729106e-01
5.728997e-01
5.728957e-01
5.728993e-01
5.729097e-01
5.729253e-01
5.729442e-01
5.729657e-01
5.734946e-01
5.705102e-01
0.000000e+00
1.000000e+00
5.734703e-01
5.729857e-01
5.730874e-01
5.731116e-01
5.731337e-01
5.731525e-01
5.731660e-01
5.731712e-01
5.731669e-01
5.731534e-01
5.731330e-01
5.731077e-01
5.730891e-01
5.737788e-01
5.711008e-01
0.000000e+00
1.000000e+00
5.736790e-01
5.730477e-01
5.732537e-01
5.733417e-01
5.734235e-01
5.734923e-01
5.735396e-01
5.735569e-01
5.735412e-01
5.734939e-01
5.734219e-01
5.733319e-01
5.732685e-01
5.740837e-01
5.707281e-01
0.000000e+00
1.000000e+00
5.736953e-01
5.731666e-01
5.734553e-01
5.736181e-01
5.737722e-01
5.739014e-01
5.739884e-01
5.740203e-01
5.739912e-01
5.739032e-01
5.737712e-01
5.736097e-01
5.734746e-01
5.739327e-01
5.694470e-01
0.000000e+00
1.000000e+00
5.740926e-01
5.748479e-01
5.757856e-01
5.766658e-01
5.775971e-01
5.785720e-01
5.794601e-01
5.800391e-01
5.800822e-01
5.797609e-01
5.790901e-01
5.780078e-01
5.766455e-01
5.751974e-01
5.735261e-01
0.000000e+00
1.000000e+00
5.740267e-01
5.748032e-01
5.757268e-01
5.765643e-01
5.773862e-01
5.782422e-01
5.790824e-01
5.796508e-01
5.795957e-01
5.793513e-01
5.787751e-01
5.776699e-01
5.762668e-01
5.749668e-01
5.732644e-01
0.000000e+00
1.000000e+00
5.739602e-01
5.746307e-01
5.755066e-01
5.763461e-01
5.771247e-01
5.778388e-01
5.785211e-01
5.790748e-01
5.790143e-01
5.788661e-01
5.781885e-01
5.770272e-01
5.757889e-01
5.747712e-01
5.731739e-01
0.000000e+00
1.000000e+00
5.738864e-01
5.744262e-01
5.752214e-01
5.760008e-01
5.767504e-01
5.773998e-01
5.778987e-01
5.782870e-01
5.784126e-01
5.782089e-01
5.774683e-01
5.764861e-01
5.754954e-01
5.746314e-01
5.731325e-01
0.000000e+00
1.000000e+00
5.737919e-01
5.742116e-01
5.749106e-01
5.755923e-01
5.762534e-01
5.768345e-01
5.772482e-01
5.774828e-01
5.776814e-01
5.773771e-01
5.767403e-01
5.759683e-01
5.751463e-01
5.744136e-01
5.730232e-01
0.000000e+00
1.000000e+00
5.737044e-01
5.739912e-01
5.745770e-01
5.751414e-01
5.756874e-01
5.761670e-01
5.765280e-01
5.767255e-01
5.767414e-01
5.764963e-01
5.760082e-01
5.753985e-01
5.747375e-01
5.741710e-01
5.728901e-01
0.000000e+00
1.000000e+00
5.736231e-01
5.737642e-01
5.742284e-01
5.746692e-01
5.750951e-01
5.754676e-01
5.757452e-01
5.758734e-01
5.757816e-01
5.756240e-01
5.752838e-01
5.748228e-01
5.743277e-01
5.739322e-01
5.727787e-01
0.000000e+00
1.000000e+00
5.735496e-01
5.735512e-01
5.738874e-01
5.742056e-01
5.745127e-01
5.747749e-01
5.749591e-01
5.750286e-01
5.749567e-01
5.748181e-01
5.745963e-01
5.742823e-01
5.739358e-01
5.737050e-01
5.726172e-01
0.000000e+00
1.000000e+00
5.734989e-01
5.733857e-01
5.735795e-01
5.737849e-01
5.739814e-01
5.741420e-01
5.742498e-01
5.742866e-01
5.742426e-01
5.741370e-01
5.739950e-01
5.738111e-01
5.735979e-01
5.734901e-01
5.725842e-01
0.000000e+00
1.000000e+00
5.735548e-01
5.732226e-01
5.733229e-01
5.734349e-01
5.735367e-01
5.736214e-01
5.736774e-01
5.736944e-01
5.736700e-01
5.736074e-01
5.735216e-01
5.734222e-01
5.733171e-01
5.733189e-01
5.723968e-01
0.000000e+00
1.000000e+00
5.735113e-01
5.729999e-01
5.731147e-01
5.731582e-01
5.731994e-01
5.732331e-01
5.732561e-01
5.732651e-01
5.732586e-01
5.732371e-01
5.732058e-01
5.731693e-01
5.731289e-01
5.731711e-01
5.725664e-01
0.000000e+00
1.000000e+00
5.733137e-01
5.729461e-01
5.730342e-01
5.730368e-01
5.730365e-01
5.730357e-01
5.730348e-01
5.730339e-01
5.730330e-01
5.730314e-01
5.730292e-01
5.730271e-01
5.730234e-01
5.731749e-01
5.714895e-01
0.000000e+00
1.000000e+00
5.731573e-01
5.729701e-01
5.730026e-01
5.729956e-01
5.729883e-01
5.729820e-01
5.729777e-01
5.729763e-01
5.729777e-01
5.729812e-01
5.729864e-01
5.729926e-01
5.729991e-01
5.734054e-01
5.701341e-01
0.000000e+00
1.000000e+00
5.733934e-01
5.730177e-01
5.730591e-01
5.730722e-01
5.730838e-01
5.730931e-01
5.730993e-01
5.731009e-01
5.730973e-01
5.730895e-01
5.730784e-01
5.730656e-01
5.730577e-01
5.737919e-01
5.699799e-01
0.000000e+00
1.000000e+00
5.738981e-01
5.730241e-01
5.731751e-01
5.732304e-01
5.732833e-01
5.733293e-01
5.733608e-01
5.733723e-01
5.733614e-01
5.733300e-01
5.732810e-01
5.732164e-01
5.731840e-01
5.742060e-01
5.704250e-01
0.000000e+00
1.000000e+00
5.738291e-01
5.730912e-01
5.733428e-01
5.734630e-01
5.735737e-01
5.736673e-01
5.737300e-01
5.737509e-01
5.737271e-01
5.736600e-01
5.735577e-01
5.734309e-01
5.733728e-01
5.742274e-01
5.696815e-01
0.000000e+00
1.000000e+00
5.736914e-01
5.732251e-01
5.735365e-01
5.737264e-01
5.739072e-01
5.740605e-01
5.741677e-01
5.742116e-01
5.741829e-01
5.740811e-01
5.739295e-01
5.737497e-01
5.735712e-01
5.736509e-01
5.705152e-01
0.000000e+00
1.000000e+00
5.740896e-01
5.748515e-01
5.757846e-01
5.766623e-01
5.776023e-01
5.785914e-01
5.794828e-01
5.800612e-01
5.801130e-01
5.797839e-01
5.791069e-01
5.780391e-01
5.767068e-01
5.752129e-01
5.734807e-01
0.000000e+00
1.000000e+00
5.740216e-01
5.748342e-01
5.757550e-01
5.765902e-01
5.774146e-01
5.782871e-01
5.791430e-01
5.797107e-01
5.796549e-01
5.793914e-01
5.788168e-01
5.777217e-01
5.763066e-01
5.749662e-01
5.732525e-01
0.000000e+00
1.000000e+00
5.739597e-01
5.746601e-01
5.755423e-01
5.763899e-01
5.771729e-01
5.778971e-01
5.786017e-01
5.791648e-01
5.790902e-01
5.789382e-01
5.782719e-01
5.770944e-01
5.758268e-01
5.747817e-01
5.731816e-01
0.000000e+00
1.000000e+00
5.738878e-01
5.744561e-01
5.752634e-01
5.760572e-01
5.768176e-01
5.774742e-01
5.779867e-01
5.783999e-01
5.785044e-01
5.783143e-01
5.775660e-01
5.765563e-01
5.755418e-01
5.746570e-01
5.731354e-01
0.000000e+00
1.000000e+00
5.738051e-01
5.742417e-01
5.749574e-01
5.756570e-01
5.763344e-01
5.769281e-01
5.773500e-01
5.776206e-01
5.777827e-01
5.774980e-01
5.768433e-01
5.760469e-01
5.752024e-01
5.744482e-01
5.730262e-01
0.000000e+00
1.000000e+00
5.737140e-01
5.740247e-01
5.746284e-01
5.752136e-01
5.757779e-01
5.762724e-01
5.766432e-01
5.768473e-01
5.768480e-01
5.766092e-01
5.761074e-01
5.754769e-01
5.747931e-01
5.742085e-01
5.728910e-01
0.000000e+00
1.000000e+00
5.736240e-01
5.738010e-01
5.742778e-01
5.747386e-01
5.751823e-01
5.755695e-01
5.758564e-01
5.759853e-01
5.758952e-01
5.757211e-01
5.753689e-01
5.748924e-01
5.743779e-01
5.739681e-01
5.727797e-01
0.000000e+00
1.000000e+00
5.735469e-01
5.735803e-01
5.739297e-01
5.742664e-01
5.745906e-01
5.748654e-01
5.750572e-01
5.751280e-01
5.750535e-01
5.749042e-01
5.746685e-01
5.743389e-01
5.739776e-01
5.737386e-01
5.726047e-01
0.000000e+00
1.000000e+00
5.734932e-01
5.734046e-01
5.736133e-01
5.738362e-01
5.740447e-01
5.742159e-01
5.743296e-01
5.743683e-01
5.743204e-01
5.742076e-01
5.740566e-01
5.738609e-01
5.736336e-01
5.735147e-01
5.725807e-01
0.000000e+00
1.000000e+00
5.736059e-01
5.732816e-01
5.733592e-01
5.734764e-01
5.735843e-01
5.736764e-01
5.737385e-01
5.737582e-01
5.737296e-01
5.736629e-01
5.735747e-01
5.734713e-01
5.733485e-01
5.733397e-01
5.723903e-01
0.000000e+00
1.000000e+00
5.735402e-01
5.730878e-01
5.731485e-01
5.731969e-01
5.732442e-01
5.732836e-01
5.733088e-01
5.733171e-01
5.733070e-01
5.732808e-01
5.732431e-01
5.731996e-01
5.731510e-01
5.731860e-01
5.725322e-01
0.000000e+00
1.000000e+00
5.731889e-01
5.730037e-01
5.730457e-01
5.730539e-01
5.730601e-01
5.730655e-01
5.730700e-01
5.730714e-01
5.730691e-01
5.730639e-01
5.730570e-01
5.730503e-01
5.730428e-01
5.732060e-01
5.715836e-01
0.000000e+00
1.000000e+00
5.729362e-01
5.730213e-01
5.730201e-01
5.730202e-01
5.730198e-01
5.730191e-01
5.730181e-01
5.730173e-01
5.730169e-01
5.730167e-01
5.730164e-01
5.730168e-01
5.730195e-01
5.735258e-01
5.700700e-01
0.000000e+00
1.000000e+00
5.732222e-01
5.730789e-01
5.730783e-01
5.730981e-01
5.731158e-01
5.731293e-01
5.731387e-01
5.731415e-01
5.731371e-01
5.731258e-01
5.731088e-01
5.730881e-01
5.730814e-01
5.739983e-01
5.696709e-01
0.000000e+00
1.000000e+00
5.739870e-01
5.730823e-01
5.731900e-01
5.732482e-01
5.733074e-01
5.733587e-01
5.733925e-01
5.734043e-01
5.733911e-01
5.733556e-01
5.732987e-01
5.732218e-01
5.732165e-01
5.744164e-01
5.701011e-01
0.000000e+00
1.000000e+00
5.739206e-01
5.731650e-01
5.733571e-01
5.734771e-01
5.735948e-01
5.736972e-01
5.737647e-01
5.737885e-01
5.737641e-01
5.736949e-01
5.735887e-01
5.734601e-01
5.733851e-01
5.742832e-01
5.693056e-01
0.000000e+00
1.000000e+00
5.737284e-01
5.732491e-01
5.735582e-01
5.737500e-01
5.739346e-01
5.740948e-01
5.742086e-01
5.742586e-01
5.742322e-01
5.741298e-01
5.739765e-01
5.737946e-01
5.736000e-01
5.735952e-01
5.709790e-01
0.000000e+00
1.000000e+00
5.740466e-01
5.748324e-01
5.757371e-01
5.766034e-01
5.775168e-01
5.784733e-01
5.793440e-01
5.799115e-01
5.799741e-01
5.796627e-01
5.789940e-01
5.779246e-01
5.766169e-01
5.751698e-01
5.734620e-01
0.000000e+00
1.000000e+00
5.739924e-01
5.748073e-01
5.757128e-01
5.765428e-01
5.773590e-01
5.782027e-01
5.790214e-01
5.795792e-01
5.795287e-01
5.792788e-01
5.786851e-01
5.775933e-01
5.762201e-01
5.749199e-01
5.732216e-01
0.000000e+00
1.000000e+00
5.739408e-01
5.746301e-01
5.755058e-01
5.763469e-01
5.771292e-01
5.778406e-01
5.785047e-01
5.790403e-01
5.789741e-01
5.788251e-01
5.781359e-01
5.769900e-01
5.757676e-01
5.747479e-01
5.731555e-01
0.000000e+00
1.000000e+00
5.738551e-01
5.744347e-01
5.752308e-01
5.760189e-01
5.767726e-01
5.774240e-01
5.779127e-01
5.782762e-01
5.784035e-01
5.781938e-01
5.774468e-01
5.764733e-01
5.754886e-01
5.746278e-01
5.731115e-01
0.000000e+00
1.000000e+00
5.737713e-01
5.742221e-01
5.749211e-01
5.756115e-01
5.762785e-01
5.768627e-01
5.772857e-01
5.775295e-01
5.776720e-01
5.773753e-01
5.767416e-01
5.759714e-01
5.751508e-01
5.744232e-01
5.729910e-01
0.000000e+00
1.000000e+00
5.736890e-01
5.740005e-01
5.745924e-01
5.751679e-01
5.757238e-01
5.762105e-01
5.765771e-01
5.767581e-01
5.767224e-01
5.764906e-01
5.760176e-01
5.754084e-01
5.747449e-01
5.741887e-01
5.728691e-01
0.000000e+00
1.000000e+00
5.736006e-01
5.737794e-01
5.742456e-01
5.746979e-01
5.751336e-01
5.755063e-01
5.757723e-01
5.758755e-01
5.757809e-01
5.755939e-01
5.752658e-01
5.748173e-01
5.743256e-01
5.739455e-01
5.727670e-01
0.000000e+00
1.000000e+00
5.735249e-01
5.735551e-01
5.738911e-01
5.742192e-01
5.745297e-01
5.747847e-01
5.749555e-01
5.750104e-01
5.749366e-01
5.747772e-01
5.745519e-01
5.742510e-01
5.739185e-01
5.737090e-01
5.725997e-01
0.000000e+00
1.000000e+00
5.735432e-01
5.733765e-01
5.735712e-01
5.737748e-01
5.739622e-01
5.741166e-01
5.742176e-01
5.742477e-01
5.741994e-01
5.740901e-01
5.739497e-01
5.737724e-01
5.735681e-01
5.734786e-01
5.725470e-01
0.000000e+00
1.000000e+00
5.734856e-01
5.732264e-01
5.732905e-01
5.733878e-01
5.734802e-01
5.735590e-01
5.736121e-01
5.736295e-01
5.736072e-01
5.735503e-01
5.734736e-01
5.733853e-01
5.732868e-01
5.732928e-01
5.723984e-01
0.000000e+00
1.000000e+00
5.731361e-01
5.730799e-01
5.730883e-01
5.731142e-01
5.731379e-01
5.731574e-01
5.731701e-01
5.731737e-01
5.731676e-01
5.731527e-01
5.731320e-01
5.731087e-01
5.730851e-01
5.731758e-01
5.724738e-01
0.000000e+00
1.000000e+00
5.729283e-01
5.730088e-01
5.729781e-01
5.729614e-01
5.729448e-01
5.729305e-01
5.729208e-01
5.729168e-01
5.729189e-01
5.729269e-01
5.729397e-01
5.729559e-01
5.729736e-01
5.732523e-01
5.715095e-01
0.000000e+00
1.000000e+00
5.728669e-01
5.729967e-01
5.729542e-01
5.729296e-01
5.729058e-01
5.728853e-01
5.728712e-01
5.728657e-01
5.728695e-01
5.728821e-01
5.729015e-01
5.729253e-01
5.729532e-01
5.735691e-01
5.700928e-01
0.000000e+00
1.000000e+00
5.729381e-01
5.730499e-01
5.730121e-01
5.730082e-01
5.730039e-01
5.729998e-01
5.729970e-01
5.729957e-01
5.729958e-01
5.729974e-01
5.730000e-01
5.730028e-01
5.730150e-01
5.738932e-01
5.696244e-01
0.000000e+00
1.000000e+00
5.734683e-01
5.731098e-01
5.731358e-01
5.731762e-01
5.732144e-01
5.732471e-01
5.732692e-01
5.732770e-01
5.732685e-01
5.732449e-01
5.732096e-01
5.731628e-01
5.731444e-01
5.741707e-01
5.700738e-01
0.000000e+00
1.000000e+00
5.738553e-01
5.731689e-01
5.733075e-01
5.734152e-01
5.735161e-01
5.736000e-01
5.736550e-01
5.736727e-01
5.736514e-01
5.735923e-01
5.735040e-01
5.733979e-01
5.733307e-01
5.741338e-01
5.693818e-01
0.000000e+00
1.000000e+00
5.737866e-01
5.732559e-01
5.735091e-01
5.736858e-01
5.738580e-01
5.740051e-01
5.741081e-01
5.741507e-01
5.741246e-01
5.740291e-01
5.738857e-01
5.737180e-01
5.735413e-01
5.735537e-01
5.714460e-01
0.000000e+00
1.000000e+00
5.739728e-01
5.747671e-01
5.756409e-01
5.764843e-01
5.773468e-01
5.782299e-01
5.790466e-01
5.795886e-01
5.796503e-01
5.793822e-01
5.787350e-01
5.776712e-01
5.763854e-01
5.750283e-01
5.734573e-01
0.000000e+00
1.000000e+00
5.739390e-01
5.747147e-01
5.755895e-01
5.764042e-01
5.772024e-01
5.779867e-01
5.787198e-01
5.792444e-01
5.792162e-01
5.789961e-01
5.783619e-01
5.772917e-01
5.760136e-01
5.748263e-01
5.731984e-01
0.000000e+00
1.000000e+00
5.738840e-01
5.745455e-01
5.753868e-01
5.762059e-01
5.769759e-01
5.776557e-01
5.782270e-01
5.786571e-01
5.787038e-01
5.785132e-01
5.777955e-01
5.767332e-01
5.756160e-01
5.746688e-01
5.731175e-01
0.000000e+00
1.000000e+00
5.737923e-01
5.743595e-01
5.751212e-01
5.758771e-01
5.766002e-01
5.772251e-01
5.776782e-01
5.779630e-01
5.781092e-01
5.778383e-01
5.771270e-01
5.762452e-01
5.753383e-01
5.745432e-01
5.730870e-01
0.000000e+00
1.000000e+00
5.737101e-01
5.741475e-01
5.748070e-01
5.754609e-01
5.760923e-01
5.766469e-01
5.770583e-01
5.772652e-01
5.773043e-01
5.770106e-01
5.764474e-01
5.757457e-01
5.749897e-01
5.743351e-01
5.729589e-01
0.000000e+00
1.000000e+00
5.736208e-01
5.739241e-01
5.744676e-01
5.750063e-01
5.755291e-01
5.759817e-01
5.763093e-01
5.764404e-01
5.763522e-01
5.761261e-01
5.757220e-01
5.751826e-01
5.745887e-01
5.741078e-01
5.728205e-01
0.000000e+00
1.000000e+00
5.735315e-01
5.736958e-01
5.741161e-01
5.745318e-01
5.749279e-01
5.752540e-01
5.754710e-01
5.755383e-01
5.754445e-01
5.752493e-01
5.749653e-01
5.745873e-01
5.741645e-01
5.738574e-01
5.727191e-01
0.000000e+00
1.000000e+00
5.735270e-01
5.734808e-01
5.737624e-01
5.740426e-01
5.742996e-01
5.745053e-01
5.746389e-01
5.746755e-01
5.746062e-01
5.744570e-01
5.742680e-01
5.740317e-01
5.737604e-01
5.736084e-01
5.725669e-01
0.000000e+00
1.000000e+00
5.734258e-01
5.733032e-01
5.734183e-01
5.735622e-01
5.736979e-01
5.738124e-01
5.738897e-01
5.739147e-01
5.738818e-01
5.737982e-01
5.736844e-01
5.735533e-01
5.734112e-01
5.733713e-01
5.725292e-01
0.000000e+00
1.000000e+00
5.730240e-01
5.731268e-01
5.731336e-01
5.731757e-01
5.732145e-01
5.732467e-01
5.732678e-01
5.732744e-01
5.732652e-01
5.732418e-01
5.732086e-01
5.731698e-01
5.731287e-01
5.731922e-01
5.723096e-01
0.000000e+00
1.000000e+00
5.728170e-01
5.729932e-01
5.729328e-01
5.728998e-01
5.728677e-01
5.728402e-01
5.728213e-01
5.728138e-01
5.728188e-01
5.728357e-01
5.728618e-01
5.728933e-01
5.729266e-01
5.730831e-01
5.722242e-01
0.000000e+00
1.000000e+00
5.727740e-01
5.729210e-01
5.728227e-01
5.727490e-01
5.726782e-01
5.726181e-01
5.725772e-01
5.725617e-01
5.725744e-01
5.726131e-01
5.726715e-01
5.727417e-01
5.728163e-01
5.731349e-01
5.713562e-01
0.000000e+00
1.000000e+00
5.727996e-01
5.729098e-01
5.728020e-01
5.727209e-01
5.726432e-01
5.725774e-01
5.725326e-01
5.725160e-01
5.725304e-01
5.725732e-01
5.726377e-01
5.727149e-01
5.727985e-01
5.733465e-01
5.704688e-01
0.000000e+00
1.000000e+00
5.728722e-01
5.729491e-01
5.728634e-01
5.728051e-01
5.727491e-01
5.727018e-01
5.726698e-01
5.726580e-01
5.726685e-01
5.726993e-01
5.727457e-01
5.728012e-01
5.728639e-01
5.735681e-01
5.700962e-01
0.000000e+00
1.000000e+00
5.729903e-01
5.730366e-01
5.729950e-01
5.729849e-01
5.729748e-01
5.729661e-01
5.729602e-01
5.729580e-01
5.729595e-01
5.729644e-01
5.729723e-01
5.729816e-01
5.729990e-01
5.737309e-01
5.700373e-01
0.000000e+00
1.000000e+00
5.734203e-01
5.731270e-01
5.731798e-01
5.732375e-01
5.732920e-01
5.733374e-01
5.733683e-01