<?xml version="1.0"?>
<VTKFile type="StructuredGrid" version="0.1">
  <StructuredGrid WholeExtent="0 16 0 16 0 16">
    <Piece Extent="0 16 0 16 0 16">
      <PointData Scalars="temperature" Vectors="velocity">
        <DataArray type="Float32" Name="temperature" format="ascii">
1.000000e+00
5.728213e-01
5.729997e-01
5.729035e-01
5.728602e-01
5.728185e-01
5.727836e-01
5.727605e-01
5.727532e-01
5.727633e-01
5.727889e-01
5.728254e-01
5.728661e-01
5.729216e-01
5.741291e-01
5.683665e-01
0.000000e+00
1.000000e+00
5.731455e-01
5.731469e-01
5.731517e-01
5.731989e-01
5.732432e-01
5.732803e-01
5.733054e-01
5.733145e-01
5.733060e-01
5.732814e-01
5.732446e-01
5.731960e-01
5.731869e-01
5.751286e-01
5.691407e-01
0.000000e+00
1.000000e+00
5.735465e-01
5.732684e-01
5.734434e-01
5.736003e-01
5.737477e-01
5.738709e-01
5.739520e-01
5.739777e-01
5.739443e-01
5.738570e-01
5.737308e-01
5.735751e-01
5.734865e-01
5.762028e-01
5.676196e-01
0.000000e+00
1.000000e+00
5.736743e-01
5.734333e-01
5.737733e-01
5.740489e-01
5.743051e-01
5.745210e-01
5.746669e-01
5.747161e-01
5.746572e-01
5.745053e-01
5.743021e-01
5.740537e-01
5.738325e-01
5.751409e-01
5.675663e-01
0.000000e+00
1.000000e+00
5.736956e-01
5.736174e-01
5.740843e-01
5.744650e-01
5.748296e-01
5.751521e-01
5.753914e-01
5.755053e-01
5.754546e-01
5.752841e-01
5.750070e-01
5.746280e-01
5.742039e-01
5.744856e-01
5.687636e-01
0.000000e+00
1.000000e+00
5.737888e-01
5.738142e-01
5.743977e-01
5.748942e-01
5.753796e-01
5.758109e-01
5.761279e-01
5.762824e-01
5.763022e-01
5.761749e-01
5.757596e-01
5.752158e-01
5.746141e-01
5.743713e-01
5.693896e-01
0.000000e+00
1.000000e+00
5.739119e-01
5.740286e-01
5.747318e-01
5.753444e-01
5.759391e-01
5.764594e-01
5.768444e-01
5.770789e-01
5.771990e-01
5.770484e-01
5.765174e-01
5.758001e-01
5.750170e-01
5.743944e-01
5.710210e-01
0.000000e+00
1.000000e+00
5.740035e-01
5.742484e-01
5.750379e-01
5.757396e-01
5.764193e-01
5.770243e-01
5.775135e-01
5.778838e-01
5.780285e-01
5.778369e-01
5.772572e-01
5.763755e-01
5.754103e-01
5.745498e-01
5.720103e-01
0.000000e+00
1.000000e+00
5.740751e-01
5.744494e-01
5.752947e-01
5.760602e-01
5.768015e-01
5.775008e-01
5.781317e-01
5.786288e-01
5.787139e-01
5.785318e-01
5.779328e-01
5.769304e-01
5.758077e-01
5.747321e-01
5.728548e-01
0.000000e+00
1.000000e+00
5.741423e-01
5.746118e-01
5.755021e-01
5.763189e-01
5.771138e-01
5.779064e-01
5.786547e-01
5.792070e-01
5.792736e-01
5.790775e-01
5.784789e-01
5.774110e-01
5.761463e-01
5.749178e-01
5.733971e-01
0.000000e+00
1.000000e+00
5.741981e-01
5.747092e-01
5.756488e-01
5.764916e-01
5.773371e-01
5.782138e-01
5.790426e-01
5.796103e-01
5.796765e-01
5.794430e-01
5.788445e-01
5.777630e-01
5.764063e-01
5.750646e-01
5.734119e-01
0.000000e+00
1.000000e+00
5.742377e-01
5.747576e-01
5.757345e-01
5.765757e-01
5.774594e-01
5.783983e-01
5.792746e-01
5.798475e-01
5.799129e-01
5.796368e-01
5.790194e-01
5.779501e-01
5.765737e-01
5.751427e-01
5.733596e-01
0.000000e+00
1.000000e+00
5.742031e-01
5.747774e-01
5.757458e-01
5.765990e-01
5.775005e-01
5.784623e-01
5.793507e-01
5.799172e-01
5.799765e-01
5.796782e-01
5.790360e-01
5.779661e-01
5.766127e-01
5.751731e-01
5.733684e-01
0.000000e+00
1.000000e+00
5.741507e-01
5.747656e-01
5.757112e-01
5.765726e-01
5.774622e-01
5.783987e-01
5.792713e-01
5.798258e-01
5.798746e-01
5.795741e-01
5.789129e-01
5.778321e-01
5.765129e-01
5.751252e-01
5.734650e-01
0.000000e+00
1.000000e+00
5.741005e-01
5.746925e-01
5.756373e-01
5.764971e-01
5.773632e-01
5.782362e-01
5.790505e-01
5.795806e-01
5.796138e-01
5.793255e-01
5.786479e-01
5.775675e-01
5.763124e-01
5.750315e-01
5.734826e-01
0.000000e+00
1.000000e+00
5.739909e-01
5.746124e-01
5.754919e-01
5.763420e-01
5.771861e-01
5.779971e-01
5.787169e-01
5.791996e-01
5.792298e-01
5.789462e-01
5.782306e-01
5.771803e-01
5.760137e-01
5.748936e-01
5.736264e-01
0.000000e+00
1.000000e+00
5.737498e-01
5.745042e-01
5.753000e-01
5.761128e-01
5.769159e-01
5.776617e-01
5.782824e-01
5.787018e-01
5.787633e-01
5.784550e-01
5.777313e-01
5.767626e-01
5.757162e-01
5.747451e-01
5.737778e-01
0.000000e+00
1.000000e+00
5.732039e-01
5.731005e-01
5.731259e-01
5.731640e-01
5.731995e-01
5.732293e-01
5.732498e-01
5.732578e-01
5.732521e-01
5.732333e-01
5.732040e-01
5.731658e-01
5.731472e-01
5.746601e-01
5.669633e-01
0.000000e+00
1.000000e+00
5.735939e-01
5.732128e-01
5.733771e-01
5.735100e-01
5.736353e-01
5.737401e-01
5.738101e-01
5.738343e-01
5.738083e-01
5.737350e-01
5.736241e-01
5.734826e-01
5.733941e-01
5.745099e-01
5.714603e-01
0.000000e+00
1.000000e+00
5.736814e-01
5.733644e-01
5.736750e-01
5.739234e-01
5.741565e-01
5.743462e-01
5.744660e-01
5.745007e-01
5.744421e-01
5.743000e-01
5.741063e-01
5.738821e-01
5.737032e-01
5.743250e-01
5.705019e-01
0.000000e+00
1.000000e+00
5.736974e-01
5.735790e-01
5.739995e-01
5.743634e-01
5.747079e-01
5.749962e-01
5.751893e-01
5.752592e-01
5.751747e-01
5.749828e-01
5.747328e-01
5.744087e-01
5.740506e-01
5.741281e-01
5.716141e-01
0.000000e+00
1.000000e+00
5.737944e-01
5.737903e-01
5.743305e-01
5.748052e-01
5.752579e-01
5.756498e-01
5.759329e-01
5.760653e-01
5.760054e-01
5.758140e-01
5.754536e-01
5.749603e-01
5.744221e-01
5.741710e-01
5.723194e-01
0.000000e+00
1.000000e+00
5.738987e-01
5.739932e-01
5.746576e-01
5.752451e-01
5.758113e-01
5.763092e-01
5.766725e-01
5.768603e-01
5.769368e-01
5.767171e-01
5.761793e-01
5.755129e-01
5.748043e-01
5.742861e-01
5.721884e-01
0.000000e+00
1.000000e+00
5.739862e-01
5.742126e-01
5.749822e-01
5.756777e-01
5.763447e-01
5.769315e-01
5.773754e-01
5.776751e-01
5.778168e-01
5.775898e-01
5.769252e-01
5.760624e-01
5.751703e-01
5.744277e-01
5.729566e-01
0.000000e+00
1.000000e+00
5.740668e-01
5.744235e-01
5.752781e-01
5.760573e-01
5.767933e-01
5.774660e-01
5.780515e-01
5.785163e-01
5.785838e-01
5.783720e-01
5.776797e-01
5.766232e-01
5.755495e-01
5.746435e-01
5.732659e-01
0.000000e+00
1.000000e+00
5.741334e-01
5.746082e-01
5.755261e-01
5.763602e-01
5.771479e-01
5.779293e-01
5.786763e-01
5.792466e-01
5.792537e-01
5.789940e-01
5.783336e-01
5.771666e-01
5.758953e-01
5.748241e-01
5.733771e-01
0.000000e+00
1.000000e+00
5.741900e-01
5.747507e-01
5.757175e-01
5.765891e-01
5.774450e-01
5.783406e-01
5.791848e-01
5.797739e-01
5.798079e-01
5.794801e-01
5.787989e-01
5.776100e-01
5.761756e-01
5.749705e-01
5.733981e-01
0.000000e+00
1.000000e+00
5.742409e-01
5.748326e-01
5.758436e-01
5.767464e-01
5.776801e-01
5.786519e-01
5.795281e-01
5.801140e-01
5.801784e-01
5.798144e-01
5.790774e-01
5.778929e-01
5.764062e-01
5.750640e-01
5.734362e-01
0.000000e+00
1.000000e+00
5.742530e-01
5.748545e-01
5.758939e-01
5.768191e-01
5.778041e-01
5.788116e-01
5.796962e-01
5.802765e-01
5.803597e-01
5.799728e-01
5.791907e-01
5.779967e-01
5.765322e-01
5.751175e-01
5.734476e-01
0.000000e+00
1.000000e+00
5.742185e-01
5.748470e-01
5.758875e-01
5.768180e-01
5.778064e-01
5.788141e-01
5.796937e-01
5.802641e-01
5.803624e-01
5.799809e-01
5.791804e-01
5.779601e-01
5.764889e-01
5.751037e-01
5.734512e-01
0.000000e+00
1.000000e+00
5.741696e-01
5.748403e-01
5.758573e-01
5.767710e-01
5.777115e-01
5.786758e-01
5.795328e-01
5.800817e-01
5.801780e-01
5.798286e-01
5.790219e-01
5.777769e-01
5.763365e-01
5.750095e-01
5.737200e-01
0.000000e+00
1.000000e+00
5.741079e-01
5.747906e-01
5.757617e-01
5.766551e-01
5.775432e-01
5.784280e-01
5.792253e-01
5.797411e-01
5.798299e-01
5.795158e-01
5.787071e-01
5.774768e-01
5.761286e-01
5.749143e-01
5.737777e-01
0.000000e+00
1.000000e+00
5.740058e-01
5.746530e-01
5.755551e-01
5.764333e-01
5.772848e-01
5.780914e-01
5.787953e-01
5.792604e-01
5.793503e-01
5.790541e-01
5.782512e-01
5.770980e-01
5.758579e-01
5.747582e-01
5.739106e-01
0.000000e+00
1.000000e+00
5.739205e-01
5.744988e-01
5.753224e-01
5.761476e-01
5.769491e-01
5.776748e-01
5.782658e-01
5.786567e-01
5.787462e-01
5.784458e-01
5.777226e-01
5.767511e-01
5.757019e-01
5.746933e-01
5.747321e-01
0.000000e+00
1.000000e+00
5.736009e-01
5.731327e-01
5.733151e-01
5.734239e-01
5.735263e-01
5.736126e-01
5.736709e-01
5.736922e-01
5.736728e-01
5.736153e-01
5.735274e-01
5.734150e-01
5.733304e-01
5.746306e-01
5.681506e-01
0.000000e+00
1.000000e+00
5.736672e-01
5.732879e-01
5.735712e-01
5.737806e-01
5.739748e-01
5.741325e-01
5.742327e-01
5.742635e-01
5.742189e-01
5.741025e-01
5.739349e-01
5.737360e-01
5.735777e-01
5.739181e-01
5.719193e-01
0.000000e+00
1.000000e+00
5.737024e-01
5.734818e-01
5.738648e-01
5.741846e-01
5.744846e-01
5.747289e-01
5.748867e-01
5.749409e-01
5.748698e-01
5.746956e-01
5.744623e-01
5.741858e-01
5.738968e-01
5.739481e-01
5.711212e-01
0.000000e+00
1.000000e+00
5.737880e-01
5.736922e-01
5.741856e-01
5.746191e-01
5.750320e-01
5.753799e-01
5.756174e-01
5.757174e-01
5.756214e-01
5.754131e-01
5.751089e-01
5.746993e-01
5.742458e-01
5.739733e-01
5.719815e-01
0.000000e+00
1.000000e+00
5.738617e-01
5.739189e-01
5.745227e-01
5.750704e-01
5.755954e-01
5.760502e-01
5.763780e-01
5.765351e-01
5.765117e-01
5.762595e-01
5.758220e-01
5.752438e-01
5.746269e-01
5.741805e-01
5.725338e-01
0.000000e+00
1.000000e+00
5.739527e-01
5.741434e-01
5.748642e-01
5.755283e-01
5.761641e-01
5.767166e-01
5.771112e-01
5.773020e-01
5.774404e-01
5.771857e-01
5.765648e-01
5.758150e-01
5.750414e-01
5.743998e-01
5.726484e-01
0.000000e+00
1.000000e+00
5.740371e-01
5.743687e-01
5.751936e-01
5.759655e-01
5.766930e-01
5.773244e-01
5.778055e-01
5.781532e-01
5.782634e-01
5.780668e-01
5.773437e-01
5.763865e-01
5.754307e-01
5.745898e-01
5.730907e-01
0.000000e+00
1.000000e+00
5.741240e-01
5.745796e-01
5.754987e-01
5.763471e-01
5.771272e-01
5.778401e-01
5.784911e-01
5.790238e-01
5.789788e-01
5.787838e-01
5.780978e-01
5.769562e-01
5.757989e-01
5.748116e-01
5.732645e-01
0.000000e+00
1.000000e+00
5.741944e-01
5.747690e-01
5.757632e-01
5.766553e-01
5.774861e-01
5.783238e-01
5.791344e-01
5.797122e-01
5.796516e-01
5.793149e-01
5.786894e-01
5.774930e-01
5.761231e-01
5.749746e-01
5.733718e-01
0.000000e+00
1.000000e+00
5.742458e-01
5.749108e-01
5.759486e-01
5.768745e-01
5.777967e-01
5.787564e-01
5.796286e-01
5.801972e-01
5.801983e-01
5.797276e-01
5.790283e-01
5.779009e-01
5.764197e-01
5.750980e-01
5.734429e-01
0.000000e+00
1.000000e+00
5.742810e-01
5.749746e-01
5.760514e-01
5.770401e-01
5.780542e-01
5.790580e-01
5.799208e-01
5.804816e-01
5.805556e-01
5.800578e-01
5.791907e-01
5.780467e-01
5.766444e-01
5.751920e-01
5.734646e-01
0.000000e+00
1.000000e+00
5.742774e-01
5.749721e-01
5.761095e-01
5.771421e-01
5.781774e-01
5.791740e-01
5.800216e-01
5.805735e-01
5.806668e-01
5.802051e-01
5.792756e-01
5.780463e-01
5.766818e-01
5.752384e-01
5.735257e-01
0.000000e+00
1.000000e+00
5.742424e-01
5.749593e-01
5.760795e-01
5.770855e-01
5.781099e-01
5.791023e-01
5.799455e-01
5.804799e-01
5.805615e-01
5.801309e-01
5.792561e-01
5.780358e-01
5.766087e-01
5.751951e-01
5.737009e-01
0.000000e+00
1.000000e+00
5.741867e-01
5.749538e-01
5.760084e-01
5.769515e-01
5.779087e-01
5.788671e-01
5.796988e-01
5.802096e-01
5.802736e-01
5.799049e-01
5.790986e-01
5.778591e-01
5.764251e-01
5.751100e-01
5.741474e-01
0.000000e+00
1.000000e+00
5.740983e-01
5.748761e-01
5.758626e-01
5.767592e-01
5.776304e-01
5.785012e-01
5.792891e-01
5.797776e-01
5.798366e-01
5.795311e-01
5.787266e-01
5.774884e-01
5.761638e-01
5.749692e-01
5.741071e-01
0.000000e+00
1.000000e+00
5.739871e-01
5.746693e-01
5.755639e-01
5.764302e-01
5.772601e-01
5.780452e-01
5.787464e-01
5.792048e-01
5.792855e-01
5.790097e-01
5.782061e-01
5.770542e-01
5.758571e-01
5.747829e-01
5.743512e-01
0.000000e+00
1.000000e+00
5.738870e-01
5.744623e-01
5.752681e-01
5.760728e-01
5.768529e-01
5.775543e-01
5.781305e-01
5.785097e-01
5.786041e-01
5.783525e-01
5.776579e-01
5.767127e-01
5.756896e-01
5.746829e-01
5.749277e-01
0.000000e+00
1.000000e+00
5.736953e-01
5.731666e-01
5.734553e-01
5.736181e-01
5.737722e-01
5.739014e-01
5.739884e-01
5.740203e-01
5.739912e-01
5.739032e-01
5.737712e-01
5.736097e-01
5.734746e-01
5.739327e-01
5.694470e-01
0.000000e+00
1.000000e+00
5.736782e-01
5.733917e-01
5.737185e-01
5.739775e-01
5.742192e-01
5.744170e-01
5.745455e-01
5.745894e-01
5.745362e-01
5.743923e-01
5.741925e-01
5.739597e-01
5.737225e-01
5.736141e-01
5.727981e-01
0.000000e+00
1.000000e+00
5.737502e-01
5.735892e-01
5.740134e-01
5.743822e-01
5.747275e-01
5.750115e-01
5.751993e-01
5.752721e-01
5.751923e-01
5.750016e-01
5.747393e-01
5.744111e-01
5.740482e-01
5.738812e-01
5.719903e-01
0.000000e+00
1.000000e+00
5.738287e-01
5.737830e-01
5.743228e-01
5.748067e-01
5.752663e-01
5.756553e-01
5.759264e-01
5.760519e-01
5.759646e-01
5.757465e-01
5.753986e-01
5.749271e-01
5.744077e-01
5.739985e-01
5.725750e-01
0.000000e+00
1.000000e+00
5.739143e-01
5.739926e-01
5.746507e-01
5.752498e-01
5.758242e-01
5.763219e-01
5.766788e-01
5.768539e-01
5.768750e-01
5.766074e-01
5.761110e-01
5.754776e-01
5.748013e-01
5.742317e-01
5.728495e-01
0.000000e+00
1.000000e+00
5.739884e-01
5.742248e-01
5.749871e-01
5.757011e-01
5.763840e-01
5.769795e-01
5.774016e-01
5.776272e-01
5.777710e-01
5.775269e-01
5.768687e-01
5.760580e-01
5.752145e-01
5.744625e-01
5.729934e-01
0.000000e+00
1.000000e+00
5.740772e-01
5.744512e-01
5.753162e-01
5.761312e-01
5.768975e-01
5.775655e-01
5.780899e-01
5.785115e-01
5.785602e-01
5.783814e-01
5.776590e-01
5.766393e-01
5.756025e-01
5.746769e-01
5.732304e-01
0.000000e+00
1.000000e+00
5.741637e-01
5.746595e-01
5.756221e-01
5.765103e-01
5.773277e-01
5.780806e-01
5.787823e-01
5.793451e-01
5.792822e-01
5.790424e-01
5.783843e-01
5.772111e-01
5.759597e-01
5.748787e-01
5.733248e-01
0.000000e+00
1.000000e+00
5.742182e-01
5.748458e-01
5.758751e-01
5.768051e-01
5.776798e-01
5.785677e-01
5.794166e-01
5.799962e-01
5.799407e-01
5.795331e-01
5.789000e-01
5.777295e-01
5.762885e-01
5.750336e-01
5.733999e-01
0.000000e+00
1.000000e+00
5.742722e-01
5.749678e-01
5.760392e-01
5.770084e-01
5.779899e-01
5.789949e-01
5.798791e-01
5.804390e-01
5.804541e-01
5.799382e-01
5.791653e-01
5.780572e-01
5.765880e-01
5.751482e-01
5.734018e-01
0.000000e+00
1.000000e+00
5.743005e-01
5.749989e-01
5.761227e-01
5.771688e-01
5.782368e-01
5.792664e-01
5.801250e-01
5.806717e-01
5.807493e-01
5.802530e-01
5.793187e-01
5.781314e-01
5.767481e-01
5.752405e-01
5.735079e-01
0.000000e+00
1.000000e+00
5.742719e-01
5.749729e-01
5.761689e-01
5.772605e-01
5.783291e-01
5.793363e-01
5.801752e-01
5.807012e-01
5.807817e-01
5.803209e-01
5.793605e-01
5.781140e-01
5.767386e-01
5.752999e-01
5.737978e-01
0.000000e+00
1.000000e+00
5.742075e-01
5.749527e-01
5.760870e-01
5.771386e-01
5.781916e-01
5.791954e-01
5.800339e-01
5.805366e-01
5.805747e-01
5.801365e-01
5.792731e-01
5.780897e-01
5.766649e-01
5.753247e-01
5.741190e-01
0.000000e+00
1.000000e+00
5.741420e-01
5.749383e-01
5.759773e-01
5.769284e-01
5.779020e-01
5.788761e-01
5.797120e-01
5.801928e-01
5.802049e-01
5.798403e-01
5.790788e-01
5.778768e-01
5.764360e-01
5.751927e-01
5.745790e-01
0.000000e+00
1.000000e+00
5.740529e-01
5.748400e-01
5.758039e-01
5.766831e-01
5.775427e-01
5.784152e-01
5.792179e-01
5.796886e-01
5.797144e-01
5.794322e-01
5.786655e-01
5.774486e-01
5.761300e-01
5.749652e-01
5.744653e-01
0.000000e+00
1.000000e+00
5.739368e-01
5.746225e-01
5.754828e-01
5.763228e-01
5.771241e-01
5.778848e-01
5.785877e-01
5.790443e-01
5.791168e-01
5.788711e-01
5.780933e-01
5.769719e-01
5.757997e-01
5.747352e-01
5.746308e-01
0.000000e+00
1.000000e+00
5.738345e-01
5.743986e-01
5.751766e-01
5.759465e-01
5.766919e-01
5.773559e-01
5.779064e-01
5.782742e-01
5.783739e-01
5.781584e-01
5.774951e-01
5.765888e-01
5.755993e-01
5.746098e-01
5.746547e-01
0.000000e+00
1.000000e+00
5.736914e-01
5.732251e-01
5.735365e-01
5.737264e-01
5.739072e-01
5.740605e-01
5.741677e-01
5.742116e-01
5.741829e-01
5.740811e-01
5.739295e-01
5.737497e-01
5.735712e-01
5.736509e-01
5.705152e-01
0.000000e+00
1.000000e+00
5.737382e-01
5.734449e-01
5.737970e-01
5.740801e-01
5.743467e-01
5.745691e-01
5.747190e-01
5.747770e-01
5.747250e-01
5.745694e-01
5.743526e-01
5.740935e-01
5.738097e-01
5.735453e-01
5.733424e-01
0.000000e+00
1.000000e+00
5.737759e-01
5.736468e-01
5.740969e-01
5.744889e-01
5.748564e-01
5.751612e-01
5.753682e-01
5.754554e-01
5.753730e-01
5.751732e-01
5.748929e-01
5.745309e-01
5.741282e-01
5.738622e-01
5.725986e-01
0.000000e+00
1.000000e+00
5.738078e-01
5.738453e-01
5.743990e-01
5.749094e-01
5.753925e-01
5.758000e-01
5.760861e-01
5.762223e-01
5.761491e-01
5.759237e-01
5.755522e-01
5.750509e-01
5.744998e-01
5.740302e-01
5.729288e-01
0.000000e+00
1.000000e+00
5.738972e-01
5.740490e-01
5.747093e-01
5.753370e-01
5.759361e-01
5.764546e-01
5.768239e-01
5.770088e-01
5.770449e-01
5.767899e-01
5.762655e-01
5.756025e-01
5.748884e-01
5.742651e-01
5.729541e-01
0.000000e+00
1.000000e+00
5.740024e-01
5.742602e-01
5.750352e-01
5.757724e-01
5.764748e-01
5.770883e-01
5.775270e-01
5.777923e-01
5.779083e-01
5.776898e-01
5.770210e-01
5.761741e-01
5.752899e-01
5.744967e-01
5.731124e-01
0.000000e+00
1.000000e+00
5.741013e-01
5.744751e-01
5.753622e-01
5.761926e-01
5.769740e-01
5.776602e-01
5.782053e-01
5.786524e-01
5.786894e-01
5.785037e-01
5.777940e-01
5.767501e-01
5.756751e-01
5.747176e-01
5.731918e-01
0.000000e+00
1.000000e+00
5.741647e-01
5.746915e-01
5.756611e-01
5.765600e-01
5.773943e-01
5.781665e-01
5.788823e-01
5.794520e-01
5.794154e-01
5.791330e-01
5.784769e-01
5.773020e-01
5.760251e-01
5.749050e-01
5.733116e-01
0.000000e+00
1.000000e+00
5.742168e-01
5.748662e-01
5.759014e-01
5.768448e-01
5.777411e-01
5.786395e-01
5.794875e-01
5.800647e-01
5.800478e-01
5.796353e-01
5.789545e-01
5.777723e-01
5.763327e-01
5.750460e-01
5.733938e-01
0.000000e+00
1.000000e+00
5.742707e-01
5.749725e-01
5.760566e-01
5.770391e-01
5.780299e-01
5.790362e-01
5.799171e-01
5.804676e-01
5.804808e-01
5.800297e-01
5.792410e-01
5.780822e-01
5.766012e-01
5.751480e-01
5.735275e-01
0.000000e+00
1.000000e+00
5.742842e-01
5.750040e-01
5.761308e-01
5.771650e-01
5.782282e-01
5.792681e-01
5.801330e-01
5.806588e-01
5.806881e-01
5.802216e-01
5.793550e-01
5.781772e-01
5.767456e-01
5.752575e-01
5.738821e-01
0.000000e+00
1.000000e+00
5.742455e-01
5.749718e-01
5.761147e-01
5.771703e-01
5.782457e-01
5.792806e-01
5.801378e-01
5.806415e-01
5.806738e-01
5.802174e-01
5.793494e-01
5.781547e-01
5.767256e-01
5.753768e-01
5.742315e-01
0.000000e+00
1.000000e+00
5.741848e-01
5.749457e-01
5.760296e-01
5.770338e-01
5.780695e-01
5.790879e-01
5.799415e-01
5.804230e-01
5.804323e-01
5.800240e-01
5.792373e-01
5.780590e-01
5.766058e-01
5.753925e-01
5.745356e-01
0.000000e+00
1.000000e+00
5.740996e-01
5.748994e-01
5.759099e-01
5.768278e-01
5.777585e-01
5.787153e-01
5.795604e-01
5.800233e-01
5.800141e-01
5.796932e-01
5.789692e-01
5.777630e-01
5.763435e-01
5.751451e-01
5.748325e-01
0.000000e+00
1.000000e+00
5.739979e-01
5.747748e-01
5.757045e-01
5.765594e-01
5.773820e-01
5.782136e-01
5.790058e-01
5.794647e-01
5.794777e-01
5.792315e-01
5.784837e-01
5.772945e-01
5.760250e-01
5.748788e-01
5.743623e-01
0.000000e+00
1.000000e+00
5.738720e-01
5.745486e-01
5.753687e-01
5.761744e-01
5.769388e-01
5.776520e-01
5.783197e-01
5.787650e-01
5.788409e-01
5.786134e-01
5.778587e-01
5.767899e-01
5.756776e-01
5.746352e-01
5.741795e-01
0.000000e+00
1.000000e+00
5.737577e-01
5.743233e-01
5.750454e-01
5.757734e-01
5.764739e-01
5.770916e-01
5.775939e-01
5.779507e-01
5.780565e-01
5.778588e-01
5.772283e-01
5.763766e-01
5.754445e-01
5.744990e-01
5.736944e-01
0.000000e+00
1.000000e+00
5.737284e-01
5.732491e-01
5.735582e-01
5.737500e-01
5.739346e-01
5.740948e-01
5.742086e-01
5.742586e-01
5.742322e-01
5.741298e-01
5.739765e-01
5.737946e-01
5.736000e-01
5.735952e-01
5.709790e-01
0.000000e+00
1.000000e+00
5.737492e-01
5.734576e-01
5.738056e-01
5.740897e-01
5.743572e-01
5.745838e-01
5.747391e-01
5.748036e-01
5.747552e-01
5.745987e-01
5.743799e-01
5.741167e-01
5.738220e-01
5.735597e-01
5.731238e-01
0.000000e+00
1.000000e+00
5.737868e-01
5.736573e-01
5.741016e-01
5.744929e-01
5.748579e-01
5.751626e-01
5.753717e-01
5.754623e-01
5.753802e-01
5.751786e-01
5.748992e-01
5.745375e-01
5.741308e-01
5.738505e-01
5.725825e-01
0.000000e+00
1.000000e+00
5.738125e-01
5.738441e-01
5.743958e-01
5.749019e-01
5.753801e-01
5.757830e-01
5.760672e-01
5.762054e-01
5.761290e-01
5.759094e-01
5.755440e-01
5.750457e-01
5.744961e-01
5.740265e-01
5.729218e-01
0.000000e+00
1.000000e+00
5.738876e-01
5.740393e-01
5.746953e-01
5.753145e-01
5.759060e-01
5.764173e-01
5.767831e-01
5.769630e-01
5.770097e-01
5.767572e-01
5.762398e-01
5.755818e-01
5.748716e-01
5.742554e-01
5.729029e-01
0.000000e+00
1.000000e+00
5.739697e-01
5.742497e-01
5.750086e-01
5.757359e-01
5.764285e-01
5.770346e-01
5.774673e-01
5.777087e-01
5.778501e-01
5.776240e-01
5.769670e-01
5.761364e-01
5.752615e-01
5.744740e-01
5.730879e-01
0.000000e+00
1.000000e+00
5.740569e-01
5.744584e-01
5.753210e-01
5.761409e-01
5.769143e-01
5.775950e-01
5.781225e-01
5.785434e-01
5.786123e-01
5.784077e-01
5.776992e-01
5.766885e-01
5.756363e-01
5.746859e-01
5.731654e-01
0.000000e+00
1.000000e+00
5.741386e-01
5.746535e-01
5.756085e-01
5.764964e-01
5.773304e-01
5.780920e-01
5.787682e-01
5.793131e-01
5.793166e-01
5.790449e-01
5.783425e-01
5.771972e-01
5.759691e-01
5.748597e-01
5.732728e-01
0.000000e+00
1.000000e+00
5.741789e-01
5.748268e-01
5.758410e-01
5.767764e-01
5.776691e-01
5.785383e-01
5.793380e-01
5.798933e-01
5.798884e-01
5.795621e-01
5.788460e-01
5.776315e-01
5.762473e-01
5.749928e-01
5.735287e-01
0.000000e+00
1.000000e+00
5.742130e-01
5.749370e-01
5.759979e-01
5.769665e-01
5.779203e-01
5.788829e-01
5.797403e-01
5.802663e-01
5.802419e-01
5.798748e-01
5.791663e-01
5.779646e-01
5.764743e-01
5.750953e-01
5.738778e-01
0.000000e+00
1.000000e+00
5.742216e-01
5.749798e-01
5.760477e-01
5.770197e-01
5.780214e-01
5.790457e-01
5.799306e-01
5.804324e-01
5.804027e-01
5.799888e-01
5.792618e-01
5.781064e-01
5.766161e-01
5.751919e-01
5.742418e-01
0.000000e+00
1.000000e+00
5.741767e-01
5.749558e-01
5.760161e-01
5.769868e-01
5.779931e-01
5.790184e-01
5.798999e-01
5.803853e-01
5.803747e-01
5.799829e-01
5.792363e-01
5.780603e-01
5.765910e-01
5.752684e-01
5.745196e-01
0.000000e+00
1.000000e+00
5.741159e-01
5.749123e-01
5.759398e-01
5.768775e-01
5.778283e-01
5.788025e-01
5.796634e-01
5.801296e-01
5.801295e-01
5.797964e-01
5.790616e-01
5.778540e-01
5.764157e-01
5.751715e-01
5.747085e-01
0.000000e+00
1.000000e+00
5.740276e-01
5.748188e-01
5.757860e-01
5.766707e-01
5.775337e-01
5.784118e-01
5.792369e-01
5.796903e-01
5.796901e-01
5.794256e-01
5.786981e-01
5.774955e-01
5.761609e-01
5.749226e-01
5.745319e-01
0.000000e+00
1.000000e+00
5.739138e-01
5.746725e-01
5.755475e-01
5.763735e-01
5.771555e-01
5.779089e-01
5.786445e-01
5.790961e-01
5.791244e-01
5.789038e-01
5.781504e-01
5.770225e-01
5.758498e-01
5.747370e-01
5.736840e-01
0.000000e+00
1.000000e+00
5.737862e-01
5.744502e-01
5.752112e-01
5.759715e-01
5.766964e-01
5.773490e-01
5.779395e-01
5.783619e-01
5.784606e-01
5.782293e-01
5.774987e-01
5.765172e-01
5.754970e-01
5.745407e-01
5.734132e-01
0.000000e+00
1.000000e+00
5.736679e-01
5.742222e-01
5.748818e-01
5.755520e-01
5.762002e-01
5.767636e-01
5.772054e-01
5.775294e-01
5.776600e-01
5.774515e-01
5.768629e-01
5.760874e-01
5.752357e-01
5.743796e-01
5.733391e-01
0.000000e+00
1.000000e+00
5.737866e-01
5.732559e-01
5.735091e-01
5.736858e-01
5.738580e-01
5.740051e-01
5.741081e-01
5.741507e-01
5.741246e-01
5.740291e-01
5.738857e-01
5.737180e-01
5.735413e-01
5.735537e-01
5.714460e-01
0.000000e+00
1.000000e+00
5.737184e-01
5.734323e-01
5.737506e-01
5.740099e-01
5.742554e-01
5.744628e-01
5.746039e-01
5.746588e-01
5.746111e-01
5.744619e-01
5.742579e-01
5.740201e-01
5.737577e-01
5.735362e-01
5.731359e-01
0.000000e+00
1.000000e+00
5.737507e-01
5.736123e-01
5.740240e-01
5.743854e-01
5.747221e-01
5.750023e-01
5.751951e-01
5.752752e-01
5.751970e-01
5.750032e-01
5.747465e-01
5.744193e-01
5.740492e-01
5.737995e-01
5.726193e-01
0.000000e+00
1.000000e+00
5.738013e-01
5.737782e-01
5.742984e-01
5.747680e-01
5.752123e-01
5.755876e-01
5.758547e-01
5.759827e-01
5.758921e-01
5.756892e-01
5.753614e-01
5.749029e-01
5.743922e-01
5.739622e-01
5.729145e-01
0.000000e+00
1.000000e+00
5.738687e-01
5.739587e-01
5.745850e-01
5.751565e-01
5.757068e-01
5.761855e-01
5.765362e-01
5.767192e-01
5.767254e-01
5.764921e-01
5.760210e-01
5.754113e-01
5.747496e-01
5.741786e-01
5.728942e-01
0.000000e+00
1.000000e+00
5.739136e-01
5.741726e-01
5.748879e-01
5.755633e-01
5.762137e-01
5.767863e-01
5.771989e-01
5.774075e-01
5.775538e-01
5.773004e-01
5.766915e-01
5.759310e-01
5.751185e-01
5.743835e-01
5.730592e-01
0.000000e+00
1.000000e+00
5.739833e-01
5.743760e-01
5.751898e-01
5.759667e-01
5.767081e-01
5.773615e-01
5.778425e-01
5.781547e-01
5.783059e-01
5.780553e-01
5.773599e-01
5.764421e-01
5.754733e-01
5.745786e-01
5.731343e-01
0.000000e+00
1.000000e+00
5.740650e-01
5.745572e-01
5.754671e-01
5.763228e-01
5.771352e-01
5.778603e-01
5.784471e-01
5.788967e-01
5.789582e-01
5.787231e-01
5.779739e-01
5.769072e-01
5.757861e-01
5.747385e-01
5.733942e-01
0.000000e+00
1.000000e+00
5.741032e-01
5.747176e-01
5.756851e-01
5.765934e-01
5.774569e-01
5.782617e-01
5.789695e-01
5.794664e-01
5.794508e-01
5.792335e-01
5.785072e-01
5.773171e-01
5.760441e-01
5.748719e-01
5.738702e-01
0.000000e+00
1.000000e+00
5.741299e-01
5.748339e-01
5.758410e-01
5.767685e-01
5.776517e-01
5.785244e-01
5.793344e-01
5.798288e-01
5.797720e-01
5.795156e-01
5.788590e-01
5.776275e-01
5.762285e-01
5.749769e-01
5.742047e-01
0.000000e+00
1.000000e+00
5.741204e-01
5.748712e-01
5.758790e-01
5.767978e-01
5.776926e-01
5.786202e-01
5.794985e-01
5.799844e-01
5.799230e-01
5.796313e-01
5.789872e-01
5.777733e-01
5.763263e-01
5.750451e-01
5.744494e-01
0.000000e+00
1.000000e+00
5.740735e-01
5.748577e-01
5.758458e-01
5.767586e-01
5.776462e-01
5.785684e-01
5.794465e-01
5.799232e-01
5.798939e-01
5.796079e-01
5.789207e-01
5.777063e-01
5.762925e-01
5.750409e-01
5.746462e-01
0.000000e+00
1.000000e+00
5.740043e-01
5.747981e-01
5.757464e-01
5.766433e-01
5.774995e-01
5.783597e-01
5.791858e-01
5.796495e-01
5.796609e-01
5.794007e-01
5.786674e-01
5.774677e-01
5.761432e-01
5.749003e-01
5.743686e-01
0.000000e+00
1.000000e+00
5.739161e-01
5.746875e-01
5.755723e-01
5.764252e-01
5.772329e-01
5.780035e-01
5.787434e-01
5.791927e-01
5.792303e-01
5.789968e-01
5.782428e-01
5.771088e-01
5.759103e-01
5.747530e-01
5.735453e-01
0.000000e+00
1.000000e+00
5.738078e-01
5.745330e-01
5.753320e-01
5.761164e-01
5.768618e-01
5.775346e-01
5.781539e-01
5.785841e-01
5.786631e-01
5.784266e-01
5.776773e-01
5.766608e-01
5.756100e-01
5.746395e-01
5.729880e-01
0.000000e+00
1.000000e+00
5.736785e-01
5.743285e-01
5.750119e-01
5.757140e-01
5.763907e-01
5.769867e-01
5.774743e-01
5.778624e-01
5.779790e-01
5.777190e-01
5.770393e-01
5.761736e-01
5.752634e-01
5.744372e-01
5.732362e-01
0.000000e+00
1.000000e+00
5.735655e-01
5.741006e-01
5.746873e-01
5.752944e-01
5.758813e-01
5.763926e-01
5.767695e-01
5.770291e-01
5.771841e-01
5.769524e-01
5.764239e-01
5.757400e-01
5.749840e-01
5.742428e-01
5.729770e-01
0.000000e+00
1.000000e+00
5.737797e-01
5.732207e-01
5.733942e-01
5.735329e-01
5.736665e-01
5.737783e-01
5.738534e-01
5.738811e-01
5.738556e-01
5.737794e-01
5.736656e-01
5.735321e-01
5.734001e-01
5.735495e-01
5.714797e-01
0.000000e+00
1.000000e+00
5.737477e-01
5.733555e-01
5.736075e-01
5.738149e-01
5.740130e-01
5.741812e-01
5.742922e-01
5.743321e-01
5.742891e-01
5.741659e-01
5.739953e-01
5.738076e-01
5.736128e-01
5.734795e-01
5.730142e-01
0.000000e+00
1.000000e+00
5.736800e-01
5.735012e-01
5.738570e-01
5.741600e-01
5.744397e-01
5.746719e-01
5.748292e-01
5.748883e-01
5.748215e-01
5.746501e-01
5.744324e-01
5.741719e-01
5.738768e-01
5.736949e-01
5.725448e-01
0.000000e+00
1.000000e+00
5.737104e-01
5.736597e-01
5.741116e-01
5.745174e-01
5.748995e-01
5.752192e-01
5.754434e-01
5.755414e-01
5.754505e-01
5.752597e-01
5.749926e-01
5.746172e-01
5.741874e-01
5.738449e-01
5.728642e-01
0.000000e+00
1.000000e+00
5.737785e-01
5.738312e-01
5.743773e-01
5.748756e-01
5.753595e-01
5.757811e-01
5.760917e-01
5.762475e-01
5.761843e-01
5.759824e-01
5.756067e-01
5.750877e-01
5.745183e-01
5.740436e-01
5.728238e-01
0.000000e+00
1.000000e+00
5.738290e-01
5.740276e-01
5.746680e-01
5.752638e-01
5.758443e-01
5.763579e-01
5.767384e-01
5.769445e-01
5.769760e-01
5.767255e-01
5.762127e-01
5.755615e-01
5.748574e-01
5.742211e-01
5.729367e-01
0.000000e+00
1.000000e+00
5.738858e-01
5.742308e-01
5.749712e-01
5.756705e-01
5.763441e-01
5.769369e-01
5.773697e-01
5.775963e-01
5.777289e-01
5.774342e-01
5.768029e-01
5.760228e-01
5.751857e-01
5.743905e-01
5.731365e-01
0.000000e+00
1.000000e+00
5.739384e-01
5.744104e-01
5.752375e-01
5.760260e-01
5.767795e-01
5.774413e-01
5.779288e-01
5.782094e-01
5.783663e-01
5.781090e-01
5.773869e-01
5.764578e-01
5.754838e-01
5.745399e-01
5.735929e-01
0.000000e+00
1.000000e+00
5.739756e-01
5.745600e-01
5.754509e-01
5.763048e-01
5.771059e-01
5.778096e-01
5.783807e-01
5.787557e-01
5.788221e-01
5.786417e-01
5.778903e-01
5.768253e-01
5.757265e-01
5.746770e-01
5.740744e-01
0.000000e+00
1.000000e+00
5.739994e-01
5.746584e-01
5.755722e-01
5.764391e-01
5.772469e-01
5.779927e-01
5.786847e-01
5.791372e-01
5.791187e-01
5.789708e-01
5.782566e-01
5.770997e-01
5.758926e-01
5.747784e-01
5.743184e-01
0.000000e+00
1.000000e+00
5.739855e-01
5.746978e-01
5.756145e-01
5.764811e-01
5.772895e-01
5.780591e-01
5.788251e-01
5.793075e-01
5.792756e-01
5.791049e-01
5.784123e-01
5.772301e-01
5.759727e-01
5.748294e-01
5.745092e-01
0.000000e+00
1.000000e+00
5.739427e-01
5.746874e-01
5.755846e-01
5.764464e-01
5.772501e-01
5.780101e-01
5.787710e-01
5.792542e-01
5.792581e-01
5.790571e-01
5.783398e-01
5.771805e-01
5.759484e-01
5.747791e-01
5.742617e-01
0.000000e+00
1.000000e+00
5.738662e-01
5.746287e-01
5.754786e-01
5.763236e-01
5.771130e-01
5.778370e-01
5.785260e-01
5.789878e-01
5.790477e-01
5.788175e-01
5.780668e-01
5.769700e-01
5.758181e-01
5.747007e-01
5.732784e-01
0.000000e+00
1.000000e+00
5.737759e-01
5.745187e-01
5.753015e-01
5.760969e-01
5.768550e-01
5.775311e-01
5.781205e-01
5.785390e-01
5.786447e-01
5.783838e-01
5.776383e-01
5.766429e-01
5.756012e-01
5.746373e-01
5.727258e-01
0.000000e+00
1.000000e+00
5.736740e-01
5.743662e-01
5.750723e-01
5.757929e-01
5.764916e-01
5.771045e-01
5.775861e-01
5.779418e-01
5.780888e-01
5.777957e-01
5.771050e-01
5.762330e-01
5.753179e-01
5.745098e-01
5.728853e-01
0.000000e+00
1.000000e+00
5.735562e-01
5.741790e-01
5.747802e-01
5.754130e-01
5.760285e-01
5.765707e-01
5.769709e-01