<?xml version="1.0"?>
<VTKFile type="StructuredGrid" version="0.1">
  <StructuredGrid WholeExtent="0 16 0 16 0 16">
    <Piece Extent="0 16 0 16 0 16">
      <PointData Scalars="temperature" Vectors="velocity">
        <DataArray type="Float32" Name="temperature" format="ascii">
1.000000e+00
5.730668e-01
5.730254e-01
5.730416e-01
5.730557e-01
5.730691e-01
5.730804e-01
5.730879e-01
5.730906e-01
5.730881e-01
5.730806e-01
5.730695e-01
5.730566e-01
5.730421e-01
5.730444e-01
5.728214e-01
0.000000e+00
1.000000e+00
5.730381e-01
5.730314e-01
5.730540e-01
5.730725e-01
5.730899e-01
5.731045e-01
5.731144e-01
5.731178e-01
5.731144e-01
5.731046e-01
5.730900e-01
5.730723e-01
5.730524e-01
5.730284e-01
5.729972e-01
0.000000e+00
1.000000e+00
5.731807e-01
5.732766e-01
5.734384e-01
5.735984e-01
5.737500e-01
5.738775e-01
5.739634e-01
5.739938e-01
5.739631e-01
5.738765e-01
5.737481e-01
5.735959e-01
5.734388e-01
5.732801e-01
5.732459e-01
0.000000e+00
1.000000e+00
5.734359e-01
5.737837e-01
5.742297e-01
5.746823e-01
5.751115e-01
5.754723e-01
5.757153e-01
5.758010e-01
5.757140e-01
5.754708e-01
5.751103e-01
5.746825e-01
5.742386e-01
5.737966e-01
5.733260e-01
0.000000e+00
1.000000e+00
5.738061e-01
5.745620e-01
5.754503e-01
5.763534e-01
5.772098e-01
5.779295e-01
5.784143e-01
5.785856e-01
5.784131e-01
5.779287e-01
5.772119e-01
5.763592e-01
5.754706e-01
5.745901e-01
5.736041e-01
0.000000e+00
1.000000e+00
5.743277e-01
5.756048e-01
5.770872e-01
5.785951e-01
5.800252e-01
5.812269e-01
5.820365e-01
5.823225e-01
5.820348e-01
5.812278e-01
5.800363e-01
5.786143e-01
5.771256e-01
5.756485e-01
5.740592e-01
0.000000e+00
1.000000e+00
5.749727e-01
5.768841e-01
5.790974e-01
5.813477e-01
5.834819e-01
5.852756e-01
5.864843e-01
5.869120e-01
5.864845e-01
5.852836e-01
5.835087e-01
5.813854e-01
5.791521e-01
5.769433e-01
5.746868e-01
0.000000e+00
1.000000e+00
5.757011e-01
5.783528e-01
5.814040e-01
5.845059e-01
5.874479e-01
5.899207e-01
5.915877e-01
5.921787e-01
5.915925e-01
5.899403e-01
5.874921e-01
5.845607e-01
5.814725e-01
5.784332e-01
5.753794e-01
0.000000e+00
1.000000e+00
5.764915e-01
5.799425e-01
5.839015e-01
5.879252e-01
5.917416e-01
5.949497e-01
5.971127e-01
5.978811e-01
5.971235e-01
5.949818e-01
5.918018e-01
5.879941e-01
5.839800e-01
5.800580e-01
5.760759e-01
0.000000e+00
1.000000e+00
5.773001e-01
5.815744e-01
5.864642e-01
5.914338e-01
5.961475e-01
6.001100e-01
6.027820e-01
6.037324e-01
6.027990e-01
6.001536e-01
5.962229e-01
5.915126e-01
5.865505e-01
5.817314e-01
5.766728e-01
0.000000e+00
1.000000e+00
5.780928e-01
5.831619e-01
5.889597e-01
5.948504e-01
6.004379e-01
6.051353e-01
6.083035e-01
6.094314e-01
6.083266e-01
6.051891e-01
6.005283e-01
5.949380e-01
5.890502e-01
5.833401e-01
5.773493e-01
0.000000e+00
1.000000e+00
5.788306e-01
5.846242e-01
5.912630e-01
5.980043e-01
6.043987e-01
6.097748e-01
6.134015e-01
6.146941e-01
6.134313e-01
6.098388e-01
6.045049e-01
5.981008e-01
5.913605e-01
5.848066e-01
5.781042e-01
0.000000e+00
1.000000e+00
5.794654e-01
5.858992e-01
5.932705e-01
6.007530e-01
6.078508e-01
6.138187e-01
6.178455e-01
6.192826e-01
6.178825e-01
6.138932e-01
6.079730e-01
6.008609e-01
5.933744e-01
5.860768e-01
5.787727e-01
0.000000e+00
1.000000e+00
5.799657e-01
5.869410e-01
5.949069e-01
6.029935e-01
6.106646e-01
6.171151e-01
6.214685e-01
6.230239e-01
6.215114e-01
6.172001e-01
6.108012e-01
6.031135e-01
5.950203e-01
5.871088e-01
5.793816e-01
0.000000e+00
1.000000e+00
5.803556e-01
5.877117e-01
5.961274e-01
6.046653e-01
6.127649e-01
6.195762e-01
6.241739e-01
6.258176e-01
6.242201e-01
6.196709e-01
6.129130e-01
6.047984e-01
5.962491e-01
5.878820e-01
5.798708e-01
0.000000e+00
1.000000e+00
5.806549e-01
5.881912e-01
5.969175e-01
6.057487e-01
6.141273e-01
6.211738e-01
6.259311e-01
6.276330e-01
6.259822e-01
6.212786e-01
6.142848e-01
6.058909e-01
5.970447e-01
5.883850e-01
5.801558e-01
0.000000e+00
1.000000e+00
5.808180e-01
5.883985e-01
5.972919e-01
6.062629e-01
6.147742e-01
6.219328e-01
6.267671e-01
6.284984e-01
6.268261e-01
6.220472e-01
6.149475e-01
6.064226e-01
5.974299e-01
5.886322e-01
5.801224e-01
0.000000e+00
1.000000e+00
5.729353e-01
5.728123e-01
5.727076e-01
5.725979e-01
5.724938e-01
5.724063e-01
5.723474e-01
5.723264e-01
5.723471e-01
5.724058e-01
5.724934e-01
5.725984e-01
5.727059e-01
5.729184e-01
5.723352e-01
0.000000e+00
1.000000e+00
5.730485e-01
5.730452e-01
5.730737e-01
5.730989e-01
5.731227e-01
5.731428e-01
5.731563e-01
5.731610e-01
5.731558e-01
5.731415e-01
5.731206e-01
5.730965e-01
5.730727e-01
5.730619e-01
5.728307e-01
0.000000e+00
1.000000e+00
5.733128e-01
5.735436e-01
5.738536e-01
5.741672e-01
5.744646e-01
5.747146e-01
5.748829e-01
5.749423e-01
5.748821e-01
5.747135e-01
5.744629e-01
5.741664e-01
5.738601e-01
5.735473e-01
5.732810e-01
0.000000e+00
1.000000e+00
5.736998e-01
5.743279e-01
5.750835e-01
5.758511e-01
5.765791e-01
5.771909e-01
5.776030e-01
5.777488e-01
5.776026e-01
5.771916e-01
5.765815e-01
5.758551e-01
5.750995e-01
5.743451e-01
5.736841e-01
0.000000e+00
1.000000e+00
5.742212e-01
5.753991e-01
5.767713e-01
5.781622e-01
5.794813e-01
5.805898e-01
5.813367e-01
5.816011e-01
5.813369e-01
5.805934e-01
5.794912e-01
5.781787e-01
5.768040e-01
5.754355e-01
5.741445e-01
0.000000e+00
1.000000e+00
5.748996e-01
5.767451e-01
5.788879e-01
5.810607e-01
5.831214e-01
5.848534e-01
5.860207e-01
5.864346e-01
5.860245e-01
5.848667e-01
5.831476e-01
5.810970e-01
5.789401e-01
5.768024e-01
5.747349e-01
0.000000e+00
1.000000e+00
5.756878e-01
5.783268e-01
5.813727e-01
5.844630e-01
5.873938e-01
5.898573e-01
5.915179e-01
5.921075e-01
5.915273e-01
5.898823e-01
5.874380e-01
5.845163e-01
5.814384e-01
5.784078e-01
5.754878e-01
0.000000e+00
1.000000e+00
5.765591e-01
5.800754e-01
5.841218e-01
5.882268e-01
5.921202e-01
5.953931e-01
5.976000e-01
5.983847e-01
5.976169e-01
5.954311e-01
5.921834e-01
5.882949e-01
5.841994e-01
5.801957e-01
5.762611e-01
0.000000e+00
1.000000e+00
5.774835e-01
5.819056e-01
5.870021e-01
5.921702e-01
5.970723e-01
6.011934e-01
6.039728e-01
6.049627e-01
6.039975e-01
6.012436e-01
5.971540e-01
5.922515e-01
5.870873e-01
5.820788e-01
5.769586e-01
0.000000e+00
1.000000e+00
5.783994e-01
5.837226e-01
5.898628e-01
5.960868e-01
6.019906e-01
6.069543e-01
6.103028e-01
6.114971e-01
6.103356e-01
6.070164e-01
6.020910e-01
5.961789e-01
5.899517e-01
5.839456e-01
5.775550e-01
0.000000e+00
1.000000e+00
5.792658e-01
5.854282e-01
5.925522e-01
5.997689e-01
6.066147e-01
6.123708e-01
6.162549e-01
6.176422e-01
6.162961e-01
6.124444e-01
6.067346e-01
5.998727e-01
5.926433e-01
5.856742e-01
5.782853e-01
0.000000e+00
1.000000e+00
5.800456e-01
5.869343e-01
5.949345e-01
6.030311e-01
6.107118e-01
6.171705e-01
6.215298e-01
6.230892e-01
6.215800e-01
6.172552e-01
6.108522e-01
6.031494e-01
5.950309e-01
5.871802e-01
5.790022e-01
0.000000e+00
1.000000e+00
5.806851e-01
5.881799e-01
5.969051e-01
6.057296e-01
6.141012e-01
6.211414e-01
6.258944e-01
6.275968e-01
6.259532e-01
6.212367e-01
6.142607e-01
6.058654e-01
5.970090e-01
5.884142e-01
5.797244e-01
0.000000e+00
1.000000e+00
5.811382e-01
5.891294e-01
5.983970e-01
6.077727e-01
6.166671e-01
6.241475e-01
6.291988e-01
6.310097e-01
6.292642e-01
6.242534e-01
6.168421e-01
6.079243e-01
5.985105e-01
5.893469e-01
5.803473e-01
0.000000e+00
1.000000e+00
5.814754e-01
5.897390e-01
5.993806e-01
6.091214e-01
6.183618e-01
6.261331e-01
6.313815e-01
6.332634e-01
6.314487e-01
6.262489e-01
6.185455e-01
6.092849e-01
5.995032e-01
5.899649e-01
5.807688e-01
0.000000e+00
1.000000e+00
5.816701e-01
5.900182e-01
5.998623e-01
6.097827e-01
6.191941e-01
6.271099e-01
6.324568e-01
6.343747e-01
6.325267e-01
6.272363e-01
6.193849e-01
6.099566e-01
5.999968e-01
5.902687e-01
5.809771e-01
0.000000e+00
1.000000e+00
5.816876e-01
5.900096e-01
5.998767e-01
6.098033e-01
6.192218e-01
6.271446e-01
6.324975e-01
6.344196e-01
6.325739e-01
6.272744e-01
6.194189e-01
6.099916e-01
6.000188e-01
5.902739e-01
5.810398e-01
0.000000e+00
1.000000e+00
5.727221e-01
5.723549e-01
5.719898e-01
5.716151e-01
5.712598e-01
5.709612e-01
5.707600e-01
5.706886e-01
5.707596e-01
5.709608e-01
5.712609e-01
5.716196e-01
5.719893e-01
5.724680e-01
5.724227e-01
0.000000e+00
1.000000e+00
5.729654e-01
5.728204e-01
5.727182e-01
5.726127e-01
5.725127e-01
5.724287e-01
5.723720e-01
5.723517e-01
5.723711e-01
5.724270e-01
5.725117e-01
5.726147e-01
5.727243e-01
5.728557e-01
5.727317e-01
0.000000e+00
1.000000e+00
5.733324e-01
5.735828e-01
5.739122e-01
5.742475e-01
5.745654e-01
5.748325e-01
5.750124e-01
5.750758e-01
5.750113e-01
5.748303e-01
5.745635e-01
5.742497e-01
5.739249e-01
5.735965e-01
5.730913e-01
0.000000e+00
1.000000e+00
5.738586e-01
5.746603e-01
5.756010e-01
5.765599e-01
5.774691e-01
5.782331e-01
5.787478e-01
5.789295e-01
5.787464e-01
5.782328e-01
5.774740e-01
5.765687e-01
5.756258e-01
5.746831e-01
5.737095e-01
0.000000e+00
1.000000e+00
5.745448e-01
5.760441e-01
5.777791e-01
5.795421e-01
5.812140e-01
5.826190e-01
5.835657e-01
5.839005e-01
5.835661e-01
5.826269e-01
5.812348e-01
5.795698e-01
5.778250e-01
5.760902e-01
5.743643e-01
0.000000e+00
1.000000e+00
5.753882e-01
5.777084e-01
5.804014e-01
5.831331e-01
5.857237e-01
5.879011e-01
5.893689e-01
5.898898e-01
5.893771e-01
5.879249e-01
5.857654e-01
5.831799e-01
5.804602e-01
5.777836e-01
5.751079e-01
0.000000e+00
1.000000e+00
5.763322e-01
5.796029e-01
5.833828e-01
5.872151e-01
5.908498e-01
5.939052e-01
5.959655e-01
5.966985e-01
5.959832e-01
5.939417e-01
5.909117e-01
5.872778e-01
5.834516e-01
5.797174e-01
5.759495e-01
0.000000e+00
1.000000e+00
5.773551e-01
5.816385e-01
5.865895e-01
5.916056e-01
5.963636e-01
6.003640e-01
6.030627e-01
6.040255e-01
6.030916e-01
6.004132e-01
5.964478e-01
5.916852e-01
5.866688e-01
5.818131e-01
5.767420e-01
0.000000e+00
1.000000e+00
5.784102e-01
5.837085e-01
5.898592e-01
5.960829e-01
6.019867e-01
6.069508e-01
6.103004e-01
6.114975e-01
6.103398e-01
6.070128e-01
6.020925e-01
5.961772e-01
5.899435e-01
5.839514e-01
5.775123e-01
0.000000e+00
1.000000e+00
5.794235e-01
5.857047e-01
5.930147e-01
6.004029e-01
6.074118e-01
6.133057e-01
6.172841e-01
6.187086e-01
6.173347e-01
6.133827e-01
6.075405e-01
6.005116e-01
5.930988e-01
5.859908e-01
5.782985e-01
0.000000e+00
1.000000e+00
5.803758e-01
5.875044e-01
5.958822e-01
6.043299e-01
6.123443e-01
6.190845e-01
6.236357e-01
6.252680e-01
6.236975e-01
6.191760e-01
6.124970e-01
6.044594e-01
5.959692e-01
5.878083e-01
5.790916e-01
0.000000e+00
1.000000e+00
5.812282e-01
5.890066e-01
5.983175e-01
6.076664e-01
6.165356e-01
6.239953e-01
6.290339e-01
6.308439e-01
6.291066e-01
6.241005e-01
6.167107e-01
6.078236e-01
5.984123e-01
5.893293e-01
5.799841e-01
0.000000e+00
1.000000e+00
5.818943e-01
5.901681e-01
6.002188e-01
6.102709e-01
6.198073e-01
6.278288e-01
6.332484e-01
6.351972e-01
6.333304e-01
6.279463e-01
6.200016e-01
6.104568e-01
6.003243e-01
5.905134e-01
5.807518e-01
0.000000e+00
1.000000e+00
5.822660e-01
5.910111e-01
6.015321e-01
6.120685e-01
6.220641e-01
6.304726e-01
6.361548e-01
6.381989e-01
6.362427e-01
6.306011e-01
6.222728e-01
6.122732e-01
6.016479e-01
5.913347e-01
5.813181e-01
0.000000e+00
1.000000e+00
5.825006e-01
5.914490e-01
6.022428e-01
6.130438e-01
6.232900e-01
6.319093e-01
6.377340e-01
6.398289e-01
6.378230e-01
6.320486e-01
6.235075e-01
6.132570e-01
6.023717e-01
5.917826e-01
5.816474e-01
0.000000e+00
1.000000e+00
5.825870e-01
5.915428e-01
6.023834e-01
6.132376e-01
6.235352e-01
6.321981e-01
6.380529e-01
6.401589e-01
6.381436e-01
6.323491e-01
6.237584e-01
6.134526e-01
6.025247e-01
5.918748e-01
5.817501e-01
0.000000e+00
1.000000e+00
5.824029e-01
5.913557e-01
6.020166e-01
6.127334e-01
6.229022e-01
6.314576e-01
6.372405e-01
6.393226e-01
6.373353e-01
6.316053e-01
6.231234e-01
6.129516e-01
6.021609e-01
5.916373e-01
5.816799e-01
0.000000e+00
1.000000e+00
5.723693e-01
5.716352e-01
5.708615e-01
5.700703e-01
5.693201e-01
5.686899e-01
5.682653e-01
5.681151e-01
5.682660e-01
5.686924e-01
5.693274e-01
5.700835e-01
5.708689e-01
5.716917e-01
5.722341e-01
0.000000e+00
1.000000e+00
5.727176e-01
5.723318e-01
5.719514e-01
5.715629e-01
5.711945e-01
5.708850e-01
5.706765e-01
5.706024e-01
5.706760e-01
5.708846e-01
5.711981e-01
5.715734e-01
5.719650e-01
5.723735e-01
5.724989e-01
0.000000e+00
1.000000e+00
5.732112e-01
5.733595e-01
5.735613e-01
5.737670e-01
5.739619e-01
5.741257e-01
5.742359e-01
5.742744e-01
5.742341e-01
5.741219e-01
5.739597e-01
5.737741e-01
5.735821e-01
5.733970e-01
5.729551e-01
0.000000e+00
1.000000e+00
5.738918e-01
5.747317e-01
5.757120e-01
5.767121e-01
5.776603e-01
5.784571e-01
5.789938e-01
5.791830e-01
5.789912e-01
5.784534e-01
5.776634e-01
5.767250e-01
5.757484e-01
5.747640e-01
5.736787e-01
0.000000e+00
1.000000e+00
5.747389e-01
5.764363e-01
5.783872e-01
5.803748e-01
5.822596e-01
5.838435e-01
5.849104e-01
5.852872e-01
5.849089e-01
5.838496e-01
5.822878e-01
5.804099e-01
5.784437e-01
5.764881e-01
5.744929e-01
0.000000e+00
1.000000e+00
5.757457e-01
5.784273e-01
5.815218e-01
5.846666e-01
5.876490e-01
5.901556e-01
5.918451e-01
5.924443e-01
5.918546e-01
5.901863e-01
5.877062e-01
5.847228e-01
5.815867e-01
5.785144e-01
5.753390e-01
0.000000e+00
1.000000e+00
5.768624e-01
5.806337e-01
5.850028e-01
5.894328e-01
5.936346e-01
5.971670e-01
5.995494e-01
6.003983e-01
5.995747e-01
5.972175e-01
5.937149e-01
5.895083e-01
5.850788e-01
5.807742e-01
5.762407e-01
0.000000e+00
1.000000e+00
5.780430e-01
5.829530e-01
5.886676e-01
5.944509e-01
5.999369e-01
6.045498e-01
6.076626e-01
6.087755e-01
6.077022e-01
6.046134e-01
6.000404e-01
5.945441e-01
5.887505e-01
5.831666e-01
5.771573e-01
0.000000e+00
1.000000e+00
5.792274e-01
5.852586e-01
5.923208e-01
5.994534e-01
6.062199e-01
6.119101e-01
6.157513e-01
6.171275e-01
6.158034e-01
6.119855e-01
6.063475e-01
5.995612e-01
5.924031e-01
5.855429e-01
5.780026e-01
0.000000e+00
1.000000e+00
5.803442e-01
5.874190e-01
5.957557e-01
6.041568e-01
6.121272e-01
6.188310e-01
6.233588e-01
6.249842e-01
6.234236e-01
6.189217e-01
6.122815e-01
6.042867e-01
5.958373e-01
5.877328e-01
5.789083e-01
0.000000e+00
1.000000e+00
5.813727e-01
5.892858e-01
5.987790e-01
6.082995e-01
6.173322e-01
6.249299e-01
6.300630e-01
6.319085e-01
6.301402e-01
6.250374e-01
6.175092e-01
6.084665e-01
5.988680e-01
5.896251e-01
5.799624e-01
0.000000e+00
1.000000e+00
5.822559e-01
5.907418e-01
6.012425e-01
6.116751e-01
6.215719e-01
6.298971e-01
6.355239e-01
6.375500e-01
6.356142e-01
6.300219e-01
6.217647e-01
6.118886e-01
6.013429e-01
5.911648e-01
5.808973e-01
0.000000e+00
1.000000e+00
5.828593e-01
5.917984e-01
6.030473e-01
6.141453e-01
6.246742e-01
6.335323e-01
6.395209e-01
6.416793e-01
6.396219e-01
6.336719e-01
6.248816e-01
6.144001e-01
6.031623e-01
5.922928e-01
5.816342e-01
0.000000e+00
1.000000e+00
5.831938e-01
5.925082e-01
6.041526e-01
6.156571e-01
6.265716e-01
6.357550e-01
6.419640e-01
6.442022e-01
6.420695e-01
6.359063e-01
6.267939e-01
6.159288e-01
6.042798e-01
5.929878e-01
5.821408e-01
0.000000e+00
1.000000e+00
5.833266e-01
5.927954e-01
6.045639e-01
6.162229e-01
6.272837e-01
6.365905e-01
6.428831e-01
6.451513e-01
6.429898e-01
6.367544e-01
6.275211e-01
6.164920e-01
6.047055e-01
5.932530e-01
5.823703e-01
0.000000e+00
1.000000e+00
5.832433e-01
5.927516e-01
6.043426e-01
6.159217e-01
6.269079e-01
6.361520e-01
6.424028e-01
6.446567e-01
6.425130e-01
6.363279e-01
6.271576e-01
6.161799e-01
6.044945e-01
5.931221e-01
5.823371e-01
0.000000e+00
1.000000e+00
5.828850e-01
5.923758e-01
6.035847e-01
6.148785e-01
6.255958e-01
6.346143e-01
6.407132e-01
6.429140e-01
6.408245e-01
6.347819e-01
6.258371e-01
6.151257e-01
6.037330e-01
5.926326e-01
5.821462e-01
0.000000e+00
1.000000e+00
5.718917e-01
5.706509e-01
5.693193e-01
5.679589e-01
5.666691e-01
5.655855e-01
5.648558e-01
5.645982e-01
5.648589e-01
5.655934e-01
5.666851e-01
5.679829e-01
5.693380e-01
5.706969e-01
5.717608e-01
0.000000e+00
1.000000e+00
5.723355e-01
5.715685e-01
5.707556e-01
5.699256e-01
5.691387e-01
5.684776e-01
5.680323e-01
5.678749e-01
5.680335e-01
5.684811e-01
5.691511e-01
5.699473e-01
5.707797e-01
5.716115e-01
5.721484e-01
0.000000e+00
1.000000e+00
5.729497e-01
5.728524e-01
5.727651e-01
5.726768e-01
5.725931e-01
5.725228e-01
5.724753e-01
5.724580e-01
5.724736e-01
5.725197e-01
5.725958e-01
5.726961e-01
5.727973e-01
5.728960e-01
5.727375e-01
0.000000e+00
1.000000e+00
5.737726e-01
5.745102e-01
5.753632e-01
5.762345e-01
5.770608e-01
5.777550e-01
5.782224e-01
5.783870e-01
5.782191e-01
5.777481e-01
5.770597e-01
5.762522e-01
5.754111e-01
5.745553e-01
5.735923e-01
0.000000e+00
1.000000e+00
5.747718e-01
5.765245e-01
5.785211e-01
5.805585e-01
5.824906e-01
5.841142e-01
5.852078e-01
5.855937e-01
5.852041e-01
5.841131e-01
5.825184e-01
5.806012e-01
5.785920e-01
5.765895e-01
5.745499e-01
0.000000e+00
1.000000e+00
5.759303e-01
5.788359e-01
5.821518e-01
5.855289e-01
5.887315e-01
5.914231e-01
5.932369e-01
5.938795e-01
5.932438e-01
5.914511e-01
5.888009e-01
5.855982e-01
5.822286e-01
5.789300e-01
5.755143e-01
0.000000e+00
1.000000e+00
5.772105e-01
5.813510e-01
5.861153e-01
5.909552e-01
5.955456e-01
5.994044e-01
6.020066e-01
6.029333e-01
6.020340e-01
5.994631e-01
5.956396e-01
5.910447e-01
5.861981e-01
5.814947e-01
5.765571e-01
0.000000e+00
1.000000e+00
5.785509e-01
5.839428e-01
5.902159e-01
5.965698e-01
6.025970e-01
6.076652e-01
6.110857e-01
6.123099e-01
6.111346e-01
6.077455e-01
6.027176e-01
5.966782e-01
5.903007e-01
5.841573e-01
5.775742e-01
0.000000e+00
1.000000e+00
5.798728e-01
5.864632e-01
5.942253e-01
6.020604e-01
6.094939e-01
6.157463e-01
6.199689e-01
6.214860e-01
6.200359e-01
6.158412e-01
6.096463e-01
6.021913e-01
5.943111e-01
5.867352e-01
5.785423e-01
0.000000e+00
1.000000e+00
5.810969e-01
5.887608e-01
5.979099e-01
6.071079e-01
6.158356e-01
6.231779e-01
6.281394e-01
6.299254e-01
6.282201e-01
6.232863e-01
6.160172e-01
6.072758e-01
5.980012e-01
5.890588e-01
5.797194e-01
0.000000e+00
1.000000e+00
5.821840e-01
5.906822e-01
6.010617e-01
6.114281e-01
6.212637e-01
6.295383e-01
6.351316e-01
6.371473e-01
6.352246e-01
6.296641e-01
6.214614e-01
6.116456e-01
6.011671e-01
5.910352e-01
5.808755e-01
0.000000e+00
1.000000e+00
5.830563e-01
5.921147e-01
6.035261e-01
6.148041e-01
6.255032e-01
6.345049e-01
6.405922e-01
6.427875e-01
6.406973e-01
6.346534e-01
6.257061e-01
6.150736e-01
6.036562e-01
5.925863e-01
5.817596e-01
0.000000e+00
1.000000e+00
5.835734e-01
5.931066e-01
6.052106e-01
6.171076e-01
6.283944e-01
6.378924e-01
6.443157e-01
6.466333e-01
6.444316e-01
6.380586e-01
6.286025e-01
6.174118e-01
6.053739e-01
5.936459e-01
5.824391e-01
0.000000e+00
1.000000e+00
5.838370e-01
5.936604e-01
6.060864e-01
6.183071e-01
6.299007e-01
6.396560e-01
6.462531e-01
6.486340e-01
6.463735e-01
6.398335e-01
6.301235e-01
6.186188e-01
6.062685e-01
5.942051e-01
5.828298e-01
0.000000e+00
1.000000e+00
5.838613e-01
5.938027e-01
6.061873e-01
6.184489e-01
6.300814e-01
6.398693e-01
6.464897e-01
6.488796e-01
6.466116e-01
6.400603e-01
6.303300e-01
6.187527e-01
6.063663e-01
5.942793e-01
5.828817e-01
0.000000e+00
1.000000e+00
5.836187e-01
5.935847e-01
6.056075e-01
6.176541e-01
6.290838e-01
6.387025e-01
6.452098e-01
6.475603e-01
6.453347e-01
6.389038e-01
6.293491e-01
6.179452e-01
6.057768e-01
5.939219e-01
5.827069e-01
0.000000e+00
1.000000e+00
5.831403e-01
5.929656e-01
6.044704e-01
6.160876e-01
6.271108e-01
6.363878e-01
6.426638e-01
6.449315e-01
6.427835e-01
6.365754e-01
6.273578e-01
6.163616e-01
6.046219e-01
5.931878e-01
5.824104e-01
0.000000e+00
1.000000e+00
5.712849e-01
5.694185e-01
5.673882e-01
5.653148e-01
5.633490e-01
5.616979e-01
5.605864e-01
5.601950e-01
5.605937e-01
5.617134e-01
5.633756e-01
5.653514e-01
5.674179e-01
5.694640e-01
5.711790e-01
0.000000e+00
1.000000e+00
5.718312e-01
5.705385e-01
5.691420e-01
5.677164e-01
5.663648e-01
5.652295e-01
5.644652e-01
5.641956e-01
5.644694e-01
5.652397e-01
5.663887e-01
5.677515e-01
5.691814e-01
5.705904e-01
5.716693e-01
0.000000e+00
1.000000e+00
5.725545e-01
5.720576e-01
5.715190e-01
5.709708e-01
5.704511e-01
5.700146e-01
5.697207e-01
5.696167e-01
5.697210e-01
5.700162e-01
5.704668e-01
5.710083e-01
5.715640e-01
5.721053e-01
5.723623e-01
0.000000e+00
1.000000e+00
5.734997e-01
5.739793e-01
5.745296e-01
5.750930e-01
5.756273e-01
5.760764e-01
5.763787e-01
5.764849e-01
5.763757e-01
5.760696e-01
5.756259e-01
5.751206e-01
5.745889e-01
5.740353e-01
5.733250e-01
0.000000e+00
1.000000e+00
5.746370e-01
5.762777e-01
5.781321e-01
5.800261e-01
5.818221e-01
5.833313e-01
5.843481e-01
5.847071e-01
5.843443e-01
5.833247e-01
5.818423e-01
5.800738e-01
5.782187e-01
5.763558e-01
5.744237e-01
0.000000e+00
1.000000e+00
5.759310e-01
5.788824e-01
5.822181e-01
5.856200e-01
5.888461e-01
5.915575e-01
5.933847e-01
5.940316e-01
5.933871e-01
5.915744e-01
5.889205e-01
5.857022e-01
5.823100e-01
5.789878e-01
5.755172e-01
0.000000e+00
1.000000e+00
5.773481e-01
5.816813e-01
5.866200e-01
5.916458e-01
5.964121e-01
6.004185e-01
6.031196e-01
6.040801e-01
6.031425e-01
6.004765e-01
5.965175e-01
5.917508e-01
5.867144e-01
5.818189e-01
5.766643e-01
0.000000e+00
1.000000e+00
5.788177e-01
5.845260e-01
5.911117e-01
5.977951e-01
6.041344e-01
6.094646e-01
6.130615e-01
6.143484e-01
6.131134e-01
6.095559e-01
6.042693e-01
5.979219e-01
5.912028e-01
5.847004e-01
5.778118e-01
0.000000e+00
1.000000e+00
5.802472e-01
5.872475e-01
5.954335e-01
6.037126e-01
6.115672e-01
6.181741e-01
6.226369e-01
6.242427e-01
6.227156e-01
6.182847e-01
6.117388e-01
6.038721e-01
5.955228e-01
5.874603e-01
5.790143e-01
0.000000e+00
1.000000e+00
5.815468e-01
5.896783e-01
5.993263e-01
6.090448e-01
6.182672e-01
6.260271e-01
6.312733e-01
6.331674e-01
6.313717e-01
6.261539e-01
6.184672e-01
6.092596e-01
5.994270e-01
5.899165e-01
5.803406e-01
0.000000e+00
1.000000e+00
5.826534e-01
5.916679e-01
6.025670e-01
6.134873e-01
6.238507e-01
6.325721e-01
6.384713e-01
6.406032e-01
6.385826e-01
6.327181e-01
6.240621e-01
6.137669e-01
6.026998e-01
5.919669e-01
5.815292e-01
0.000000e+00
1.000000e+00
5.834695e-01
5.931288e-01
6.049993e-01
6.168221e-01
6.280406e-01
6.374816e-01
6.438687e-01
6.461761e-01
6.439894e-01
6.376527e-01
6.282549e-01
6.171385e-01
6.051818e-01
5.935140e-01
5.823973e-01
0.000000e+00
1.000000e+00
5.839852e-01
5.940343e-01
6.065411e-01
6.189344e-01
6.306922e-01
6.405875e-01
6.472811e-01
6.496983e-01
6.474079e-01
6.407814e-01
6.309153e-01
6.192339e-01
6.067833e-01
5.944976e-01
5.829823e-01
0.000000e+00
1.000000e+00
5.842319e-01
5.943956e-01
6.071802e-01
6.198127e-01
6.317967e-01
6.418806e-01
6.487019e-01
6.511654e-01
6.488320e-01
6.420904e-01
6.320399e-01
6.200930e-01
6.074438e-01
5.949126e-01
5.832107e-01
0.000000e+00
1.000000e+00
5.841137e-01
5.943772e-01
6.069845e-01
6.195441e-01
6.314607e-01
6.414880e-01
6.482725e-01
6.507237e-01
6.484055e-01
6.417078e-01
6.317225e-01
6.198447e-01
6.072221e-01
5.947880e-01
5.831254e-01
0.000000e+00
1.000000e+00
5.837304e-01
5.939194e-01
6.060701e-01
6.182867e-01
6.298793e-01
6.396361e-01
6.462380e-01
6.486242e-01
6.463702e-01
6.398573e-01
6.301410e-01
6.185979e-01
6.062689e-01
5.942086e-01
5.828430e-01
0.000000e+00
1.000000e+00
5.831455e-01
5.930447e-01
6.045785e-01
6.162373e-01
6.272994e-01
6.366083e-01
6.429052e-01
6.451792e-01
6.430246e-01
6.368073e-01
6.275362e-01
6.165263e-01
6.047321e-01
5.932471e-01
5.824349e-01
0.000000e+00
1.000000e+00
5.705806e-01
5.679738e-01
5.651260e-01
5.622173e-01
5.594598e-01
5.571440e-01
5.555859e-01
5.550381e-01
5.555984e-01
5.571691e-01
5.594981e-01
5.622678e-01
5.651673e-01
5.680237e-01
5.704899e-01
0.000000e+00
1.000000e+00
5.712123e-01
5.692719e-01
5.671581e-01
5.650000e-01
5.629543e-01
5.612362e-01
5.600800e-01
5.596731e-01
5.600886e-01
5.612551e-01
5.629908e-01
5.650503e-01
5.672149e-01
5.693318e-01
5.710770e-01
0.000000e+00
1.000000e+00
5.720357e-01
5.709965e-01
5.698563e-01
5.686943e-01
5.675930e-01
5.666683e-01
5.660460e-01
5.658268e-01
5.660500e-01
5.666783e-01
5.676257e-01
5.687479e-01
5.699166e-01
5.710521e-01
5.718687e-01
0.000000e+00
1.000000e+00
5.730900e-01
5.731482e-01
5.732256e-01
5.733077e-01
5.733859e-01
5.734518e-01
5.734963e-01
5.735117e-01
5.734949e-01
5.734482e-01
5.733907e-01
5.733568e-01
5.732978e-01
5.732103e-01
5.729296e-01
0.000000e+00
1.000000e+00
5.743431e-01
5.756907e-01
5.772112e-01
5.787652e-01
5.802390e-01
5.814777e-01
5.823122e-01
5.826070e-01
5.823094e-01
5.814705e-01
5.802470e-01
5.788130e-01
5.773105e-01
5.757770e-01
5.741367e-01
0.000000e+00
1.000000e+00
5.757567e-01
5.785452e-01
5.816871e-01
5.848937e-01
5.879348e-01
5.904910e-01
5.922137e-01
5.928236e-01
5.922129e-01
5.904934e-01
5.879996e-01
5.849842e-01
5.817950e-01
5.786511e-01
5.753996e-01
0.000000e+00
1.000000e+00
5.772865e-01
5.815808e-01
5.864566e-01
5.914226e-01
5.961321e-01
6.000905e-01
6.027590e-01
6.037066e-01
6.027740e-01
6.001380e-01
5.962448e-01
5.915419e-01
5.865660e-01
5.816998e-01
5.767111e-01
0.000000e+00
1.000000e+00
5.788447e-01
5.846357e-01
5.912700e-01
5.980116e-01
6.044056e-01
6.097810e-01
6.134073e-01
6.147022e-01
6.134533e-01
6.098745e-01
6.045496e-01
5.981563e-01
5.913733e-01
5.847610e-01
5.780753e-01
0.000000e+00
1.000000e+00
5.803424e-01
5.875245e-01
5.958397e-01
6.042674e-01
6.122620e-01
6.189858e-01
6.235270e-01
6.251602e-01
6.236093e-01
6.191089e-01
6.124435e-01
6.044529e-01
5.959398e-01
5.876732e-01
5.794317e-01
0.000000e+00
1.000000e+00
5.816848e-01
5.900663e-01
5.998855e-01
6.098077e-01
6.192225e-01
6.271443e-01
6.325008e-01
6.344374e-01
6.326112e-01
6.272889e-01
6.194309e-01
6.100610e-01
6.000003e-01
5.902401e-01
5.807735e-01
0.000000e+00
1.000000e+00
5.827771e-01
5.921142e-01
6.031737e-01
6.143136e-01
6.248859e-01
6.337844e-01
6.398056e-01
6.419861e-01
6.399316e-01
6.339497e-01
6.250996e-01
6.146365e-01
6.033358e-01
5.923375e-01
5.819039e-01
0.000000e+00
1.000000e+00
5.835689e-01
5.935693e-01
6.055463e-01
6.175680e-01
6.289775e-01
6.385807e-01
6.450792e-01
6.474312e-01
6.452133e-01
6.387684e-01
6.291917e-01
6.179004e-01
6.057840e-01
5.938640e-01
5.826635e-01
0.000000e+00
1.000000e+00
5.840770e-01
5.943870e-01
6.069326e-01
6.194712e-01
6.313703e-01
6.413847e-01
6.481608e-01
6.506114e-01
6.482979e-01
6.415996e-01
6.316103e-01
6.197506e-01
6.072138e-01
5.947704e-01
5.831213e-01
0.000000e+00
1.000000e+00
5.842497e-01
5.946237e-01
6.073456e-01
6.200387e-01
6.320852e-01
6.422242e-01
6.490857e-01
6.515667e-01
6.492258e-01
6.424630e-01
6.323595e-01
6.202976e-01
6.076283e-01
5.950434e-01
5.832412e-01
0.000000e+00
1.000000e+00
5.840240e-01
5.944049e-01
6.068819e-01
6.193986e-01
6.312792e-01
6.412799e-01
6.480479e-01
6.504958e-01
6.481903e-01
6.415213e-01
6.315445e-01
6.196720e-01
6.071614e-01
5.947268e-01
5.830835e-01
0.000000e+00
1.000000e+00
5.835470e-01
5.937121e-01
6.056725e-01
6.177353e-01
6.291850e-01
6.388236e-01
6.453464e-01
6.477048e-01
6.454836e-01
6.390545e-01
6.294288e-01
6.180475e-01
6.059029e-01
5.939430e-01
5.827122e-01
0.000000e+00
1.000000e+00
5.829005e-01
5.926107e-01
6.038733e-01
6.152689e-01
6.260820e-01
6.351820e-01
6.413373e-01
6.435581e-01
6.414557e-01
6.353833e-01
6.263087e-01
6.155646e-01
6.040261e-01
5.927868e-01
5.822134e-01
0.000000e+00
1.000000e+00
5.698034e-01
5.663750e-01
5.626231e-01
5.587903e-01
5.551569e-01
5.521060e-01
5.500540e-01
5.493334e-01
5.500727e-01
5.521425e-01
5.552073e-01
5.588560e-01
5.626756e-01
5.664296e-01
5.697295e-01
0.000000e+00
1.000000e+00
5.705062e-01
5.678217e-01
5.648874e-01
5.618912e-01
5.590509e-01
5.566660e-01
5.550616e-01
5.544979e-01
5.550756e-01
5.566949e-01
5.591000e-01
5.619560e-01
5.649586e-01
5.678868e-01
5.703957e-01
0.000000e+00
1.000000e+00
5.714081e-01
5.697156e-01
5.678500e-01
5.659476e-01
5.641446e-01
5.626309e-01
5.616127e-01
5.612550e-01
5.616218e-01
5.626514e-01
5.641933e-01
5.660173e-01
5.679294e-01
5.697852e-01
5.712678e-01
0.000000e+00
1.000000e+00
5.725483e-01
5.720541e-01
5.715096e-01
5.709583e-01
5.704361e-01
5.699981e-01
5.697036e-01
5.696001e-01
5.697059e-01
5.700021e-01
5.704612e-01
5.710358e-01
5.715933e-01
5.721212e-01
5.724094e-01
0.000000e+00
1.000000e+00
5.738953e-01
5.747906e-01
5.757985e-01
5.768308e-01
5.778101e-01
5.786334e-01
5.791885e-01
5.793848e-01
5.791875e-01
5.786305e-01
5.778142e-01
5.768849e-01
5.759040e-01
5.748802e-01
5.736872e-01
0.000000e+00
1.000000e+00
5.754054e-01
5.778374e-01
5.805761e-01
5.833728e-01
5.860254e-01
5.882550e-01
5.897579e-01
5.902902e-01
5.897576e-01
5.882519e-01
5.860706e-01
5.834660e-01
5.807005e-01
5.779373e-01
5.751202e-01
0.000000e+00
1.000000e+00
5.770263e-01
5.810500e-01
5.856219e-01
5.902809e-01
5.946995e-01
5.984136e-01
6.009176e-01
6.018063e-01
6.009260e-01
5.984443e-01
5.948103e-01
5.904106e-01
5.857474e-01
5.811513e-01
5.766911e-01
0.000000e+00
1.000000e+00
5.786441e-01
5.842546e-01
5.906649e-01
5.971844e-01
6.033674e-01
6.085649e-01
6.120703e-01
6.133191e-01
6.121047e-01
6.086503e-01
6.035139e-01
5.973426e-01
5.907859e-01
5.843593e-01
5.782063e-01
0.000000e+00
1.000000e+00
5.801673e-01
5.872572e-01
5.954002e-01
6.036662e-01
6.115065e-01
6.180993e-01
6.225501e-01
6.241468e-01
6.226245e-01
6.182274e-01
6.116860e-01
6.038663e-01
5.955159e-01
5.873742e-01
5.795925e-01
0.000000e+00
1.000000e+00
5.815182e-01
5.898659e-01
5.995318e-01
6.093231e-01
6.186118e-01
6.264259e-01
6.317076e-01
6.336149e-01
6.318175e-01
6.265807e-01
6.188184e-01
6.095881e-01
5.996610e-01
5.900129e-01
5.809204e-01
0.000000e+00
1.000000e+00
5.826187e-01
5.919250e-01
6.028194e-01
6.138273e-01
6.242728e-01
6.330627e-01
6.390093e-01
6.411630e-01
6.391394e-01
6.332388e-01
6.244868e-01
6.141532e-01
6.029976e-01
5.921170e-01
5.819546e-01
0.000000e+00
1.000000e+00
5.833940e-01
5.933404e-01
6.051083e-01
6.169654e-01
6.282195e-01
6.376918e-01
6.441019e-01
6.464238e-01
6.442405e-01
6.378909e-01
6.284392e-01
6.172885e-01
6.053589e-01
5.935981e-01
5.825635e-01
0.000000e+00
1.000000e+00
5.838441e-01
5.940801e-01
6.063407e-01
6.186557e-01
6.303460e-01
6.401872e-01
6.468479e-01
6.492606e-01
6.469937e-01
6.404166e-01
6.305873e-01
6.189352e-01
6.066064e-01
5.944154e-01
5.829286e-01
0.000000e+00
1.000000e+00
5.839116e-01
5.942164e-01
6.065557e-01
6.189486e-01
6.307135e-01
6.406182e-01
6.473234e-01
6.497527e-01
6.474753e-01
6.408692e-01
6.309680e-01
6.192141e-01
6.068144e-01
5.945564e-01
5.829972e-01
0.000000e+00
1.000000e+00
5.836247e-01
5.938218e-01
6.058610e-01
6.179926e-01
6.295084e-01
6.392039e-01
6.457671e-01
6.481445e-01
6.459177e-01
6.394523e-01
6.297502e-01
6.182603e-01
6.061344e-01
5.940819e-01
5.827696e-01
0.000000e+00
1.000000e+00
5.830879e-01
5.929422e-01
6.044065e-01
6.159974e-01
6.269973e-01
6.362565e-01
6.425222e-01