<?xml version="1.0"?>
<VTKFile type="StructuredGrid" version="0.1">
  <StructuredGrid WholeExtent="0 16 0 16 0 16">
    <Piece Extent="0 16 0 16 0 16">
      <PointData Scalars="temperature" Vectors="velocity">
        <DataArray type="Float32" Name="temperature" format="ascii">
1.000000e+00
5.730767e-01
5.730040e-01
5.730086e-01
5.730103e-01
5.730118e-01
5.730129e-01
5.730138e-01
5.730141e-01
5.730138e-01
5.730127e-01
5.730114e-01
5.730092e-01
5.730075e-01
5.730193e-01
5.727516e-01
0.000000e+00
1.000000e+00
5.730243e-01
5.730048e-01
5.730136e-01
5.730159e-01
5.730174e-01
5.730186e-01
5.730197e-01
5.730202e-01
5.730196e-01
5.730181e-01
5.730160e-01
5.730139e-01
5.730119e-01
5.730055e-01
5.729107e-01
0.000000e+00
1.000000e+00
5.730305e-01
5.730339e-01
5.730516e-01
5.730669e-01
5.730819e-01
5.730941e-01
5.731024e-01
5.731051e-01
5.731015e-01
5.730921e-01
5.730795e-01
5.730662e-01
5.730511e-01
5.730268e-01
5.731121e-01
0.000000e+00
1.000000e+00
5.730516e-01
5.730839e-01
5.731286e-01
5.731717e-01
5.732148e-01
5.732511e-01
5.732754e-01
5.732837e-01
5.732747e-01
5.732508e-01
5.732154e-01
5.731733e-01
5.731289e-01
5.730911e-01
5.729903e-01
0.000000e+00
1.000000e+00
5.730917e-01
5.731605e-01
5.732508e-01
5.733418e-01
5.734283e-01
5.734998e-01
5.735477e-01
5.735638e-01
5.735469e-01
5.734995e-01
5.734285e-01
5.733420e-01
5.732514e-01
5.731786e-01
5.729111e-01
0.000000e+00
1.000000e+00
5.731468e-01
5.732677e-01
5.734159e-01
5.735647e-01
5.737065e-01
5.738266e-01
5.739079e-01
5.739365e-01
5.739103e-01
5.738326e-01
5.737136e-01
5.735695e-01
5.734174e-01
5.732864e-01
5.729203e-01
0.000000e+00
1.000000e+00
5.732154e-01
5.733903e-01
5.736110e-01
5.738317e-01
5.740424e-01
5.742221e-01
5.743459e-01
5.743923e-01
5.743536e-01
5.742388e-01
5.740625e-01
5.738499e-01
5.736230e-01
5.734102e-01
5.730009e-01
0.000000e+00
1.000000e+00
5.732869e-01
5.735331e-01
5.738372e-01
5.741433e-01
5.744347e-01
5.746812e-01
5.748507e-01
5.749165e-01
5.748646e-01
5.747079e-01
5.744663e-01
5.741733e-01
5.738595e-01
5.735710e-01
5.730548e-01
0.000000e+00
1.000000e+00
5.733670e-01
5.736880e-01
5.740824e-01
5.744811e-01
5.748594e-01
5.751792e-01
5.753996e-01
5.754872e-01
5.754233e-01
5.752214e-01
5.749090e-01
5.745266e-01
5.741166e-01
5.737522e-01
5.730796e-01
0.000000e+00
1.000000e+00
5.734491e-01
5.738422e-01
5.743247e-01
5.748129e-01
5.752770e-01
5.756715e-01
5.759471e-01
5.760600e-01
5.760058e-01
5.757631e-01
5.753766e-01
5.749005e-01
5.743879e-01
5.739329e-01
5.729821e-01
0.000000e+00
1.000000e+00
5.735290e-01
5.739897e-01
5.745562e-01
5.751284e-01
5.756739e-01
5.761376e-01
5.764554e-01
5.765899e-01
5.765704e-01
5.763028e-01
5.758385e-01
5.752683e-01
5.746543e-01
5.740949e-01
5.729610e-01
0.000000e+00
1.000000e+00
5.735995e-01
5.741300e-01
5.747706e-01
5.754207e-01
5.760422e-01
5.765695e-01
5.769337e-01
5.771063e-01
5.770765e-01
5.767983e-01
5.762677e-01
5.756106e-01
5.749032e-01
5.742449e-01
5.730773e-01
0.000000e+00
1.000000e+00
5.736626e-01
5.742537e-01
5.749587e-01
5.756790e-01
5.763664e-01
5.769508e-01
5.773643e-01
5.775691e-01
5.775117e-01
5.772194e-01
5.766385e-01
5.759096e-01
5.751213e-01
5.743743e-01
5.732089e-01
0.000000e+00
1.000000e+00
5.737127e-01
5.743556e-01
5.751146e-01
5.758958e-01
5.766420e-01
5.772788e-01
5.777328e-01
5.779522e-01
5.778803e-01
5.775504e-01
5.769239e-01
5.761411e-01
5.752941e-01
5.744749e-01
5.733872e-01
0.000000e+00
1.000000e+00
5.737502e-01
5.744343e-01
5.752350e-01
5.760640e-01
5.768566e-01
5.775348e-01
5.780161e-01
5.782395e-01
5.781606e-01
5.777883e-01
5.771230e-01
5.762995e-01
5.754127e-01
5.745498e-01
5.735392e-01
0.000000e+00
1.000000e+00
5.737761e-01
5.744871e-01
5.753217e-01
5.761802e-01
5.770030e-01
5.777097e-01
5.782088e-01
5.784327e-01
5.783486e-01
5.779326e-01
5.772351e-01
5.763821e-01
5.754686e-01
5.745870e-01
5.735998e-01
0.000000e+00
1.000000e+00
5.737813e-01
5.745029e-01
5.753510e-01
5.762173e-01
5.770545e-01
5.777798e-01
5.782954e-01
5.785295e-01
5.784307e-01
5.780058e-01
5.772944e-01
5.764290e-01
5.755073e-01
5.746093e-01
5.734578e-01
0.000000e+00
1.000000e+00
5.730321e-01
5.729866e-01
5.729767e-01
5.729659e-01
5.729554e-01
5.729466e-01
5.729407e-01
5.729388e-01
5.729408e-01
5.729466e-01
5.729551e-01
5.729655e-01
5.729768e-01
5.730984e-01
5.724783e-01
0.000000e+00
1.000000e+00
5.729938e-01
5.730116e-01
5.730174e-01
5.730199e-01
5.730215e-01
5.730229e-01
5.730234e-01
5.730232e-01
5.730219e-01
5.730209e-01
5.730188e-01
5.730168e-01
5.730133e-01
5.730203e-01
5.727383e-01
0.000000e+00
1.000000e+00
5.730296e-01
5.730604e-01
5.730874e-01
5.731195e-01
5.731502e-01
5.731757e-01
5.731929e-01
5.731987e-01
5.731921e-01
5.731745e-01
5.731496e-01
5.731246e-01
5.730952e-01
5.730601e-01
5.730422e-01
0.000000e+00
1.000000e+00
5.730777e-01
5.731395e-01
5.732137e-01
5.732927e-01
5.733659e-01
5.734267e-01
5.734668e-01
5.734802e-01
5.734645e-01
5.734239e-01
5.733655e-01
5.732913e-01
5.732147e-01
5.731448e-01
5.731360e-01
0.000000e+00
1.000000e+00
5.731303e-01
5.732510e-01
5.733845e-01
5.735238e-01
5.736556e-01
5.737653e-01
5.738382e-01
5.738630e-01
5.738355e-01
5.737627e-01
5.736566e-01
5.735243e-01
5.733831e-01
5.732644e-01
5.731294e-01
0.000000e+00
1.000000e+00
5.731980e-01
5.733831e-01
5.735951e-01
5.738107e-01
5.740154e-01
5.741878e-01
5.743041e-01
5.743451e-01
5.743042e-01
5.741945e-01
5.740268e-01
5.738191e-01
5.735983e-01
5.734096e-01
5.731139e-01
0.000000e+00
1.000000e+00
5.732772e-01
5.735371e-01
5.738378e-01
5.741427e-01
5.744322e-01
5.746778e-01
5.748467e-01
5.749101e-01
5.748557e-01
5.747033e-01
5.744606e-01
5.741633e-01
5.738493e-01
5.735753e-01
5.731857e-01
0.000000e+00
1.000000e+00
5.733653e-01
5.737084e-01
5.741068e-01
5.745113e-01
5.748959e-01
5.752219e-01
5.754462e-01
5.755352e-01
5.754686e-01
5.752642e-01
5.749383e-01
5.745441e-01
5.741265e-01
5.737786e-01
5.731948e-01
0.000000e+00
1.000000e+00
5.734595e-01
5.738878e-01
5.743876e-01
5.748961e-01
5.753804e-01
5.757918e-01
5.760749e-01
5.761930e-01
5.761221e-01
5.758561e-01
5.754461e-01
5.749476e-01
5.744181e-01
5.740053e-01
5.730781e-01
0.000000e+00
1.000000e+00
5.735497e-01
5.740648e-01
5.746604e-01
5.752675e-01
5.758477e-01
5.763430e-01
5.766855e-01
5.768378e-01
5.767777e-01
5.764543e-01
5.759569e-01
5.753517e-01
5.747088e-01
5.742160e-01
5.728588e-01
0.000000e+00
1.000000e+00
5.736350e-01
5.742292e-01
5.749144e-01
5.756129e-01
5.762803e-01
5.768508e-01
5.772474e-01
5.774300e-01
5.773831e-01
5.770281e-01
5.764413e-01
5.757318e-01
5.749812e-01
5.743781e-01
5.728670e-01
0.000000e+00
1.000000e+00
5.737119e-01
5.743750e-01
5.751398e-01
5.759162e-01
5.766559e-01
5.772906e-01
5.777499e-01
5.779872e-01
5.779028e-01
5.775370e-01
5.768741e-01
5.760694e-01
5.752225e-01
5.745087e-01
5.729453e-01
0.000000e+00
1.000000e+00
5.737742e-01
5.744973e-01
5.753283e-01
5.761712e-01
5.769713e-01
5.776628e-01
5.781774e-01
5.784433e-01
5.783353e-01
5.779501e-01
5.772305e-01
5.763471e-01
5.754204e-01
5.746090e-01
5.731134e-01
0.000000e+00
1.000000e+00
5.738204e-01
5.745926e-01
5.754744e-01
5.763687e-01
5.772176e-01
5.779538e-01
5.785058e-01
5.787849e-01
5.786694e-01
5.782577e-01
5.774933e-01
5.765523e-01
5.755679e-01
5.746828e-01
5.733392e-01
0.000000e+00
1.000000e+00
5.738561e-01
5.746583e-01
5.755764e-01
5.765046e-01
5.773865e-01
5.781528e-01
5.787236e-01
5.790084e-01
5.788951e-01
5.784560e-01
5.776597e-01
5.766788e-01
5.756575e-01
5.747323e-01
5.735213e-01
0.000000e+00
1.000000e+00
5.738754e-01
5.746871e-01
5.756241e-01
5.765728e-01
5.774762e-01
5.782601e-01
5.788371e-01
5.791174e-01
5.790124e-01
5.785601e-01
5.777555e-01
5.767587e-01
5.757014e-01
5.747400e-01
5.735820e-01
0.000000e+00
1.000000e+00
5.738696e-01
5.746611e-01
5.755896e-01
5.765313e-01
5.774429e-01
5.782428e-01
5.788337e-01
5.791191e-01
5.789941e-01
5.785651e-01
5.777970e-01
5.768348e-01
5.757981e-01
5.747745e-01
5.736762e-01
0.000000e+00
1.000000e+00
5.729953e-01
5.729416e-01
5.729035e-01
5.728663e-01
5.728309e-01
5.728012e-01
5.727816e-01
5.727751e-01
5.727820e-01
5.728020e-01
5.728320e-01
5.728675e-01
5.729050e-01
5.729951e-01
5.727616e-01
0.000000e+00
1.000000e+00
5.729655e-01
5.729928e-01
5.729843e-01
5.729737e-01
5.729629e-01
5.729534e-01
5.729466e-01
5.729429e-01
5.729433e-01
5.729488e-01
5.729570e-01
5.729671e-01
5.729783e-01
5.730074e-01
5.727800e-01
0.000000e+00
1.000000e+00
5.730288e-01
5.730619e-01
5.730915e-01
5.731264e-01
5.731593e-01
5.731868e-01
5.732054e-01
5.732121e-01
5.732058e-01
5.731876e-01
5.731605e-01
5.731302e-01
5.730976e-01
5.730950e-01
5.728603e-01
0.000000e+00
1.000000e+00
5.730925e-01
5.731735e-01
5.732682e-01
5.733649e-01
5.734556e-01
5.735311e-01
5.735808e-01
5.735970e-01
5.735771e-01
5.735251e-01
5.734522e-01
5.733637e-01
5.732662e-01
5.732050e-01
5.729977e-01
0.000000e+00
1.000000e+00
5.731587e-01
5.733152e-01
5.734841e-01
5.736601e-01
5.738267e-01
5.739659e-01
5.740589e-01
5.740914e-01
5.740572e-01
5.739656e-01
5.738321e-01
5.736666e-01
5.734870e-01
5.733477e-01
5.730317e-01
0.000000e+00
1.000000e+00
5.732423e-01
5.734791e-01
5.737441e-01
5.740146e-01
5.742716e-01
5.744883e-01
5.746355e-01
5.746888e-01
5.746371e-01
5.745006e-01
5.742915e-01
5.740307e-01
5.737532e-01
5.735286e-01
5.730468e-01
0.000000e+00
1.000000e+00
5.733355e-01
5.736642e-01
5.740359e-01
5.744151e-01
5.747749e-01
5.750796e-01
5.752894e-01
5.753677e-01
5.752984e-01
5.751130e-01
5.748135e-01
5.744443e-01
5.740547e-01
5.737398e-01
5.730778e-01
0.000000e+00
1.000000e+00
5.734385e-01
5.738640e-01
5.743489e-01
5.748429e-01
5.753129e-01
5.757126e-01
5.759897e-01
5.760993e-01
5.760207e-01
5.757742e-01
5.753751e-01
5.748904e-01
5.743794e-01
5.739861e-01
5.729889e-01
0.000000e+00
1.000000e+00
5.735431e-01
5.740673e-01
5.746653e-01
5.752747e-01
5.758562e-01
5.763533e-01
5.766980e-01
5.768453e-01
5.767710e-01
5.764458e-01
5.759492e-01
5.753475e-01
5.747117e-01
5.742341e-01
5.728704e-01
0.000000e+00
1.000000e+00
5.736418e-01
5.742661e-01
5.749714e-01
5.756916e-01
5.763792e-01
5.769663e-01
5.773690e-01
5.775478e-01
5.774869e-01
5.771060e-01
5.765105e-01
5.757907e-01
5.750325e-01
5.744467e-01
5.728114e-01
0.000000e+00
1.000000e+00
5.737332e-01
5.744455e-01
5.752499e-01
5.760672e-01
5.768424e-01
5.775035e-01
5.779718e-01
5.781984e-01
5.781320e-01
5.777192e-01
5.770281e-01
5.761951e-01
5.753236e-01
5.746044e-01
5.728056e-01
0.000000e+00
1.000000e+00
5.738135e-01
5.745999e-01
5.754903e-01
5.763842e-01
5.772283e-01
5.779557e-01
5.784991e-01
5.787712e-01
5.786527e-01
5.782369e-01
5.774729e-01
5.765392e-01
5.755706e-01
5.747214e-01
5.730176e-01
0.000000e+00
1.000000e+00
5.738766e-01
5.747237e-01
5.756809e-01
5.766325e-01
5.775295e-01
5.783173e-01
5.789197e-01
5.792100e-01
5.790610e-01
5.786304e-01
5.778210e-01
5.768075e-01
5.757614e-01
5.748102e-01
5.732906e-01
0.000000e+00
1.000000e+00
5.739169e-01
5.748119e-01
5.758139e-01
5.768047e-01
5.777407e-01
5.785711e-01
5.792072e-01
5.795091e-01
5.793529e-01
5.788985e-01
5.780576e-01
5.769894e-01
5.758917e-01
5.748776e-01
5.735001e-01
0.000000e+00
1.000000e+00
5.739392e-01
5.748630e-01
5.758873e-01
5.768978e-01
5.778543e-01
5.787070e-01
5.793561e-01
5.796673e-01
5.795271e-01
5.790484e-01
5.781870e-01
5.770876e-01
5.759597e-01
5.749173e-01
5.736373e-01
0.000000e+00
1.000000e+00
5.739479e-01
5.748597e-01
5.758801e-01
5.768924e-01
5.778609e-01
5.787247e-01
5.793779e-01
5.796928e-01
5.795765e-01
5.790954e-01
5.782367e-01
5.771335e-01
5.759771e-01
5.749104e-01
5.736866e-01
0.000000e+00
1.000000e+00
5.739330e-01
5.747845e-01
5.757719e-01
5.767716e-01
5.777471e-01
5.786195e-01
5.792817e-01
5.796039e-01
5.794664e-01
5.790168e-01
5.782236e-01
5.771897e-01
5.760639e-01
5.749340e-01
5.737418e-01
0.000000e+00
1.000000e+00
5.729534e-01
5.728701e-01
5.727913e-01
5.727126e-01
5.726378e-01
5.725751e-01
5.725331e-01
5.725183e-01
5.725332e-01
5.725755e-01
5.726378e-01
5.727124e-01
5.727913e-01
5.729000e-01
5.727927e-01
0.000000e+00
1.000000e+00
5.729360e-01
5.729445e-01
5.729067e-01
5.728683e-01
5.728310e-01
5.727992e-01
5.727773e-01
5.727678e-01
5.727742e-01
5.727950e-01
5.728253e-01
5.728618e-01
5.728999e-01
5.729613e-01
5.727319e-01
0.000000e+00
1.000000e+00
5.730056e-01
5.730413e-01
5.730581e-01
5.730775e-01
5.730982e-01
5.731156e-01
5.731277e-01
5.731318e-01
5.731289e-01
5.731181e-01
5.731021e-01
5.730837e-01
5.730634e-01
5.730857e-01
5.728192e-01
0.000000e+00
1.000000e+00
5.730993e-01
5.731799e-01
5.732798e-01
5.733789e-01
5.734732e-01
5.735522e-01
5.736049e-01
5.736226e-01
5.736029e-01
5.735489e-01
5.734715e-01
5.733794e-01
5.732775e-01
5.732272e-01
5.729624e-01
0.000000e+00
1.000000e+00
5.731741e-01
5.733523e-01
5.735440e-01
5.737404e-01
5.739281e-01
5.740860e-01
5.741921e-01
5.742300e-01
5.741919e-01
5.740887e-01
5.739374e-01
5.737509e-01
5.735488e-01
5.733975e-01
5.730062e-01
0.000000e+00
1.000000e+00
5.732742e-01
5.735490e-01
5.738538e-01
5.741654e-01
5.744612e-01
5.747110e-01
5.748812e-01
5.749440e-01
5.748832e-01
5.747278e-01
5.744878e-01
5.741875e-01
5.738670e-01
5.736225e-01
5.729902e-01
0.000000e+00
1.000000e+00
5.733842e-01
5.737657e-01
5.741933e-01
5.746312e-01
5.750476e-01
5.754008e-01
5.756450e-01
5.757385e-01
5.756576e-01
5.754478e-01
5.751016e-01
5.746740e-01
5.742210e-01
5.738739e-01
5.729461e-01
0.000000e+00
1.000000e+00
5.735011e-01
5.739928e-01
5.745488e-01
5.751172e-01
5.756588e-01
5.761209e-01
5.764432e-01
5.765743e-01
5.764937e-01
5.762069e-01
5.757457e-01
5.751863e-01
5.745934e-01
5.741421e-01
5.728632e-01
0.000000e+00
1.000000e+00
5.736173e-01
5.742198e-01
5.749016e-01
5.755979e-01
5.762629e-01
5.768322e-01
5.772268e-01
5.774015e-01
5.773381e-01
5.769625e-01
5.763902e-01
5.756984e-01
5.749645e-01
5.743998e-01
5.727046e-01
0.000000e+00
1.000000e+00
5.737249e-01
5.744355e-01
5.752345e-01
5.760506e-01
5.768285e-01
5.774934e-01
5.779541e-01
5.781612e-01
5.781104e-01
5.776898e-01
5.770057e-01
5.761824e-01
5.753134e-01
5.746007e-01
5.726791e-01
0.000000e+00
1.000000e+00
5.738211e-01
5.746251e-01
5.755302e-01
5.764471e-01
5.773136e-01
5.780570e-01
5.786015e-01
5.788716e-01
5.787721e-01
5.783332e-01
5.775549e-01
5.766109e-01
5.756202e-01
5.747473e-01
5.728939e-01
0.000000e+00
1.000000e+00
5.739013e-01
5.747812e-01
5.757739e-01
5.767657e-01
5.777008e-01
5.785215e-01
5.791481e-01
5.794445e-01
5.793002e-01
5.788438e-01
5.780112e-01
5.769645e-01
5.758703e-01
5.748710e-01
5.731259e-01
0.000000e+00
1.000000e+00
5.739592e-01
5.748961e-01
5.759514e-01
5.769937e-01
5.779841e-01
5.788740e-01
5.795518e-01
5.798576e-01
5.796862e-01
5.792000e-01
5.783465e-01
5.772269e-01
5.760518e-01
5.749640e-01
5.733779e-01
0.000000e+00
1.000000e+00
5.739923e-01
5.749660e-01
5.760567e-01
5.771302e-01
5.781612e-01
5.790917e-01
5.797907e-01
5.801076e-01
5.799287e-01
5.794133e-01
5.785484e-01
5.773894e-01
5.761617e-01
5.750262e-01
5.735853e-01
0.000000e+00
1.000000e+00
5.740053e-01
5.749955e-01
5.760943e-01
5.771798e-01
5.782228e-01
5.791624e-01
5.798664e-01
5.801957e-01
5.800427e-01
5.795058e-01
5.786233e-01
5.774516e-01
5.761993e-01
5.750510e-01
5.737207e-01
0.000000e+00
1.000000e+00
5.739992e-01
5.749651e-01
5.760431e-01
5.771142e-01
5.781534e-01
5.790915e-01
5.797975e-01
5.801348e-01
5.800174e-01
5.794950e-01
5.786122e-01
5.774482e-01
5.761817e-01
5.750231e-01
5.737389e-01
0.000000e+00
1.000000e+00
5.739818e-01
5.748704e-01
5.758990e-01
5.769400e-01
5.779721e-01
5.789039e-01
5.796123e-01
5.799526e-01
5.798216e-01
5.793384e-01
5.785281e-01
5.774553e-01
5.762560e-01
5.750391e-01
5.737880e-01
0.000000e+00
1.000000e+00
5.729075e-01
5.727719e-01
5.726378e-01
5.725022e-01
5.723736e-01
5.722656e-01
5.721933e-01
5.721674e-01
5.721927e-01
5.722648e-01
5.723727e-01
5.725015e-01
5.726372e-01
5.727947e-01
5.727741e-01
0.000000e+00
1.000000e+00
5.728968e-01
5.728674e-01
5.727844e-01
5.727022e-01
5.726237e-01
5.725575e-01
5.725123e-01
5.724949e-01
5.725107e-01
5.725544e-01
5.726198e-01
5.726982e-01
5.727808e-01
5.728834e-01
5.727210e-01
0.000000e+00
1.000000e+00
5.729610e-01
5.729939e-01
5.729869e-01
5.729770e-01
5.729681e-01
5.729604e-01
5.729544e-01
5.729524e-01
5.729547e-01
5.729594e-01
5.729662e-01
5.729747e-01
5.729843e-01
5.730189e-01
5.727891e-01
0.000000e+00
1.000000e+00
5.730906e-01
5.731541e-01
5.732420e-01
5.733292e-01
5.734122e-01
5.734822e-01
5.735290e-01
5.735452e-01
5.735277e-01
5.734794e-01
5.734098e-01
5.733288e-01
5.732426e-01
5.731914e-01
5.729786e-01
0.000000e+00
1.000000e+00
5.731773e-01
5.733614e-01
5.735618e-01
5.737651e-01
5.739572e-01
5.741175e-01
5.742238e-01
5.742604e-01
5.742187e-01
5.741094e-01
5.739538e-01
5.737652e-01
5.735603e-01
5.734083e-01
5.730305e-01
0.000000e+00
1.000000e+00
5.732902e-01
5.735876e-01
5.739156e-01
5.742514e-01
5.745705e-01
5.748388e-01
5.750206e-01
5.750875e-01
5.750201e-01
5.748520e-01
5.745954e-01
5.742738e-01
5.739298e-01
5.736751e-01
5.729931e-01
0.000000e+00
1.000000e+00
5.734155e-01
5.738358e-01
5.743024e-01
5.747805e-01
5.752361e-01
5.756226e-01
5.758894e-01
5.759935e-01
5.759001e-01
5.756729e-01
5.752955e-01
5.748287e-01
5.743342e-01
5.739570e-01
5.729465e-01
0.000000e+00
1.000000e+00
5.735459e-01
5.740902e-01
5.747003e-01
5.753247e-01
5.759202e-01
5.764277e-01
5.767806e-01
5.769237e-01
5.768555e-01
5.765298e-01
5.760209e-01
5.754047e-01
5.747517e-01
5.742391e-01
5.728668e-01
0.000000e+00
1.000000e+00
5.736722e-01
5.743398e-01
5.750866e-01
5.758500e-01
5.765786e-01
5.771998e-01
5.776266e-01
5.778224e-01
5.777740e-01
5.773751e-01
5.767375e-01
5.759711e-01
5.751608e-01
5.744915e-01
5.727482e-01
0.000000e+00
1.000000e+00
5.737872e-01
5.745712e-01
5.754432e-01
5.763308e-01
5.771735e-01
5.778940e-01
5.784125e-01
5.786595e-01
5.785883e-01
5.781610e-01
5.774051e-01
5.764929e-01
5.755358e-01
5.746895e-01
5.729235e-01
0.000000e+00
1.000000e+00
5.738872e-01
5.747708e-01
5.757516e-01
5.767405e-01
5.776743e-01
5.784896e-01
5.791070e-01
5.793995e-01
5.792633e-01
5.788214e-01
5.779846e-01
5.769447e-01
5.758559e-01
5.748501e-01
5.732028e-01
0.000000e+00
1.000000e+00
5.739661e-01
5.749264e-01
5.759912e-01
5.770515e-01
5.780631e-01
5.789698e-01
5.796585e-01
5.799644e-01
5.798016e-01
5.793133e-01
5.784378e-01
5.773021e-01
5.761071e-01
5.749825e-01
5.734073e-01
0.000000e+00
1.000000e+00
5.740181e-01
5.750334e-01
5.761521e-01
5.772609e-01
5.783375e-01
5.793097e-01
5.800303e-01
5.803470e-01
5.801739e-01
5.796263e-01
5.787398e-01
5.775567e-01
5.762804e-01
5.750762e-01
5.736298e-01
0.000000e+00
1.000000e+00
5.740463e-01
5.750827e-01
5.762275e-01
5.773672e-01
5.784861e-01
5.794828e-01
5.802134e-01
5.805447e-01
5.803729e-01
5.797790e-01
5.788779e-01
5.776971e-01
5.763784e-01
5.751323e-01
5.737689e-01
0.000000e+00
1.000000e+00
5.740530e-01
5.750892e-01
5.762401e-01
5.773856e-01
5.784979e-01
5.794872e-01
5.802186e-01
5.805626e-01
5.804154e-01
5.798201e-01
5.788867e-01
5.777076e-01
5.763917e-01
5.751450e-01
5.738065e-01
0.000000e+00
1.000000e+00
5.740323e-01
5.750288e-01
5.761443e-01
5.772615e-01
5.783538e-01
5.793337e-01
5.800658e-01
5.804185e-01
5.803037e-01
5.797472e-01
5.788239e-01
5.776507e-01
5.763375e-01
5.750985e-01
5.737740e-01
0.000000e+00
1.000000e+00
5.740120e-01
5.749201e-01
5.759678e-01
5.770353e-01
5.781051e-01
5.790687e-01
5.797951e-01
5.801456e-01
5.800212e-01
5.795139e-01
5.786925e-01
5.776202e-01
5.763887e-01
5.750997e-01
5.738133e-01
0.000000e+00
1.000000e+00
5.728487e-01
5.726487e-01
5.724452e-01
5.722384e-01
5.720423e-01
5.718778e-01
5.717669e-01
5.717271e-01
5.717657e-01
5.718764e-01
5.720413e-01
5.722375e-01
5.724444e-01
5.726709e-01
5.726937e-01
0.000000e+00
1.000000e+00
5.728559e-01
5.727651e-01
5.726219e-01
5.724801e-01
5.723456e-01
5.722326e-01
5.721552e-01
5.721278e-01
5.721542e-01
5.722296e-01
5.723426e-01
5.724774e-01
5.726194e-01
5.727791e-01
5.726864e-01
0.000000e+00
1.000000e+00
5.729133e-01
5.729163e-01
5.728654e-01
5.728104e-01
5.727575e-01
5.727122e-01
5.726799e-01
5.726698e-01
5.726802e-01
5.727093e-01
5.727525e-01
5.728041e-01
5.728578e-01
5.729336e-01
5.727278e-01
0.000000e+00
1.000000e+00
5.730550e-01
5.730989e-01
5.731554e-01
5.732127e-01
5.732673e-01
5.733136e-01
5.733444e-01
5.733562e-01
5.733454e-01
5.733142e-01
5.732686e-01
5.732151e-01
5.731597e-01
5.731417e-01
5.729386e-01
0.000000e+00
1.000000e+00
5.731678e-01
5.733354e-01
5.735230e-01
5.737125e-01
5.738914e-01
5.740406e-01
5.741397e-01
5.741737e-01
5.741357e-01
5.740326e-01
5.738845e-01
5.737088e-01
5.735206e-01
5.733950e-01
5.730165e-01
0.000000e+00
1.000000e+00
5.732860e-01
5.735912e-01
5.739229e-01
5.742625e-01
5.745850e-01
5.748551e-01
5.750365e-01
5.751023e-01
5.750317e-01
5.748551e-01
5.745960e-01
5.742781e-01
5.739353e-01
5.736874e-01
5.729666e-01
0.000000e+00
1.000000e+00
5.734255e-01
5.738712e-01
5.743583e-01
5.748573e-01
5.753317e-01
5.757323e-01
5.760052e-01
5.761101e-01
5.760013e-01
5.757656e-01
5.753790e-01
5.748970e-01
5.743837e-01
5.739869e-01
5.729099e-01
0.000000e+00
1.000000e+00
5.735654e-01
5.741489e-01
5.747907e-01
5.754487e-01
5.760749e-01
5.766069e-01
5.769743e-01
5.771116e-01
5.770814e-01
5.767210e-01
5.761831e-01
5.755329e-01
5.748437e-01
5.742761e-01
5.728614e-01
0.000000e+00
1.000000e+00
5.737006e-01
5.744168e-01
5.752044e-01
5.760102e-01
5.767758e-01
5.774246e-01
5.778710e-01
5.780586e-01
5.780627e-01
5.776460e-01
5.769628e-01
5.761465e-01
5.752861e-01
5.745272e-01
5.728956e-01
0.000000e+00
1.000000e+00
5.738226e-01
5.746622e-01
5.755809e-01
5.765128e-01
5.773915e-01
5.781467e-01
5.787150e-01
5.790002e-01
5.788823e-01
5.784744e-01
5.776764e-01
5.767017e-01
5.756824e-01
5.747398e-01
5.731514e-01
0.000000e+00
1.000000e+00
5.739254e-01
5.748683e-01
5.758972e-01
5.769272e-01
5.779008e-01
5.787712e-01
5.794459e-01
5.797476e-01
5.795782e-01
5.791359e-01
5.782762e-01
5.771714e-01
5.760121e-01
5.749197e-01
5.734436e-01
0.000000e+00
1.000000e+00
5.740035e-01
5.750232e-01
5.761326e-01
5.772325e-01
5.782971e-01
5.792647e-01
5.799902e-01
5.802988e-01
5.801166e-01
5.796045e-01
5.787166e-01
5.775344e-01
5.762662e-01
5.750628e-01
5.736438e-01
0.000000e+00
1.000000e+00
5.740534e-01
5.751152e-01
5.762729e-01
5.774288e-01
5.785668e-01
5.795829e-01
5.803234e-01
5.806471e-01
5.804721e-01
5.798870e-01
5.789697e-01
5.777699e-01
5.764364e-01
5.751560e-01
5.738111e-01
0.000000e+00
1.000000e+00
5.740761e-01
5.751407e-01
5.763276e-01
5.775214e-01
5.786881e-01
5.797080e-01
5.804520e-01
5.807916e-01
5.806366e-01
5.800061e-01
5.790359e-01
5.778456e-01
5.765200e-01
5.752055e-01
5.738608e-01
0.000000e+00
1.000000e+00
5.740734e-01
5.751354e-01
5.763326e-01
5.775090e-01
5.786466e-01
5.796496e-01
5.803917e-01
5.807427e-01
5.806098e-01
5.799963e-01
5.790017e-01
5.777934e-01
5.764895e-01
5.752056e-01
5.738453e-01
0.000000e+00
1.000000e+00
5.740398e-01
5.750510e-01
5.761917e-01
5.773244e-01
5.784322e-01
5.794225e-01
5.801630e-01
5.805226e-01
5.804090e-01
5.798410e-01
5.788886e-01
5.777001e-01
5.764034e-01
5.751372e-01
5.737819e-01
0.000000e+00
1.000000e+00
5.740133e-01
5.749231e-01
5.759702e-01
5.770422e-01
5.781199e-01
5.790883e-01
5.798156e-01
5.801688e-01
5.800498e-01
5.795343e-01
5.787075e-01
5.776466e-01
5.764322e-01
5.751141e-01
5.737986e-01
0.000000e+00
1.000000e+00
5.727834e-01
5.725039e-01
5.722197e-01
5.719295e-01
5.716542e-01
5.714231e-01
5.712675e-01
5.712116e-01
5.712661e-01
5.714218e-01
5.716530e-01
5.719283e-01
5.722185e-01
5.725266e-01
5.726205e-01
0.000000e+00
1.000000e+00
5.728112e-01
5.726377e-01
5.724238e-01
5.722088e-01
5.720049e-01
5.718334e-01
5.717171e-01
5.716761e-01
5.717158e-01
5.718308e-01
5.720021e-01
5.722062e-01
5.724214e-01
5.726516e-01
5.726653e-01
0.000000e+00
1.000000e+00
5.728588e-01
5.728099e-01
5.726969e-01
5.725814e-01
5.724712e-01
5.723775e-01
5.723135e-01
5.722924e-01
5.723138e-01
5.723753e-01
5.724671e-01
5.725767e-01
5.726922e-01
5.728253e-01
5.726975e-01
0.000000e+00
1.000000e+00
5.729945e-01
5.730203e-01
5.730310e-01
5.730389e-01
5.730468e-01
5.730534e-01
5.730584e-01
5.730608e-01
5.730590e-01
5.730538e-01
5.730465e-01
5.730384e-01
5.730316e-01
5.730493e-01
5.728726e-01
0.000000e+00
1.000000e+00
5.731464e-01
5.732745e-01
5.734286e-01
5.735842e-01
5.737321e-01
5.738561e-01
5.739397e-01
5.739685e-01
5.739376e-01
5.738504e-01
5.737249e-01
5.735815e-01
5.734294e-01
5.733227e-01
5.730018e-01
0.000000e+00
1.000000e+00
5.732670e-01
5.735627e-01
5.738812e-01
5.742053e-01
5.745099e-01
5.747606e-01
5.749246e-01
5.749803e-01
5.749090e-01
5.747324e-01
5.744903e-01
5.742009e-01
5.738804e-01
5.736374e-01
5.729828e-01
0.000000e+00
1.000000e+00
5.734182e-01
5.738636e-01
5.743468e-01
5.748422e-01
5.753134e-01
5.757095e-01
5.759759e-01
5.760762e-01
5.759592e-01
5.757250e-01
5.753520e-01
5.748794e-01
5.743696e-01
5.739433e-01
5.730121e-01
0.000000e+00
1.000000e+00
5.735651e-01
5.741591e-01
5.748046e-01
5.754656e-01
5.760943e-01
5.766289e-01
5.770001e-01
5.771444e-01
5.771114e-01
5.767620e-01
5.762196e-01
5.755619e-01
5.748643e-01
5.742427e-01
5.730796e-01
0.000000e+00
1.000000e+00
5.737058e-01
5.744421e-01
5.752434e-01
5.760614e-01
5.768362e-01
5.774905e-01
5.779439e-01
5.781462e-01
5.781554e-01
5.777382e-01
5.770415e-01
5.762069e-01
5.753288e-01
5.745122e-01
5.732004e-01
0.000000e+00
1.000000e+00
5.738297e-01
5.746990e-01
5.756365e-01
5.765839e-01
5.774739e-01
5.782431e-01
5.788351e-01
5.791421e-01
5.789865e-01
5.785932e-01
5.777848e-01
5.767847e-01
5.757404e-01
5.747464e-01
5.734435e-01
0.000000e+00
1.000000e+00
5.739331e-01
5.749095e-01
5.759575e-01
5.770009e-01
5.779902e-01
5.788853e-01
5.795849e-01
5.798928e-01
5.797011e-01
5.792547e-01
5.783961e-01
5.772675e-01
5.760776e-01
5.749485e-01
5.736700e-01
0.000000e+00
1.000000e+00
5.740111e-01
5.750586e-01
5.761807e-01
5.772908e-01
5.783788e-01
5.793733e-01
5.801148e-01
5.804261e-01
5.802331e-01
5.797039e-01
5.788178e-01
5.776268e-01
5.763312e-01
5.750998e-01
5.737706e-01
0.000000e+00
1.000000e+00
5.740586e-01
5.751371e-01
5.763004e-01
5.774700e-01
5.786320e-01
5.796640e-01
5.804119e-01
5.807371e-01
5.805598e-01
5.799598e-01
5.790258e-01
5.778264e-01
5.764889e-01
5.751871e-01
5.738518e-01
0.000000e+00
1.000000e+00
5.740761e-01
5.751546e-01
5.763455e-01
5.775502e-01
5.787243e-01
5.797468e-01
5.804922e-01
5.808294e-01
5.806766e-01
5.800516e-01
5.790637e-01
5.778543e-01
5.765343e-01
5.752197e-01
5.738669e-01
0.000000e+00
1.000000e+00
5.740659e-01
5.751315e-01
5.763215e-01
5.774961e-01
5.786340e-01
5.796342e-01
5.803732e-01
5.807187e-01
5.805845e-01
5.799752e-01
5.789856e-01
5.777702e-01
5.764607e-01
5.751983e-01
5.738730e-01
0.000000e+00
1.000000e+00
5.740233e-01
5.750330e-01
5.761534e-01
5.772700e-01
5.783670e-01
5.793476e-01
5.800797e-01
5.804330e-01
5.803173e-01
5.797537e-01
5.788190e-01
5.776397e-01
5.763535e-01
5.751194e-01
5.737872e-01
0.000000e+00
1.000000e+00
5.739836e-01
5.748943e-01
5.759114e-01
5.769563e-01
5.780061e-01
5.789533e-01
5.796657e-01
5.800110e-01
5.798977e-01
5.793967e-01
5.785870e-01
5.775377e-01
5.763499e-01
5.750718e-01
5.737798e-01
0.000000e+00
1.000000e+00
5.727057e-01
5.723439e-01
5.719703e-01
5.715878e-01
5.712251e-01
5.709204e-01
5.707145e-01
5.706412e-01
5.707137e-01
5.709188e-01
5.712234e-01
5.715862e-01
5.719687e-01
5.723666e-01
5.725343e-01
0.000000e+00
1.000000e+00
5.727527e-01
5.724923e-01
5.721975e-01
5.718987e-01
5.716153e-01
5.713766e-01
5.712161e-01
5.711583e-01
5.712142e-01
5.713744e-01
5.716125e-01
5.718960e-01
5.721949e-01
5.725076e-01
5.725794e-01
0.000000e+00
1.000000e+00
5.728117e-01
5.726802e-01
5.724944e-01
5.723054e-01
5.721257e-01
5.719733e-01
5.718717e-01
5.718359e-01
5.718710e-01
5.719719e-01
5.721224e-01
5.723020e-01
5.724914e-01
5.726958e-01
5.726615e-01
0.000000e+00
1.000000e+00
5.729376e-01
5.729129e-01
5.728640e-01
5.728088e-01
5.727558e-01
5.727103e-01
5.726811e-01
5.726710e-01
5.726809e-01
5.727096e-01
5.727529e-01
5.728045e-01
5.728584e-01
5.729305e-01
5.727709e-01
0.000000e+00
1.000000e+00
5.731192e-01
5.731840e-01
5.732871e-01
5.733918e-01
5.734908e-01
5.735734e-01
5.736294e-01
5.736487e-01
5.736279e-01
5.735692e-01
5.734844e-01
5.733875e-01
5.732856e-01
5.732376e-01
5.729560e-01
0.000000e+00
1.000000e+00
5.732471e-01
5.734930e-01
5.737719e-01
5.740570e-01
5.743243e-01
5.745419e-01
5.746819e-01
5.747280e-01
5.746656e-01
5.745085e-01
5.742970e-01
5.740497e-01
5.737729e-01
5.735606e-01
5.730257e-01
0.000000e+00
1.000000e+00
5.734012e-01
5.738067e-01
5.742566e-01
5.747185e-01
5.751613e-01
5.755377e-01
5.757918e-01
5.758874e-01
5.757807e-01
5.755580e-01
5.752129e-01
5.747729e-01
5.742918e-01
5.738530e-01
5.732228e-01
0.000000e+00
1.000000e+00
5.735555e-01
5.741185e-01
5.747383e-01
5.753717e-01
5.759759e-01
5.764931e-01
5.768568e-01
5.770035e-01
5.769671e-01
5.766369e-01
5.761146e-01
5.754794e-01
5.748045e-01
5.741682e-01
5.733757e-01
0.000000e+00
1.000000e+00
5.737020e-01
5.744156e-01
5.752018e-01
5.760034e-01
5.767632e-01
5.774052e-01
5.778475e-01
5.780504e-01
5.780361e-01
5.776383e-01
5.769572e-01
5.761418e-01
5.752828e-01
5.744628e-01
5.734785e-01
0.000000e+00
1.000000e+00
5.738265e-01
5.746778e-01
5.756078e-01
5.765453e-01
5.774258e-01
5.781819e-01
5.787564e-01
5.790601e-01
5.789108e-01
5.785118e-01
5.777161e-01
5.767329e-01
5.757041e-01
5.747163e-01
5.736724e-01
0.000000e+00
1.000000e+00
5.739199e-01
5.748880e-01
5.759272e-01
5.769595e-01
5.779380e-01
5.788168e-01
5.795039e-01
5.798169e-01
5.796316e-01
5.791805e-01
5.783274e-01
5.772152e-01
5.760421e-01
5.749267e-01
5.738118e-01
0.000000e+00
1.000000e+00
5.739867e-01
5.750361e-01
5.761444e-01
5.772402e-01
5.783081e-01
5.792832e-01
5.800175e-01
5.803298e-01
5.801510e-01
5.796268e-01
5.787377e-01
5.775564e-01
5.762832e-01
5.750713e-01
5.737945e-01
0.000000e+00
1.000000e+00
5.740298e-01
5.751122e-01
5.762578e-01
5.773998e-01
5.785300e-01
5.795447e-01
5.802859e-01
5.806045e-01
5.804392e-01
5.798658e-01
5.789390e-01
5.777364e-01
5.764174e-01
5.751331e-01
5.738404e-01
0.000000e+00
1.000000e+00
5.740440e-01
5.751206e-01
5.762729e-01
5.774327e-01
5.785776e-01
5.795891e-01
5.803256e-01
5.806495e-01
5.804886e-01
5.798993e-01
5.789565e-01
5.777578e-01
5.764414e-01
5.751174e-01
5.738605e-01
0.000000e+00
1.000000e+00
5.740309e-01
5.750725e-01
5.762014e-01
5.773327e-01
5.784469e-01
5.794340e-01
5.801591e-01
5.804867e-01
5.803313e-01
5.797493e-01
5.788244e-01
5.776540e-01
5.763624e-01
5.750161e-01
5.739458e-01
0.000000e+00
1.000000e+00
5.739816e-01
5.749581e-01
5.760255e-01
5.770949e-01
5.781518e-01
5.791053e-01
5.798157e-01