<?xml version="1.0"?>
<VTKFile type="StructuredGrid" version="0.1">
  <StructuredGrid WholeExtent="0 16 0 16 0 16">
    <Piece Extent="0 16 0 16 0 16">
      <PointData Scalars="temperature" Vectors="velocity">
        <DataArray type="Float32" Name="temperature" format="ascii">
1.000000e+00
5.730041e-01
5.729288e-01
5.728972e-01
5.728564e-01
5.728180e-01
5.727852e-01
5.727638e-01
5.727555e-01
5.727627e-01
5.727842e-01
5.728164e-01
5.728550e-01
5.728956e-01
5.729626e-01
5.728077e-01
0.000000e+00
1.000000e+00
5.729219e-01
5.727634e-01
5.726357e-01
5.724985e-01
5.723683e-01
5.722590e-01
5.721852e-01
5.721585e-01
5.721842e-01
5.722576e-01
5.723668e-01
5.724968e-01
5.726339e-01
5.727939e-01
5.727070e-01
0.000000e+00
1.000000e+00
5.728290e-01
5.725710e-01
5.723339e-01
5.720851e-01
5.718490e-01
5.716509e-01
5.715167e-01
5.714689e-01
5.715159e-01
5.716492e-01
5.718472e-01
5.720830e-01
5.723317e-01
5.725993e-01
5.726201e-01
0.000000e+00
1.000000e+00
5.727251e-01
5.723560e-01
5.719981e-01
5.716253e-01
5.712717e-01
5.709743e-01
5.707736e-01
5.707023e-01
5.707729e-01
5.709727e-01
5.712696e-01
5.716230e-01
5.719957e-01
5.723849e-01
5.725142e-01
0.000000e+00
1.000000e+00
5.726163e-01
5.721261e-01
5.716388e-01
5.711335e-01
5.706541e-01
5.702511e-01
5.699791e-01
5.698825e-01
5.699783e-01
5.702494e-01
5.706519e-01
5.711311e-01
5.716364e-01
5.721545e-01
5.724106e-01
0.000000e+00
1.000000e+00
5.725090e-01
5.718901e-01
5.712705e-01
5.706293e-01
5.700208e-01
5.695097e-01
5.691648e-01
5.690423e-01
5.691638e-01
5.695079e-01
5.700188e-01
5.706269e-01
5.712682e-01
5.719181e-01
5.723006e-01
0.000000e+00
1.000000e+00
5.724047e-01
5.716589e-01
5.709105e-01
5.701363e-01
5.694019e-01
5.687848e-01
5.683687e-01
5.682208e-01
5.683677e-01
5.687831e-01
5.693999e-01
5.701341e-01
5.709083e-01
5.716871e-01
5.721973e-01
0.000000e+00
1.000000e+00
5.723082e-01
5.714451e-01
5.705776e-01
5.696805e-01
5.688295e-01
5.681143e-01
5.676321e-01
5.674611e-01
5.676316e-01
5.681130e-01
5.688277e-01
5.696784e-01
5.705755e-01
5.714741e-01
5.720972e-01
0.000000e+00
1.000000e+00
5.722234e-01
5.712607e-01
5.702904e-01
5.692872e-01
5.683357e-01
5.675358e-01
5.669973e-01
5.668060e-01
5.669965e-01
5.675349e-01
5.683341e-01
5.692854e-01
5.702884e-01
5.712903e-01
5.720102e-01
0.000000e+00
1.000000e+00
5.721648e-01
5.711145e-01
5.700651e-01
5.689787e-01
5.679484e-01
5.670822e-01
5.664996e-01
5.662924e-01
5.664983e-01
5.670816e-01
5.679471e-01
5.689771e-01
5.700634e-01
5.711461e-01
5.719391e-01
0.000000e+00
1.000000e+00
5.721254e-01
5.710163e-01
5.699137e-01
5.687716e-01
5.676883e-01
5.667777e-01
5.661650e-01
5.659475e-01
5.661639e-01
5.667772e-01
5.676872e-01
5.687703e-01
5.699123e-01
5.710492e-01
5.718958e-01
0.000000e+00
1.000000e+00
5.721111e-01
5.709702e-01
5.698430e-01
5.686749e-01
5.675669e-01
5.666358e-01
5.660089e-01
5.657869e-01
5.660082e-01
5.666353e-01
5.675661e-01
5.686739e-01
5.698420e-01
5.710038e-01
5.718672e-01
0.000000e+00
1.000000e+00
5.721297e-01
5.709739e-01
5.698540e-01
5.686900e-01
5.675860e-01
5.666582e-01
5.660335e-01
5.658126e-01
5.660330e-01
5.666577e-01
5.675854e-01
5.686893e-01
5.698532e-01
5.710099e-01
5.718772e-01
0.000000e+00
1.000000e+00
5.721704e-01
5.710282e-01
5.699423e-01
5.688109e-01
5.677380e-01
5.668363e-01
5.662291e-01
5.660143e-01
5.662288e-01
5.668357e-01
5.677375e-01
5.688104e-01
5.699417e-01
5.710656e-01
5.719062e-01
0.000000e+00
1.000000e+00
5.722272e-01
5.711270e-01
5.700994e-01
5.690260e-01
5.680080e-01
5.671526e-01
5.665766e-01
5.663727e-01
5.665765e-01
5.671522e-01
5.680076e-01
5.690256e-01
5.700989e-01
5.711639e-01
5.719611e-01
0.000000e+00
1.000000e+00
5.722985e-01
5.712623e-01
5.703138e-01
5.693196e-01
5.683767e-01
5.675845e-01
5.670509e-01
5.668621e-01
5.670509e-01
5.675839e-01
5.683761e-01
5.693190e-01
5.703131e-01
5.713005e-01
5.720415e-01
0.000000e+00
1.000000e+00
5.723798e-01
5.714259e-01
5.705737e-01
5.696751e-01
5.688228e-01
5.681065e-01
5.676241e-01
5.674535e-01
5.676242e-01
5.681061e-01
5.688219e-01
5.696741e-01
5.705724e-01
5.714630e-01
5.720773e-01
0.000000e+00
1.000000e+00
5.729421e-01
5.727996e-01
5.726947e-01
5.725794e-01
5.724700e-01
5.723778e-01
5.723157e-01
5.722929e-01
5.723145e-01
5.723762e-01
5.724680e-01
5.725774e-01
5.726927e-01
5.728271e-01
5.727486e-01
0.000000e+00
1.000000e+00
5.728658e-01
5.726287e-01
5.724270e-01
5.722128e-01
5.720096e-01
5.718388e-01
5.717232e-01
5.716818e-01
5.717223e-01
5.718371e-01
5.720076e-01
5.722108e-01
5.724250e-01
5.726585e-01
5.726580e-01
0.000000e+00
1.000000e+00
5.727688e-01
5.724314e-01
5.721183e-01
5.717899e-01
5.714783e-01
5.712165e-01
5.710397e-01
5.709766e-01
5.710388e-01
5.712148e-01
5.714763e-01
5.717877e-01
5.721159e-01
5.724612e-01
5.725620e-01
0.000000e+00
1.000000e+00
5.726676e-01
5.722114e-01
5.717752e-01
5.713203e-01
5.708886e-01
5.705258e-01
5.702809e-01
5.701937e-01
5.702799e-01
5.705240e-01
5.708864e-01
5.713179e-01
5.717728e-01
5.722427e-01
5.724532e-01
0.000000e+00
1.000000e+00
5.725584e-01
5.719766e-01
5.714095e-01
5.708195e-01
5.702598e-01
5.697893e-01
5.694721e-01
5.693591e-01
5.694709e-01
5.697874e-01
5.702575e-01
5.708170e-01
5.714071e-01
5.720088e-01
5.723409e-01
0.000000e+00
1.000000e+00
5.724462e-01
5.717379e-01
5.710366e-01
5.703089e-01
5.696186e-01
5.690383e-01
5.686472e-01
5.685081e-01
5.686461e-01
5.690365e-01
5.696163e-01
5.703064e-01
5.710342e-01
5.717696e-01
5.722286e-01
0.000000e+00
1.000000e+00
5.723434e-01
5.715053e-01
5.706752e-01
5.698141e-01
5.689973e-01
5.683106e-01
5.678480e-01
5.676835e-01
5.678470e-01
5.683091e-01
5.689951e-01
5.698118e-01
5.706729e-01
5.715371e-01
5.721287e-01
0.000000e+00
1.000000e+00
5.722457e-01
5.712937e-01
5.703459e-01
5.693632e-01
5.684312e-01
5.676474e-01
5.671197e-01
5.669322e-01
5.671188e-01
5.676462e-01
5.684291e-01
5.693610e-01
5.703437e-01
5.713261e-01
5.720283e-01
0.000000e+00
1.000000e+00
5.721666e-01
5.711153e-01
5.700686e-01
5.689835e-01
5.679544e-01
5.670891e-01
5.665067e-01
5.662996e-01
5.665054e-01
5.670880e-01
5.679525e-01
5.689814e-01
5.700665e-01
5.711482e-01
5.719458e-01
0.000000e+00
1.000000e+00
5.721107e-01
5.709798e-01
5.698603e-01
5.686983e-01
5.675962e-01
5.666698e-01
5.660461e-01
5.658246e-01
5.660447e-01
5.666687e-01
5.675946e-01
5.686964e-01
5.698584e-01
5.710146e-01
5.718832e-01
0.000000e+00
1.000000e+00
5.720758e-01
5.708980e-01
5.697331e-01
5.685243e-01
5.673777e-01
5.664139e-01
5.657648e-01
5.655349e-01
5.657639e-01
5.664129e-01
5.673762e-01
5.685226e-01
5.697314e-01
5.709326e-01
5.718487e-01
0.000000e+00
1.000000e+00
5.720701e-01
5.708716e-01
5.696931e-01
5.684696e-01
5.673090e-01
5.663335e-01
5.656764e-01
5.654439e-01
5.656758e-01
5.663325e-01
5.673077e-01
5.684680e-01
5.696916e-01
5.709065e-01
5.718401e-01
0.000000e+00
1.000000e+00
5.720988e-01
5.708980e-01
5.697398e-01
5.685334e-01
5.673892e-01
5.664275e-01
5.657796e-01
5.655504e-01
5.657792e-01
5.664265e-01
5.673881e-01
5.685321e-01
5.697384e-01
5.709357e-01
5.718560e-01
0.000000e+00
1.000000e+00
5.721487e-01
5.709765e-01
5.698668e-01
5.687073e-01
5.676076e-01
5.666832e-01
5.660605e-01
5.658402e-01
5.660604e-01
5.666824e-01
5.676065e-01
5.687062e-01
5.698655e-01
5.710162e-01
5.718905e-01
0.000000e+00
1.000000e+00
5.722249e-01
5.710979e-01
5.700635e-01
5.689766e-01
5.679457e-01
5.670793e-01
5.664955e-01
5.662889e-01
5.664955e-01
5.670785e-01
5.679447e-01
5.689756e-01
5.700623e-01
5.711395e-01
5.719616e-01
0.000000e+00
1.000000e+00
5.723165e-01
5.712539e-01
5.703164e-01
5.693230e-01
5.683807e-01
5.675888e-01
5.670552e-01
5.668663e-01
5.670551e-01
5.675880e-01
5.683796e-01
5.693220e-01
5.703153e-01
5.712983e-01
5.720460e-01
0.000000e+00
1.000000e+00
5.724057e-01
5.714439e-01
5.706114e-01
5.697269e-01
5.688880e-01
5.681829e-01
5.677079e-01
5.675397e-01
5.677077e-01
5.681822e-01
5.688868e-01
5.697260e-01
5.706104e-01
5.714781e-01
5.721148e-01
0.000000e+00
1.000000e+00
5.728996e-01
5.726916e-01
5.725274e-01
5.723503e-01
5.721821e-01
5.720407e-01
5.719450e-01
5.719110e-01
5.719442e-01
5.720392e-01
5.721802e-01
5.723482e-01
5.725253e-01
5.727176e-01
5.727037e-01
0.000000e+00
1.000000e+00
5.728221e-01
5.725177e-01
5.722564e-01
5.719791e-01
5.717160e-01
5.714948e-01
5.713453e-01
5.712925e-01
5.713447e-01
5.714934e-01
5.717142e-01
5.719771e-01
5.722543e-01
5.725492e-01
5.726092e-01
0.000000e+00
1.000000e+00
5.727234e-01
5.723178e-01
5.719438e-01
5.715511e-01
5.711783e-01
5.708650e-01
5.706533e-01
5.705787e-01
5.706528e-01
5.708634e-01
5.711763e-01
5.715487e-01
5.719415e-01
5.723499e-01
5.725055e-01
0.000000e+00
1.000000e+00
5.726210e-01
5.720951e-01
5.715968e-01
5.710759e-01
5.705817e-01
5.701657e-01
5.698859e-01
5.697868e-01
5.698851e-01
5.701645e-01
5.705795e-01
5.710735e-01
5.715944e-01
5.721291e-01
5.724017e-01
0.000000e+00
1.000000e+00
5.725141e-01
5.718573e-01
5.712277e-01
5.705705e-01
5.699472e-01
5.694223e-01
5.690697e-01
5.689444e-01
5.690686e-01
5.694212e-01
5.699448e-01
5.705680e-01
5.712252e-01
5.718942e-01
5.722804e-01
0.000000e+00
1.000000e+00
5.724008e-01
5.716175e-01
5.708531e-01
5.700576e-01
5.693032e-01
5.686681e-01
5.682414e-01
5.680895e-01
5.682402e-01
5.686670e-01
5.693008e-01
5.700552e-01
5.708507e-01
5.716545e-01
5.721575e-01
0.000000e+00
1.000000e+00
5.722945e-01
5.713867e-01
5.704932e-01
5.695649e-01
5.686844e-01
5.679436e-01
5.674456e-01
5.672685e-01
5.674442e-01
5.679425e-01
5.686821e-01
5.695625e-01
5.704909e-01
5.714228e-01
5.720601e-01
0.000000e+00
1.000000e+00
5.722010e-01
5.711783e-01
5.701699e-01
5.691223e-01
5.681286e-01
5.672929e-01
5.667309e-01
5.665311e-01
5.667292e-01
5.672917e-01
5.681264e-01
5.691200e-01
5.701677e-01
5.712155e-01
5.719660e-01
0.000000e+00
1.000000e+00
5.721223e-01
5.710083e-01
5.699043e-01
5.687586e-01
5.676720e-01
5.667583e-01
5.661434e-01
5.659253e-01
5.661419e-01
5.667570e-01
5.676700e-01
5.687565e-01
5.699022e-01
5.710446e-01
5.718890e-01
0.000000e+00
1.000000e+00
5.720707e-01
5.708859e-01
5.697142e-01
5.684983e-01
5.673450e-01
5.663756e-01
5.657227e-01
5.654917e-01
5.657218e-01
5.663743e-01
5.673433e-01
5.684963e-01
5.697122e-01
5.709219e-01
5.718302e-01
0.000000e+00
1.000000e+00
5.720463e-01
5.708183e-01
5.696117e-01
5.683579e-01
5.671687e-01
5.661692e-01
5.654958e-01
5.652577e-01
5.654952e-01
5.661678e-01
5.671671e-01
5.683561e-01
5.696098e-01
5.708544e-01
5.718079e-01
0.000000e+00
1.000000e+00
5.720526e-01
5.708107e-01
5.696017e-01
5.683442e-01
5.671516e-01
5.661493e-01
5.654738e-01
5.652349e-01
5.654735e-01
5.661480e-01
5.671501e-01
5.683426e-01
5.696000e-01
5.708467e-01
5.718070e-01
0.000000e+00
1.000000e+00
5.720919e-01
5.708593e-01
5.696823e-01
5.684547e-01
5.672903e-01
5.663117e-01
5.656522e-01
5.654188e-01
5.656521e-01
5.663106e-01
5.672889e-01
5.684532e-01
5.696808e-01
5.708971e-01
5.718362e-01
0.000000e+00
1.000000e+00
5.721598e-01
5.709570e-01
5.698453e-01
5.686779e-01
5.675706e-01
5.666399e-01
5.660127e-01
5.657907e-01
5.660126e-01
5.666389e-01
5.675691e-01
5.686766e-01
5.698439e-01
5.709999e-01
5.718784e-01
0.000000e+00
1.000000e+00
5.722342e-01
5.711050e-01
5.700780e-01
5.689964e-01
5.679705e-01
5.671084e-01
5.665273e-01
5.663215e-01
5.665271e-01
5.671074e-01
5.679691e-01
5.689952e-01
5.700767e-01
5.711449e-01
5.719634e-01
0.000000e+00
1.000000e+00
5.723249e-01
5.712882e-01
5.703650e-01
5.693894e-01
5.684642e-01
5.676865e-01
5.671625e-01
5.669768e-01
5.671622e-01
5.676857e-01
5.684627e-01
5.693881e-01
5.703638e-01
5.713221e-01
5.720577e-01
0.000000e+00
1.000000e+00
5.724343e-01
5.714941e-01
5.706906e-01
5.698355e-01
5.690244e-01
5.683428e-01
5.678835e-01
5.677208e-01
5.678832e-01
5.683421e-01
5.690231e-01
5.698342e-01
5.706897e-01
5.715195e-01
5.722347e-01
0.000000e+00
1.000000e+00
5.728682e-01
5.726137e-01
5.724077e-01
5.721864e-01
5.719762e-01
5.718004e-01
5.716801e-01
5.716381e-01
5.716793e-01
5.717979e-01
5.719742e-01
5.721841e-01
5.724055e-01
5.726406e-01
5.726592e-01
0.000000e+00
1.000000e+00
5.727903e-01
5.724403e-01
5.721373e-01
5.718161e-01
5.715113e-01
5.712562e-01
5.710819e-01
5.710214e-01
5.710815e-01
5.712537e-01
5.715095e-01
5.718141e-01
5.721353e-01
5.724726e-01
5.725681e-01
0.000000e+00
1.000000e+00
5.726971e-01
5.722399e-01
5.718253e-01
5.713888e-01
5.709745e-01
5.706272e-01
5.703910e-01
5.703087e-01
5.703906e-01
5.706246e-01
5.709724e-01
5.713864e-01
5.718229e-01
5.722740e-01
5.724719e-01
0.000000e+00
1.000000e+00
5.725969e-01
5.720166e-01
5.714787e-01
5.709142e-01
5.703786e-01
5.699286e-01
5.696247e-01
5.695177e-01
5.696239e-01
5.699266e-01
5.703763e-01
5.709117e-01
5.714763e-01
5.720539e-01
5.723571e-01
0.000000e+00
1.000000e+00
5.724900e-01
5.717789e-01
5.711105e-01
5.704102e-01
5.697457e-01
5.691867e-01
5.688105e-01
5.686776e-01
5.688097e-01
5.691852e-01
5.697433e-01
5.704076e-01
5.711081e-01
5.718192e-01
5.722455e-01
0.000000e+00
1.000000e+00
5.723719e-01
5.715419e-01
5.707383e-01
5.699005e-01
5.691057e-01
5.684370e-01
5.679873e-01
5.678285e-01
5.679863e-01
5.684357e-01
5.691032e-01
5.698979e-01
5.707358e-01
5.715813e-01
5.721259e-01
0.000000e+00
1.000000e+00
5.722639e-01
5.713156e-01
5.703832e-01
5.694144e-01
5.684953e-01
5.677222e-01
5.672020e-01
5.670186e-01
5.672010e-01
5.677209e-01
5.684929e-01
5.694118e-01
5.703809e-01
5.713531e-01
5.720255e-01
0.000000e+00
1.000000e+00
5.721757e-01
5.711121e-01
5.700684e-01
5.689834e-01
5.679541e-01
5.670885e-01
5.665056e-01
5.663004e-01
5.665051e-01
5.670871e-01
5.679519e-01
5.689809e-01
5.700662e-01
5.711516e-01
5.719214e-01
0.000000e+00
1.000000e+00
5.721029e-01
5.709503e-01
5.698161e-01
5.686378e-01
5.675202e-01
5.665805e-01
5.659476e-01
5.657245e-01
5.659474e-01
5.665790e-01
5.675181e-01
5.686355e-01
5.698139e-01
5.709889e-01
5.718449e-01
0.000000e+00
1.000000e+00
5.720571e-01
5.708390e-01
5.696443e-01
5.684026e-01
5.672248e-01
5.662348e-01
5.655678e-01
5.653324e-01
5.655679e-01
5.662333e-01
5.672229e-01
5.684005e-01
5.696423e-01
5.708768e-01
5.717911e-01
0.000000e+00
1.000000e+00
5.720460e-01
5.707849e-01
5.695650e-01
5.682940e-01
5.670886e-01
5.660754e-01
5.653926e-01
5.651513e-01
5.653929e-01
5.660741e-01
5.670867e-01
5.682922e-01
5.695631e-01
5.708221e-01
5.717861e-01
0.000000e+00
1.000000e+00
5.720577e-01
5.707958e-01
5.695825e-01
5.683180e-01
5.671187e-01
5.661106e-01
5.654313e-01
5.651909e-01
5.654315e-01
5.661095e-01
5.671167e-01
5.683162e-01
5.695807e-01
5.708304e-01
5.718132e-01
0.000000e+00
1.000000e+00
5.720997e-01
5.708657e-01
5.696932e-01
5.684695e-01
5.673089e-01
5.663334e-01
5.656760e-01
5.654432e-01
5.656761e-01
5.663325e-01
5.673071e-01
5.684678e-01
5.696914e-01
5.708988e-01
5.718640e-01
0.000000e+00
1.000000e+00
5.721740e-01
5.709850e-01
5.698869e-01
5.687348e-01
5.676420e-01
5.667236e-01
5.661046e-01
5.658853e-01
5.661044e-01
5.667228e-01
5.676403e-01
5.687331e-01
5.698854e-01
5.710205e-01
5.719225e-01
0.000000e+00
1.000000e+00
5.722567e-01
5.711511e-01
5.701493e-01
5.690940e-01
5.680932e-01
5.672520e-01
5.666851e-01
5.664842e-01
5.666847e-01
5.672511e-01
5.680915e-01
5.690923e-01
5.701478e-01
5.711838e-01
5.720306e-01
0.000000e+00
1.000000e+00
5.723564e-01
5.713508e-01
5.704635e-01
5.695244e-01
5.686337e-01
5.678851e-01
5.673806e-01
5.672018e-01
5.673802e-01
5.678842e-01
5.686321e-01
5.695226e-01
5.704620e-01
5.713799e-01
5.721543e-01
0.000000e+00
1.000000e+00
5.724718e-01
5.715724e-01
5.708128e-01
5.700028e-01
5.692345e-01
5.685889e-01
5.681539e-01
5.679998e-01
5.681536e-01
5.685882e-01
5.692333e-01
5.700012e-01
5.708113e-01
5.716029e-01
5.723785e-01
0.000000e+00
1.000000e+00
5.728563e-01
5.725734e-01
5.723472e-01
5.721035e-01
5.718721e-01
5.716778e-01
5.715470e-01
5.714993e-01
5.715457e-01
5.716758e-01
5.718699e-01
5.721011e-01
5.723449e-01
5.726010e-01
5.726351e-01
0.000000e+00
1.000000e+00
5.727823e-01
5.724034e-01
5.720828e-01
5.717414e-01
5.714175e-01
5.711455e-01
5.709624e-01
5.708963e-01
5.709611e-01
5.711436e-01
5.714155e-01
5.717393e-01
5.720807e-01
5.724361e-01
5.725426e-01
0.000000e+00
1.000000e+00
5.726931e-01
5.722065e-01
5.717767e-01
5.713223e-01
5.708910e-01
5.705286e-01
5.702845e-01
5.701972e-01
5.702837e-01
5.705267e-01
5.708887e-01
5.713198e-01
5.717744e-01
5.722411e-01
5.724524e-01
0.000000e+00
1.000000e+00
5.725929e-01
5.719870e-01
5.714361e-01
5.708560e-01
5.703055e-01
5.698426e-01
5.695308e-01
5.694201e-01
5.695304e-01
5.698408e-01
5.703030e-01
5.708534e-01
5.714337e-01
5.720247e-01
5.723426e-01
0.000000e+00
1.000000e+00
5.724851e-01
5.717544e-01
5.710743e-01
5.703605e-01
5.696834e-01
5.691138e-01
5.687297e-01
5.685948e-01
5.687300e-01
5.691123e-01
5.696807e-01
5.703578e-01
5.710717e-01
5.717927e-01
5.722354e-01
0.000000e+00
1.000000e+00
5.723723e-01
5.715215e-01
5.707093e-01
5.698606e-01
5.690556e-01
5.683786e-01
5.679214e-01
5.677619e-01
5.679227e-01
5.683772e-01
5.690530e-01
5.698578e-01
5.707066e-01
5.715585e-01
5.721222e-01
0.000000e+00
1.000000e+00
5.722687e-01
5.712998e-01
5.703628e-01
5.693864e-01
5.684601e-01
5.676811e-01
5.671552e-01
5.669715e-01
5.671570e-01
5.676796e-01
5.684576e-01
5.693835e-01
5.703601e-01
5.713348e-01
5.720295e-01
0.000000e+00
1.000000e+00
5.721823e-01
5.711039e-01
5.700590e-01
5.689704e-01
5.679378e-01
5.670694e-01
5.664837e-01
5.662782e-01
5.664855e-01
5.670681e-01
5.679353e-01
5.689677e-01
5.700564e-01
5.711392e-01
5.719447e-01
0.000000e+00
1.000000e+00
5.721121e-01
5.709514e-01
5.698206e-01
5.686440e-01
5.675279e-01
5.665894e-01
5.659568e-01
5.657338e-01
5.659584e-01
5.665885e-01
5.675253e-01
5.686414e-01
5.698181e-01
5.709846e-01
5.718779e-01
0.000000e+00
1.000000e+00
5.720735e-01
5.708509e-01
5.696661e-01
5.684323e-01
5.672621e-01
5.662784e-01
5.656155e-01
5.653811e-01
5.656166e-01
5.662778e-01
5.672597e-01
5.684299e-01
5.696637e-01
5.708829e-01
5.718322e-01
0.000000e+00
1.000000e+00
5.720636e-01
5.708115e-01
5.696070e-01
5.683514e-01
5.671607e-01
5.661598e-01
5.654852e-01
5.652463e-01
5.654857e-01
5.661593e-01
5.671585e-01
5.683491e-01
5.696047e-01
5.708411e-01
5.718469e-01
0.000000e+00
1.000000e+00
5.720808e-01
5.708374e-01
5.696469e-01
5.684061e-01
5.672293e-01
5.662402e-01
5.655735e-01
5.653373e-01
5.655736e-01
5.662397e-01
5.672273e-01
5.684037e-01
5.696447e-01
5.708652e-01
5.718742e-01
0.000000e+00
1.000000e+00
5.721300e-01
5.709215e-01
5.697809e-01
5.685895e-01
5.674596e-01
5.665099e-01
5.658698e-01
5.656429e-01
5.658696e-01
5.665093e-01
5.674579e-01
5.685872e-01
5.697787e-01
5.709495e-01
5.719250e-01
0.000000e+00
1.000000e+00
5.722061e-01
5.710575e-01
5.699974e-01
5.688860e-01
5.678320e-01
5.669460e-01
5.663489e-01
5.661372e-01
5.663485e-01
5.669452e-01
5.678304e-01
5.688839e-01
5.699953e-01
5.710865e-01
5.719963e-01
0.000000e+00
1.000000e+00
5.723035e-01
5.712346e-01
5.702807e-01
5.692740e-01
5.683192e-01
5.675166e-01
5.669757e-01
5.667840e-01
5.669752e-01
5.675156e-01
5.683176e-01
5.692719e-01
5.702786e-01
5.712651e-01
5.721090e-01
0.000000e+00
1.000000e+00
5.724053e-01
5.714459e-01
5.706129e-01
5.697290e-01
5.688906e-01
5.681860e-01
5.677111e-01
5.675428e-01
5.677107e-01
5.681850e-01
5.688891e-01
5.697271e-01
5.706109e-01
5.714766e-01
5.722395e-01
0.000000e+00
1.000000e+00
5.725159e-01
5.716797e-01
5.709766e-01
5.702271e-01
5.695162e-01
5.689188e-01
5.685162e-01
5.683736e-01
5.685160e-01
5.689182e-01
5.695151e-01
5.702257e-01
5.709749e-01
5.717099e-01
5.723668e-01
0.000000e+00
1.000000e+00
5.728684e-01
5.725771e-01
5.723554e-01
5.721147e-01
5.718862e-01
5.716941e-01
5.715656e-01
5.715182e-01
5.715638e-01
5.716924e-01
5.718837e-01
5.721120e-01
5.723528e-01
5.726021e-01
5.726719e-01
0.000000e+00
1.000000e+00
5.727984e-01
5.724145e-01
5.721030e-01
5.717691e-01
5.714523e-01
5.711861e-01
5.710077e-01
5.709426e-01
5.710059e-01
5.711846e-01
5.714501e-01
5.717668e-01
5.721007e-01
5.724438e-01
5.725495e-01
0.000000e+00
1.000000e+00
5.727091e-01
5.722264e-01
5.718094e-01
5.713670e-01
5.709472e-01
5.705944e-01
5.703573e-01
5.702718e-01
5.703556e-01
5.705928e-01
5.709447e-01
5.713643e-01
5.718069e-01
5.722542e-01
5.724957e-01
0.000000e+00
1.000000e+00
5.726157e-01
5.720146e-01
5.714813e-01
5.709178e-01
5.703831e-01
5.699336e-01
5.696308e-01
5.695229e-01
5.696301e-01
5.699323e-01
5.703805e-01
5.709149e-01
5.714786e-01
5.720458e-01
5.723771e-01
0.000000e+00
1.000000e+00
5.725131e-01
5.717892e-01
5.711319e-01
5.704394e-01
5.697824e-01
5.692299e-01
5.688570e-01
5.687252e-01
5.688574e-01
5.692285e-01
5.697798e-01
5.704364e-01
5.711290e-01
5.718192e-01
5.722820e-01
0.000000e+00
1.000000e+00
5.724044e-01
5.715645e-01
5.707792e-01
5.699565e-01
5.691760e-01
5.685197e-01
5.680764e-01
5.679198e-01
5.680777e-01
5.685185e-01
5.691735e-01
5.699535e-01
5.707761e-01
5.715915e-01
5.721912e-01
0.000000e+00
1.000000e+00
5.723063e-01
5.713503e-01
5.704454e-01
5.694995e-01
5.686021e-01
5.678476e-01
5.673381e-01
5.671574e-01
5.673395e-01
5.678468e-01
5.685994e-01
5.694965e-01
5.704423e-01
5.713760e-01
5.721037e-01
0.000000e+00
1.000000e+00
5.722206e-01
5.711633e-01
5.701547e-01
5.691015e-01
5.681024e-01
5.672623e-01
5.666953e-01
5.664942e-01
5.666966e-01
5.672621e-01
5.680998e-01
5.690985e-01
5.701517e-01
5.711895e-01
5.720150e-01
0.000000e+00
1.000000e+00
5.721532e-01
5.710201e-01
5.699302e-01
5.687940e-01
5.677162e-01
5.668099e-01
5.661988e-01
5.659822e-01
5.661995e-01
5.668102e-01
5.677141e-01
5.687908e-01
5.699272e-01
5.710451e-01
5.719420e-01
0.000000e+00
1.000000e+00
5.721154e-01
5.709298e-01
5.697902e-01
5.686023e-01
5.674754e-01
5.665282e-01
5.658898e-01
5.656634e-01
5.658899e-01
5.665286e-01
5.674740e-01
5.685994e-01
5.697873e-01
5.709540e-01
5.719103e-01
0.000000e+00
1.000000e+00
5.721087e-01
5.709012e-01
5.697461e-01
5.685420e-01
5.674000e-01
5.664401e-01
5.657931e-01
5.655635e-01
5.657927e-01
5.664400e-01
5.673988e-01
5.685395e-01
5.697433e-01
5.709241e-01
5.719211e-01
0.000000e+00
1.000000e+00
5.721353e-01
5.709350e-01
5.698011e-01
5.686174e-01
5.674946e-01
5.665509e-01
5.659147e-01
5.656890e-01
5.659141e-01
5.665502e-01
5.674934e-01
5.686150e-01
5.697982e-01
5.709593e-01
5.719376e-01
0.000000e+00
1.000000e+00
5.721873e-01
5.710284e-01
5.699493e-01
5.688202e-01
5.677492e-01
5.668491e-01
5.662423e-01
5.660271e-01
5.662416e-01
5.668481e-01
5.677480e-01
5.688181e-01
5.699466e-01
5.710534e-01
5.719883e-01
0.000000e+00
1.000000e+00
5.722593e-01
5.711744e-01
5.701782e-01
5.691336e-01
5.681428e-01
5.673101e-01
5.667488e-01
5.665498e-01
5.667481e-01
5.673090e-01
5.681414e-01
5.691318e-01
5.701758e-01
5.711995e-01
5.720593e-01
0.000000e+00
1.000000e+00
5.723532e-01
5.713606e-01
5.704713e-01
5.695350e-01
5.686470e-01
5.679005e-01
5.673975e-01
5.672191e-01
5.673968e-01
5.678994e-01
5.686454e-01
5.695333e-01
5.704692e-01
5.713859e-01
5.721606e-01
0.000000e+00
1.000000e+00
5.724540e-01
5.715770e-01
5.708104e-01
5.699994e-01
5.692301e-01
5.685836e-01
5.681479e-01
5.679934e-01
5.681474e-01
5.685827e-01
5.692287e-01
5.699978e-01
5.708085e-01
5.716024e-01
5.722683e-01
0.000000e+00
1.000000e+00
5.725692e-01
5.718122e-01
5.711776e-01
5.705023e-01
5.698618e-01
5.693236e-01
5.689609e-01
5.688324e-01
5.689607e-01
5.693232e-01
5.698610e-01
5.705012e-01
5.711762e-01
5.718328e-01
5.723580e-01
0.000000e+00
1.000000e+00
5.728961e-01
5.726307e-01
5.724382e-01
5.722281e-01
5.720286e-01
5.718608e-01
5.717481e-01
5.717082e-01
5.717470e-01
5.718592e-01
5.720262e-01
5.722252e-01
5.724353e-01
5.726515e-01
5.727853e-01
0.000000e+00
1.000000e+00
5.728264e-01
5.724808e-01
5.722043e-01
5.719079e-01
5.716266e-01
5.713901e-01
5.712312e-01
5.711751e-01
5.712299e-01
5.713888e-01
5.716246e-01
5.719053e-01
5.722018e-01
5.725004e-01
5.725834e-01
0.000000e+00
1.000000e+00
5.727468e-01
5.723044e-01
5.719300e-01
5.715321e-01
5.711545e-01
5.708371e-01
5.706234e-01
5.705479e-01
5.706219e-01
5.708354e-01
5.711523e-01
5.715292e-01
5.719271e-01
5.723187e-01
5.725727e-01
0.000000e+00
1.000000e+00
5.726609e-01
5.721048e-01
5.716210e-01
5.711091e-01
5.706234e-01
5.702150e-01
5.699397e-01
5.698422e-01
5.699385e-01
5.702133e-01
5.706211e-01
5.711063e-01
5.716180e-01
5.721229e-01
5.724444e-01
0.000000e+00
1.000000e+00
5.725668e-01
5.718912e-01
5.712903e-01
5.706563e-01
5.700547e-01
5.695490e-01
5.692079e-01
5.690864e-01
5.692070e-01
5.695473e-01
5.700521e-01
5.706536e-01
5.712873e-01
5.719071e-01
5.723556e-01
0.000000e+00
1.000000e+00
5.724597e-01
5.716780e-01
5.709553e-01
5.701975e-01
5.694787e-01
5.688743e-01
5.684666e-01
5.683211e-01
5.684655e-01
5.688728e-01
5.694760e-01
5.701947e-01
5.709524e-01
5.716909e-01
5.722648e-01
0.000000e+00
1.000000e+00
5.723659e-01
5.714749e-01
5.706378e-01
5.697628e-01
5.689328e-01
5.682350e-01
5.677643e-01
5.675962e-01
5.677622e-01
5.682335e-01
5.689305e-01
5.697597e-01
5.706349e-01
5.714860e-01
5.721571e-01
0.000000e+00
1.000000e+00
5.722873e-01
5.712967e-01
5.703616e-01
5.693847e-01
5.684580e-01
5.676790e-01
5.671534e-01
5.669660e-01
5.671511e-01
5.676775e-01
5.684563e-01
5.693820e-01
5.703586e-01
5.713094e-01
5.720698e-01
0.000000e+00
1.000000e+00
5.722237e-01
5.711610e-01
5.701497e-01
5.690945e-01
5.680936e-01
5.672521e-01
5.666844e-01
5.664825e-01
5.666825e-01
5.672504e-01
5.680924e-01
5.690926e-01
5.701468e-01
5.711750e-01
5.719982e-01
0.000000e+00
1.000000e+00
5.721875e-01
5.710773e-01
5.700202e-01
5.689172e-01
5.678709e-01
5.669913e-01
5.663982e-01
5.661877e-01
5.663970e-01
5.669899e-01
5.678702e-01
5.689160e-01
5.700178e-01
5.710937e-01
5.719758e-01
0.000000e+00
1.000000e+00
5.721794e-01
5.710547e-01
5.699843e-01
5.688681e-01
5.678094e-01
5.669196e-01
5.663198e-01
5.661069e-01
5.663187e-01
5.669182e-01
5.678087e-01
5.688674e-01
5.699825e-01
5.710705e-01
5.719822e-01
0.000000e+00
1.000000e+00
5.722088e-01
5.710926e-01
5.700450e-01
5.689513e-01
5.679139e-01
5.670420e-01
5.664542e-01
5.662457e-01
5.664531e-01
5.670404e-01
5.679127e-01
5.689505e-01
5.700433e-01
5.711102e-01
5.720007e-01
0.000000e+00
1.000000e+00
5.722602e-01
5.711883e-01
5.701963e-01
5.691583e-01
5.681738e-01
5.673463e-01
5.667886e-01
5.665907e-01
5.667876e-01
5.673448e-01
5.681723e-01
5.691571e-01
5.701946e-01
5.712071e-01
5.720503e-01
0.000000e+00
1.000000e+00
5.723302e-01
5.713344e-01
5.704253e-01
5.694719e-01
5.685676e-01
5.678076e-01
5.672953e-01
5.671136e-01
5.672946e-01
5.678062e-01
5.685660e-01
5.694705e-01
5.704238e-01
5.713546e-01
5.721247e-01
0.000000e+00
1.000000e+00
5.724168e-01
5.715201e-01
5.707156e-01
5.698695e-01
5.690670e-01
5.683924e-01
5.679378e-01
5.677766e-01
5.679372e-01
5.683913e-01
5.690654e-01
5.698680e-01
5.707141e-01
5.715397e-01
5.722210e-01
0.000000e+00
1.000000e+00
5.725233e-01
5.717316e-01
5.710491e-01
5.703262e-01
5.696406e-01
5.690643e-01
5.686760e-01
5.685383e-01
5.686756e-01
5.690635e-01
5.696393e-01
5.703248e-01
5.710476e-01
5.717514e-01
5.723076e-01
0.000000e+00
1.000000e+00
5.726387e-01
5.719606e-01
5.714083e-01
5.708182e-01
5.702585e-01
5.697881e-01
5.694711e-01
5.693589e-01
5.694710e-01
5.697878e-01
5.702578e-01
5.708173e-01
5.714071e-01
5.719718e-01
5.723367e-01
0.000000e+00
1.000000e+00
5.729328e-01
5.727342e-01
5.725974e-01
5.724459e-01
5.723019e-01
5.721808e-01
5.720991e-01
5.720706e-01
5.720991e-01
5.721791e-01
5.722989e-01
5.724429e-01
5.725940e-01
5.727567e-01
5.729258e-01
0.000000e+00
1.000000e+00
5.728811e-01
5.725998e-01
5.723875e-01
5.721587e-01
5.719415e-01
5.717589e-01
5.716359e-01
5.715929e-01
5.716362e-01
5.717578e-01
5.719396e-01
5.721569e-01
5.723851e-01
5.726065e-01
5.725772e-01
0.000000e+00
1.000000e+00
5.728096e-01
5.724392e-01
5.721386e-01
5.718177e-01
5.715133e-01
5.712572e-01
5.710846e-01
5.710238e-01
5.710845e-01
5.712553e-01
5.715108e-01
5.718154e-01
5.721358e-01
5.724372e-01
5.726319e-01
0.000000e+00
1.000000e+00
5.727273e-01
5.722569e-01
5.718551e-01
5.714295e-01
5.710258e-01
5.706863e-01
5.704573e-01
5.703762e-01
5.704568e-01
5.706842e-01
5.710231e-01
5.714267e-01
5.718523e-01
5.722599e-01
5.724996e-01
0.000000e+00
1.000000e+00
5.726364e-01
5.720605e-01
5.715486e-01
5.710099e-01
5.704989e-01
5.700692e-01
5.697794e-01
5.696764e-01
5.697782e-01
5.700674e-01
5.704959e-01
5.710065e-01
5.715463e-01
5.720616e-01
5.724119e-01
0.000000e+00
1.000000e+00
5.725432e-01
5.718600e-01
5.712358e-01
5.705816e-01
5.699610e-01
5.694392e-01
5.690873e-01
5.689622e-01
5.690857e-01
5.694369e-01
5.699579e-01
5.705780e-01
5.712325e-01
5.718585e-01
5.723307e-01
0.000000e+00
1.000000e+00
5.724549e-01
5.716687e-01
5.709373e-01
5.701729e-01
5.694478e-01
5.688382e-01
5.684271e-01
5.682809e-01
5.684250e-01
5.688350e-01
5.694449e-01
5.701697e-01
5.709332e-01
5.716628e-01
5.722215e-01
0.000000e+00
1.000000e+00
5.723801e-01
5.715008e-01
5.706761e-01
5.698153e-01
5.689988e-01
5.683123e-01
5.678494e-01
5.676848e-01
5.678471e-01
5.683085e-01
5.689952e-01
5.698122e-01
5.706726e-01
5.714889e-01
5.721314e-01
0.000000e+00
1.000000e+00
5.723218e-01
5.713709e-01
5.704744e-01
5.695392e-01
5.686520e-01
5.679062e-01
5.674032e-01
5.672243e-01
5.674010e-01
5.679022e-01
5.686477e-01
5.695362e-01
5.704718e-01
5.713551e-01
5.720662e-01
0.000000e+00
1.000000e+00
5.722889e-01
5.712896e-01
5.703502e-01
5.693691e-01
5.684384e-01
5.676560e-01
5.671283e-01
5.669408e-01
5.671264e-01
5.676524e-01
5.684343e-01
5.693662e-01
5.703479e-01
5.712760e-01
5.720363e-01
0.000000e+00
1.000000e+00
5.722781e-01
5.712666e-01
5.703144e-01
5.693201e-01
5.683770e-01
5.675841e-01
5.670496e-01
5.668599e-01
5.670482e-01
5.675815e-01
5.683738e-01
5.693178e-01
5.703132e-01
5.712572e-01
5.720355e-01
0.000000e+00
1.000000e+00
5.722988e-01
5.713032e-01
5.703701e-01
5.693964e-01
5.684730e-01
5.676968e-01
5.671736e-01
5.669880e-01
5.671726e-01
5.676949e-01
5.684706e-01
5.693947e-01
5.703693e-01
5.713005e-01
5.720556e-01
0.000000e+00
1.000000e+00
5.723472e-01
5.713941e-01
5.705124e-01
5.695912e-01
5.687175e-01
5.679831e-01
5.674880e-01
5.673124e-01
5.674871e-01
5.679814e-01
5.687153e-01
5.695894e-01
5.705114e-01
5.714026e-01
5.721381e-01
0.000000e+00
1.000000e+00
5.724157e-01
5.715314e-01
5.707286e-01
5.698873e-01
5.690893e-01
5.684185e-01
5.679664e-01
5.678060e-01
5.679657e-01
5.684171e-01
5.690874e-01
5.698856e-01
5.707273e-01
5.715466e-01
5.722191e-01
0.000000e+00
1.000000e+00
5.725019e-01
5.717054e-01
5.710031e-01
5.702632e-01
5.695613e-01
5.689714e-01
5.685738e-01
5.684328e-01
5.685733e-01
5.689704e-01
5.695598e-01
5.702617e-01
5.710017e-01
5.717206e-01
5.723049e-01
0.000000e+00
1.000000e+00
5.725975e-01
5.719058e-01
5.713186e-01
5.706951e-01
5.701038e-01
5.696068e-01
5.692719e-01