<?xml version="1.0"?>
<VTKFile type="StructuredGrid" version="0.1">
  <StructuredGrid WholeExtent="0 16 0 16 0 16">
    <Piece Extent="0 16 0 16 0 16">
      <PointData Scalars="temperature" Vectors="velocity">
        <DataArray type="Float32" Name="temperature" format="ascii">
1.000000e+00
5.734295e-01
5.736883e-01
5.740854e-01
5.744837e-01
5.748616e-01
5.751791e-01
5.753930e-01
5.754679e-01
5.753903e-01
5.751738e-01
5.748553e-01
5.745065e-01
5.741291e-01
5.737418e-01
5.731612e-01
0.000000e+00
1.000000e+00
5.726767e-01
5.721629e-01
5.716934e-01
5.712086e-01
5.707491e-01
5.703632e-01
5.701034e-01
5.700111e-01
5.701025e-01
5.703615e-01
5.707501e-01
5.712591e-01
5.717451e-01
5.722183e-01
5.724378e-01
0.000000e+00
1.000000e+00
5.717945e-01
5.703566e-01
5.688628e-01
5.673330e-01
5.658829e-01
5.646651e-01
5.638452e-01
5.635557e-01
5.638479e-01
5.646711e-01
5.658971e-01
5.674036e-01
5.689291e-01
5.704178e-01
5.715797e-01
0.000000e+00
1.000000e+00
5.707985e-01
5.683047e-01
5.656488e-01
5.629326e-01
5.603578e-01
5.581953e-01
5.567399e-01
5.562269e-01
5.567476e-01
5.582107e-01
5.603860e-01
5.630082e-01
5.657187e-01
5.683649e-01
5.706046e-01
0.000000e+00
1.000000e+00
5.697217e-01
5.660679e-01
5.621462e-01
5.581370e-01
5.543363e-01
5.511443e-01
5.489963e-01
5.482400e-01
5.490096e-01
5.511693e-01
5.543771e-01
5.582166e-01
5.622173e-01
5.661274e-01
5.695453e-01
0.000000e+00
1.000000e+00
5.686031e-01
5.637320e-01
5.584890e-01
5.531294e-01
5.480487e-01
5.437818e-01
5.409107e-01
5.399006e-01
5.409298e-01
5.438167e-01
5.481016e-01
5.532158e-01
5.585605e-01
5.637906e-01
5.684352e-01
0.000000e+00
1.000000e+00
5.674868e-01
5.614034e-01
5.548436e-01
5.481381e-01
5.417815e-01
5.364434e-01
5.328519e-01
5.315888e-01
5.328768e-01
5.364886e-01
5.418468e-01
5.482331e-01
5.549162e-01
5.614620e-01
5.673285e-01
0.000000e+00
1.000000e+00
5.664305e-01
5.592008e-01
5.513968e-01
5.434188e-01
5.358562e-01
5.295056e-01
5.252333e-01
5.237311e-01
5.252641e-01
5.295610e-01
5.359341e-01
5.435251e-01
5.514708e-01
5.592586e-01
5.662803e-01
0.000000e+00
1.000000e+00
5.654973e-01
5.572451e-01
5.483375e-01
5.392302e-01
5.305975e-01
5.233488e-01
5.184725e-01
5.167584e-01
5.185085e-01
5.234134e-01
5.306877e-01
5.393483e-01
5.484161e-01
5.573015e-01
5.653617e-01
0.000000e+00
1.000000e+00
5.647432e-01
5.556464e-01
5.458365e-01
5.358060e-01
5.262987e-01
5.183160e-01
5.129462e-01
5.110586e-01
5.129858e-01
5.183877e-01
5.263983e-01
5.359315e-01
5.459263e-01
5.556944e-01
5.646260e-01
0.000000e+00
1.000000e+00
5.642044e-01
5.544895e-01
5.440264e-01
5.333281e-01
5.231883e-01
5.146747e-01
5.089476e-01
5.069342e-01
5.089894e-01
5.147508e-01
5.232943e-01
5.334502e-01
5.441379e-01
5.545298e-01
5.640580e-01
0.000000e+00
1.000000e+00
5.639024e-01
5.538263e-01
5.429894e-01
5.319090e-01
5.214071e-01
5.125894e-01
5.066576e-01
5.045718e-01
5.067000e-01
5.126669e-01
5.215167e-01
5.320189e-01
5.431197e-01
5.538815e-01
5.636059e-01
0.000000e+00
1.000000e+00
5.638463e-01
5.536744e-01
5.427514e-01
5.315835e-01
5.209987e-01
5.121111e-01
5.061320e-01
5.040291e-01
5.061736e-01
5.121874e-01
5.211109e-01
5.316815e-01
5.428782e-01
5.537682e-01
5.633632e-01
0.000000e+00
1.000000e+00
5.640191e-01
5.540152e-01
5.432841e-01
5.323129e-01
5.219142e-01
5.131827e-01
5.073083e-01
5.052418e-01
5.073479e-01
5.132552e-01
5.220242e-01
5.324009e-01
5.434085e-01
5.541973e-01
5.631471e-01
0.000000e+00
1.000000e+00
5.643900e-01
5.548011e-01
5.445146e-01
5.339976e-01
5.240292e-01
5.156587e-01
5.100269e-01
5.080453e-01
5.100636e-01
5.157257e-01
5.241287e-01
5.340864e-01
5.446413e-01
5.550441e-01
5.634057e-01
0.000000e+00
1.000000e+00
5.649357e-01
5.559663e-01
5.463395e-01
5.364963e-01
5.271664e-01
5.193319e-01
5.140605e-01
5.122054e-01
5.140939e-01
5.193926e-01
5.272502e-01
5.365937e-01
5.464617e-01
5.562582e-01
5.640811e-01
0.000000e+00
1.000000e+00
5.655832e-01
5.574359e-01
5.486382e-01
5.396436e-01
5.311184e-01
5.239599e-01
5.191437e-01
5.174493e-01
5.191756e-01
5.240175e-01
5.311930e-01
5.397489e-01
5.487566e-01
5.579042e-01
5.641214e-01
0.000000e+00
1.000000e+00
5.727171e-01
5.722301e-01
5.718013e-01
5.713562e-01
5.709342e-01
5.705798e-01
5.703410e-01
5.702560e-01
5.703397e-01
5.705780e-01
5.709361e-01
5.713895e-01
5.718369e-01
5.722802e-01
5.724595e-01
0.000000e+00
1.000000e+00
5.719437e-01
5.706435e-01
5.693146e-01
5.679515e-01
5.666592e-01
5.655738e-01
5.648429e-01
5.645847e-01
5.648452e-01
5.655795e-01
5.666749e-01
5.680051e-01
5.693604e-01
5.706960e-01
5.717113e-01
0.000000e+00
1.000000e+00
5.710357e-01
5.687715e-01
5.663818e-01
5.639360e-01
5.616173e-01
5.596699e-01
5.583589e-01
5.578966e-01
5.583654e-01
5.596834e-01
5.616440e-01
5.639986e-01
5.664452e-01
5.688320e-01
5.708241e-01
0.000000e+00
1.000000e+00
5.700104e-01
5.666526e-01
5.630633e-01
5.593924e-01
5.559124e-01
5.529896e-01
5.510225e-01
5.503296e-01
5.510339e-01
5.530115e-01
5.559495e-01
5.594587e-01
5.631262e-01
5.667104e-01
5.698103e-01
0.000000e+00
1.000000e+00
5.689053e-01
5.643531e-01
5.594629e-01
5.544629e-01
5.497230e-01
5.457421e-01
5.430632e-01
5.421203e-01
5.430799e-01
5.457730e-01
5.497710e-01
5.545357e-01
5.595288e-01
5.644129e-01
5.687151e-01
0.000000e+00
1.000000e+00
5.677602e-01
5.619671e-01
5.557277e-01
5.493486e-01
5.433015e-01
5.382232e-01
5.348062e-01
5.336040e-01
5.348285e-01
5.382639e-01
5.433616e-01
5.494304e-01
5.557958e-01
5.620276e-01
5.675787e-01
0.000000e+00
1.000000e+00
5.666312e-01
5.596109e-01
5.520403e-01
5.442999e-01
5.369626e-01
5.308012e-01
5.266559e-01
5.251978e-01
5.266841e-01
5.308521e-01
5.370363e-01
5.443919e-01
5.521110e-01
5.596737e-01
5.664564e-01
0.000000e+00
1.000000e+00
5.655856e-01
5.574150e-01
5.486047e-01
5.395960e-01
5.310568e-01
5.238866e-01
5.190630e-01
5.173668e-01
5.190968e-01
5.239474e-01
5.311446e-01
5.396996e-01
5.486786e-01
5.574789e-01
5.654089e-01
0.000000e+00
1.000000e+00
5.646836e-01
5.555101e-01
5.456248e-01
5.355159e-01
5.259346e-01
5.178898e-01
5.124781e-01
5.105754e-01
5.125165e-01
5.179592e-01
5.260355e-01
5.356284e-01
5.457043e-01
5.555759e-01
5.645018e-01
0.000000e+00
1.000000e+00
5.639756e-01
5.540115e-01
5.432804e-01
5.323065e-01
5.219057e-01
5.131731e-01
5.072988e-01
5.052334e-01
5.073405e-01
5.132489e-01
5.220152e-01
5.324268e-01
5.433658e-01
5.540760e-01
5.637932e-01
0.000000e+00
1.000000e+00
5.635051e-01
5.530058e-01
5.417069e-01
5.301525e-01
5.192020e-01
5.100079e-01
5.038230e-01
5.016481e-01
5.038664e-01
5.100873e-01
5.193141e-01
5.302779e-01
5.418044e-01
5.530654e-01
5.633572e-01
0.000000e+00
1.000000e+00
5.632916e-01
5.525414e-01
5.409799e-01
5.291575e-01
5.179529e-01
5.085454e-01
5.022167e-01
4.999909e-01
5.022604e-01
5.086256e-01
5.180640e-01
5.292764e-01
5.410939e-01
5.525980e-01
5.631593e-01
0.000000e+00
1.000000e+00
5.633258e-01
5.526259e-01
5.411108e-01
5.293365e-01
5.181773e-01
5.088077e-01
5.025043e-01
5.002871e-01
5.025471e-01
5.088861e-01
5.182872e-01
5.294436e-01
5.412293e-01
5.526830e-01
5.632591e-01
0.000000e+00
1.000000e+00
5.635988e-01
5.532284e-01
5.420514e-01
5.306238e-01
5.197928e-01
5.106986e-01
5.045803e-01
5.024279e-01
5.046210e-01
5.107730e-01
5.198982e-01
5.307274e-01
5.421660e-01
5.533022e-01
5.633496e-01
0.000000e+00
1.000000e+00
5.640876e-01
5.542874e-01
5.437068e-01
5.328901e-01
5.226376e-01
5.140287e-01
5.082368e-01
5.061990e-01
5.082746e-01
5.140973e-01
5.227324e-01
5.329981e-01
5.438084e-01
5.543762e-01
5.637616e-01
0.000000e+00
1.000000e+00
5.647580e-01
5.557233e-01
5.459525e-01
5.359652e-01
5.264984e-01
5.185490e-01
5.132005e-01
5.113185e-01
5.132348e-01
5.186109e-01
5.265802e-01
5.360765e-01
5.460537e-01
5.558667e-01
5.644660e-01
0.000000e+00
1.000000e+00
5.655904e-01
5.574480e-01
5.486525e-01
5.396624e-01
5.311407e-01
5.239847e-01
5.191697e-01
5.174752e-01
5.192001e-01
5.240394e-01
5.312112e-01
5.397757e-01
5.487641e-01
5.577976e-01
5.643042e-01
0.000000e+00
1.000000e+00
5.721078e-01
5.709677e-01
5.698244e-01
5.686493e-01
5.675352e-01
5.665993e-01
5.659689e-01
5.657459e-01
5.659700e-01
5.666028e-01
5.675462e-01
5.686837e-01
5.698573e-01
5.710161e-01
5.718573e-01
0.000000e+00
1.000000e+00
5.713164e-01
5.693343e-01
5.672649e-01
5.651449e-01
5.631351e-01
5.614467e-01
5.603100e-01
5.599088e-01
5.603148e-01
5.614576e-01
5.631574e-01
5.651880e-01
5.673033e-01
5.693829e-01
5.710941e-01
0.000000e+00
1.000000e+00
5.703878e-01
5.674119e-01
5.642537e-01
5.610221e-01
5.579584e-01
5.553850e-01
5.536528e-01
5.530422e-01
5.536618e-01
5.554032e-01
5.579902e-01
5.610743e-01
5.643074e-01
5.674666e-01
5.701870e-01
0.000000e+00
1.000000e+00
5.693412e-01
5.652422e-01
5.608560e-01
5.563701e-01
5.521174e-01
5.485455e-01
5.461415e-01
5.452947e-01
5.461551e-01
5.485715e-01
5.521587e-01
5.564281e-01
5.609115e-01
5.652971e-01
5.691508e-01
0.000000e+00
1.000000e+00
5.682147e-01
5.628968e-01
5.571841e-01
5.513427e-01
5.458051e-01
5.411543e-01
5.380246e-01
5.369228e-01
5.380434e-01
5.411894e-01
5.458582e-01
5.514092e-01
5.572434e-01
5.629544e-01
5.680370e-01
0.000000e+00
1.000000e+00
5.670537e-01
5.604774e-01
5.533975e-01
5.461581e-01
5.392956e-01
5.335326e-01
5.296548e-01
5.282902e-01
5.296793e-01
5.335777e-01
5.393626e-01
5.462351e-01
5.534605e-01
5.605373e-01
5.668874e-01
0.000000e+00
1.000000e+00
5.659217e-01
5.581107e-01
5.496942e-01
5.410878e-01
5.329298e-01
5.260793e-01
5.214704e-01
5.198489e-01
5.215007e-01
5.261348e-01
5.330125e-01
5.411761e-01
5.497615e-01
5.581737e-01
5.657634e-01
0.000000e+00
1.000000e+00
5.648904e-01
5.559379e-01
5.462945e-01
5.364330e-01
5.270859e-01
5.192375e-01
5.139575e-01
5.121004e-01
5.139932e-01
5.193027e-01
5.271841e-01
5.365322e-01
5.463656e-01
5.560027e-01
5.647291e-01
0.000000e+00
1.000000e+00
5.640224e-01
5.540980e-01
5.434157e-01
5.324915e-01
5.221380e-01
5.134451e-01
5.075971e-01
5.055403e-01
5.076371e-01
5.135185e-01
5.222486e-01
5.326027e-01
5.434897e-01
5.541638e-01
5.638558e-01
0.000000e+00
1.000000e+00
5.633730e-01
5.527109e-01
5.412458e-01
5.295213e-01
5.184099e-01
5.090808e-01
5.028049e-01
5.005974e-01
5.028477e-01
5.091602e-01
5.185266e-01
5.296485e-01
5.413226e-01
5.527757e-01
5.631965e-01
0.000000e+00
1.000000e+00
5.629824e-01
5.518639e-01
5.399206e-01
5.277079e-01
5.161340e-01
5.064165e-01
4.998790e-01
4.975795e-01
4.999234e-01
5.064991e-01
5.162504e-01
5.278465e-01
5.400108e-01
5.519287e-01
5.627967e-01
0.000000e+00
1.000000e+00
5.628608e-01
5.516000e-01
5.395078e-01
5.271431e-01
5.154251e-01
5.055864e-01
4.989673e-01
4.966389e-01
4.990119e-01
5.056694e-01
5.155380e-01
5.272779e-01
5.396176e-01
5.516627e-01
5.626665e-01
0.000000e+00
1.000000e+00
5.629945e-01
5.519164e-01
5.400030e-01
5.278205e-01
5.162749e-01
5.065810e-01
5.000592e-01
4.977649e-01
5.001029e-01
5.066617e-01
5.163847e-01
5.279407e-01
5.401219e-01
5.519791e-01
5.628595e-01
0.000000e+00
1.000000e+00
5.633792e-01
5.527701e-01
5.413372e-01
5.296463e-01
5.185661e-01
5.092629e-01
5.030040e-01
5.008021e-01
5.030455e-01
5.093390e-01
5.186692e-01
5.297619e-01
5.414546e-01
5.528404e-01
5.631557e-01
0.000000e+00
1.000000e+00
5.639875e-01
5.540856e-01
5.433934e-01
5.324612e-01
5.220994e-01
5.133991e-01
5.075457e-01
5.054863e-01
5.075841e-01
5.134687e-01
5.221914e-01
5.325823e-01
5.434897e-01
5.541577e-01
5.637502e-01
0.000000e+00
1.000000e+00
5.647828e-01
5.557706e-01
5.460274e-01
5.360677e-01
5.266272e-01
5.186999e-01
5.133663e-01
5.114898e-01
5.134010e-01
5.187621e-01
5.267076e-01
5.361871e-01
5.461198e-01
5.558793e-01
5.645872e-01
0.000000e+00
1.000000e+00
5.657272e-01
5.577251e-01
5.490864e-01
5.402564e-01
5.318865e-01
5.248578e-01
5.201285e-01
5.184643e-01
5.201588e-01
5.249121e-01
5.319573e-01
5.403735e-01
5.491853e-01
5.579817e-01
5.647003e-01
0.000000e+00
1.000000e+00
5.716335e-01
5.699826e-01
5.682820e-01
5.665375e-01
5.648835e-01
5.634939e-01
5.625581e-01
5.622275e-01
5.625612e-01
5.635014e-01
5.648993e-01
5.665658e-01
5.683087e-01
5.700183e-01
5.713680e-01
0.000000e+00
1.000000e+00
5.708319e-01
5.683244e-01
5.656839e-01
5.629803e-01
5.604170e-01
5.582637e-01
5.568139e-01
5.563024e-01
5.568204e-01
5.582773e-01
5.604409e-01
5.630146e-01
5.657138e-01
5.683671e-01
5.706170e-01
0.000000e+00
1.000000e+00
5.698938e-01
5.663753e-01
5.626310e-01
5.588003e-01
5.551686e-01
5.521181e-01
5.500646e-01
5.493407e-01
5.500749e-01
5.521384e-01
5.552010e-01
5.588442e-01
5.626756e-01
5.664257e-01
5.697010e-01
0.000000e+00
1.000000e+00
5.688364e-01
5.641792e-01
5.591922e-01
5.540921e-01
5.492570e-01
5.451960e-01
5.424627e-01
5.414998e-01
5.424776e-01
5.452244e-01
5.492998e-01
5.541431e-01
5.592402e-01
5.642320e-01
5.686466e-01
0.000000e+00
1.000000e+00
5.677006e-01
5.618120e-01
5.554870e-01
5.490191e-01
5.428877e-01
5.377382e-01
5.342728e-01
5.330526e-01
5.342930e-01
5.377760e-01
5.429438e-01
5.490797e-01
5.555408e-01
5.618693e-01
5.675204e-01
0.000000e+00
1.000000e+00
5.665384e-01
5.593827e-01
5.516856e-01
5.438144e-01
5.363530e-01
5.300872e-01
5.258710e-01
5.243871e-01
5.258970e-01
5.301353e-01
5.364250e-01
5.438853e-01
5.517446e-01
5.594442e-01
5.663657e-01
0.000000e+00
1.000000e+00
5.654168e-01
5.570268e-01
5.479994e-01
5.387675e-01
5.300169e-01
5.226689e-01
5.177251e-01
5.159855e-01
5.177568e-01
5.227275e-01
5.301059e-01
5.388494e-01
5.480630e-01
5.570923e-01
5.652478e-01
0.000000e+00
1.000000e+00
5.644063e-01
5.548941e-01
5.446624e-01
5.341988e-01
5.242815e-01
5.159544e-01
5.103521e-01
5.083811e-01
5.103889e-01
5.160226e-01
5.243860e-01
5.342947e-01
5.447290e-01
5.549622e-01
5.642361e-01
0.000000e+00
1.000000e+00
5.635764e-01
5.531312e-01
5.419036e-01
5.304222e-01
5.195411e-01
5.104050e-01
5.042584e-01
5.020960e-01
5.042990e-01
5.104807e-01
5.196563e-01
5.305356e-01
5.419718e-01
5.532009e-01
5.633987e-01
0.000000e+00
1.000000e+00
5.629912e-01
5.518627e-01
5.399176e-01
5.277044e-01
5.161300e-01
5.064118e-01
4.998734e-01
4.975730e-01
4.999166e-01
5.064928e-01
5.162498e-01
5.278377e-01
5.399906e-01
5.519308e-01
5.627940e-01
0.000000e+00
1.000000e+00
5.626840e-01
5.511743e-01
5.388390e-01
5.262287e-01
5.142781e-01
5.042437e-01
4.974924e-01
4.951170e-01
4.975368e-01
5.043272e-01
5.143963e-01
5.263752e-01
5.389259e-01
5.512359e-01
5.624706e-01
0.000000e+00
1.000000e+00
5.626439e-01
5.511011e-01
5.387258e-01
5.260740e-01
5.140838e-01
5.040159e-01
4.972421e-01
4.948588e-01
4.972866e-01
5.040991e-01
5.141971e-01
5.262194e-01
5.388301e-01
5.511599e-01
5.624303e-01
0.000000e+00
1.000000e+00
5.628639e-01
5.516317e-01
5.395577e-01
5.272116e-01
5.155112e-01
5.056869e-01
4.990770e-01
4.967513e-01
4.991202e-01
5.057670e-01
5.156200e-01
5.273447e-01
5.396637e-01
5.516903e-01
5.627115e-01
0.000000e+00
1.000000e+00
5.633509e-01
5.527115e-01
5.412456e-01
5.295211e-01
5.184094e-01
5.090795e-01
5.028024e-01
5.005939e-01
5.028434e-01
5.091545e-01
5.185102e-01
5.296462e-01
5.413500e-01
5.527740e-01
5.631704e-01
0.000000e+00
1.000000e+00
5.640717e-01
5.542506e-01
5.436520e-01
5.328154e-01
5.225444e-01
5.139202e-01
5.081179e-01
5.060765e-01
5.081558e-01
5.139886e-01
5.226341e-01
5.329408e-01
5.437430e-01
5.543093e-01
5.638898e-01
0.000000e+00
1.000000e+00
5.649649e-01
5.561456e-01
5.466152e-01
5.368728e-01
5.276381e-01
5.198836e-01
5.146662e-01
5.128307e-01
5.147004e-01
5.199444e-01
5.277175e-01
5.369914e-01
5.467015e-01
5.562227e-01
5.648479e-01
0.000000e+00
1.000000e+00
5.659986e-01
5.582888e-01
5.499690e-01
5.414651e-01
5.334043e-01
5.266349e-01
5.220800e-01
5.204774e-01
5.221097e-01
5.266878e-01
5.334756e-01
5.415786e-01
5.500572e-01
5.584585e-01
5.652701e-01
0.000000e+00
1.000000e+00
5.713337e-01
5.693539e-01
5.672982e-01
5.651904e-01
5.631920e-01
5.615131e-01
5.603825e-01
5.599833e-01
5.603867e-01
5.615225e-01
5.632086e-01
5.652126e-01
5.673201e-01
5.693511e-01
5.710713e-01
0.000000e+00
1.000000e+00
5.705369e-01
5.677011e-01
5.647084e-01
5.616446e-01
5.587398e-01
5.562996e-01
5.546566e-01
5.540770e-01
5.546638e-01
5.563141e-01
5.587629e-01
5.616718e-01
5.647327e-01
5.677293e-01
5.702604e-01
0.000000e+00
1.000000e+00
5.695990e-01
5.657571e-01
5.616636e-01
5.574757e-01
5.535055e-01
5.501705e-01
5.479255e-01
5.471340e-01
5.479363e-01
5.501915e-01
5.535372e-01
5.575128e-01
5.617014e-01
5.658034e-01
5.693791e-01
0.000000e+00
1.000000e+00
5.685449e-01
5.635669e-01
5.582348e-01
5.527814e-01
5.476115e-01
5.432692e-01
5.403465e-01
5.393167e-01
5.403619e-01
5.432984e-01
5.476545e-01
5.528262e-01
5.582784e-01
5.636193e-01
5.683446e-01
0.000000e+00
1.000000e+00
5.674185e-01
5.612104e-01
5.545466e-01
5.477318e-01
5.412716e-01
5.358460e-01
5.321947e-01
5.309089e-01
5.322154e-01
5.358849e-01
5.413290e-01
5.477853e-01
5.545970e-01
5.612687e-01
5.672300e-01
0.000000e+00
1.000000e+00
5.662725e-01
5.588014e-01
5.507769e-01
5.425704e-01
5.347915e-01
5.282589e-01
5.238632e-01
5.223158e-01
5.238897e-01
5.283084e-01
5.348655e-01
5.426342e-01
5.508327e-01
5.588653e-01
5.660887e-01
0.000000e+00
1.000000e+00
5.651735e-01
5.564817e-01
5.471468e-01
5.376004e-01
5.285520e-01
5.209539e-01
5.158415e-01
5.140424e-01
5.158737e-01
5.210137e-01
5.286429e-01
5.376779e-01
5.472076e-01
5.565495e-01
5.649865e-01
0.000000e+00
1.000000e+00
5.641930e-01
5.544072e-01
5.439003e-01
5.331563e-01
5.229733e-01
5.144229e-01
5.086699e-01
5.066456e-01
5.087067e-01
5.144917e-01
5.230792e-01
5.332493e-01
5.439642e-01
5.544791e-01
5.640012e-01
0.000000e+00
1.000000e+00
5.634086e-01
5.527304e-01
5.412754e-01
5.295637e-01
5.184641e-01
5.091441e-01
5.028732e-01
5.006666e-01
5.029135e-01
5.092197e-01
5.185802e-01
5.296755e-01
5.413406e-01
5.528022e-01
5.632050e-01
0.000000e+00
1.000000e+00
5.628887e-01
5.515803e-01
5.394708e-01
5.270947e-01
5.153654e-01
5.055163e-01
4.988892e-01
4.965571e-01
4.989316e-01
5.055962e-01
5.154858e-01
5.272254e-01
5.395404e-01
5.516473e-01
5.626580e-01
0.000000e+00
1.000000e+00
5.626618e-01
5.510388e-01
5.386184e-01
5.259288e-01
5.139020e-01
5.038028e-01
4.970073e-01
4.946158e-01
4.970506e-01
5.038843e-01
5.140204e-01
5.260732e-01
5.386966e-01
5.510972e-01
5.623991e-01
0.000000e+00
1.000000e+00
5.626811e-01
5.511297e-01
5.387665e-01
5.261314e-01
5.141561e-01
5.041001e-01
4.973338e-01
4.949526e-01
4.973768e-01
5.041806e-01
5.142692e-01
5.262778e-01
5.388545e-01
5.511897e-01
5.624431e-01
0.000000e+00
1.000000e+00
5.629602e-01
5.518375e-01
5.398802e-01
5.276541e-01
5.160672e-01
5.063376e-01
4.997910e-01
4.974872e-01
4.998327e-01
5.064147e-01
5.161751e-01
5.277906e-01
5.399661e-01
5.519002e-01
5.627965e-01
0.000000e+00
1.000000e+00
5.635457e-01
5.530996e-01
5.418536e-01
5.303540e-01
5.194554e-01
5.103041e-01
5.041470e-01
5.019803e-01
5.041863e-01
5.103761e-01
5.195548e-01
5.304810e-01
5.419389e-01
5.531624e-01
5.633871e-01
0.000000e+00
1.000000e+00
5.643452e-01
5.548123e-01
5.445322e-01
5.340211e-01
5.240585e-01
5.156929e-01
5.100643e-01
5.080840e-01
5.101006e-01
5.157581e-01
5.241464e-01
5.341439e-01
5.446093e-01
5.548652e-01
5.642443e-01
0.000000e+00
1.000000e+00
5.653140e-01
5.568643e-01
5.477410e-01
5.384141e-01
5.295739e-01
5.221506e-01
5.171557e-01
5.153983e-01
5.171880e-01
5.222083e-01
5.296521e-01
5.385270e-01
5.478162e-01
5.569216e-01
5.652983e-01
0.000000e+00
1.000000e+00
5.664090e-01
5.591416e-01
5.513041e-01
5.432930e-01
5.356994e-01
5.293230e-01
5.250323e-01
5.235222e-01
5.250599e-01
5.293731e-01
5.357704e-01
5.433984e-01
5.513817e-01
5.592533e-01
5.659149e-01
0.000000e+00
1.000000e+00
5.712400e-01
5.691498e-01
5.669791e-01
5.647536e-01
5.626436e-01
5.608709e-01
5.596771e-01
5.592556e-01
5.596814e-01
5.608804e-01
5.626585e-01
5.647700e-01
5.669963e-01
5.690879e-01
5.712855e-01
0.000000e+00
1.000000e+00
5.704611e-01
5.675392e-01
5.644552e-01
5.612980e-01
5.583046e-01
5.557901e-01
5.540970e-01
5.534997e-01
5.541041e-01
5.558043e-01
5.583257e-01
5.613190e-01
5.644756e-01
5.675220e-01
5.701763e-01
0.000000e+00
1.000000e+00
5.695470e-01
5.656390e-01
5.614795e-01
5.572238e-01
5.531893e-01
5.498004e-01
5.475190e-01
5.467146e-01
5.475296e-01
5.498210e-01
5.532192e-01
5.572537e-01
5.615120e-01
5.656604e-01
5.692866e-01
0.000000e+00
1.000000e+00
5.685219e-01
5.634951e-01
5.581232e-01
5.526287e-01
5.474199e-01
5.430449e-01
5.401002e-01
5.390626e-01
5.401154e-01
5.430738e-01
5.474614e-01
5.526665e-01
5.581628e-01
5.635343e-01
5.682850e-01
0.000000e+00
1.000000e+00
5.674202e-01
5.611883e-01
5.545124e-01
5.476849e-01
5.412127e-01
5.357771e-01
5.321191e-01
5.308308e-01
5.321396e-01
5.358159e-01
5.412684e-01
5.477331e-01
5.545610e-01
5.612430e-01
5.672075e-01
0.000000e+00
1.000000e+00
5.663004e-01
5.588344e-01
5.508282e-01
5.426405e-01
5.348794e-01
5.283619e-01
5.239763e-01
5.224323e-01
5.240024e-01
5.284110e-01
5.349512e-01
5.426993e-01
5.508834e-01
5.588994e-01
5.660978e-01
0.000000e+00
1.000000e+00
5.652316e-01
5.565780e-01
5.472966e-01
5.378054e-01
5.288093e-01
5.212552e-01
5.161724e-01
5.143834e-01
5.162038e-01
5.213143e-01
5.288979e-01
5.378775e-01
5.473562e-01
5.566488e-01
5.650279e-01
0.000000e+00
1.000000e+00
5.642932e-01
5.545789e-01
5.441673e-01
5.335218e-01
5.234323e-01
5.149603e-01
5.092598e-01
5.072536e-01
5.092956e-01
5.150277e-01
5.235358e-01
5.336088e-01
5.442295e-01
5.546515e-01
5.640777e-01
0.000000e+00
1.000000e+00
5.635655e-01
5.529935e-01
5.416824e-01
5.301216e-01
5.191647e-01
5.099640e-01
5.037730e-01
5.015941e-01
5.038117e-01
5.100372e-01
5.192784e-01
5.302249e-01
5.417460e-01
5.530643e-01
5.633214e-01
0.000000e+00
1.000000e+00
5.631113e-01
5.519538e-01
5.400425e-01
5.278784e-01
5.163491e-01
5.066672e-01
5.001522e-01
4.978591e-01
5.001926e-01
5.067435e-01
5.164668e-01
5.279976e-01
5.401075e-01
5.520121e-01
5.628167e-01
0.000000e+00
1.000000e+00
5.629735e-01
5.515381e-01
5.393761e-01
5.269669e-01
5.152044e-01
5.053265e-01
4.986796e-01
4.963401e-01
4.987206e-01
5.054034e-01
5.153203e-01
5.270980e-01
5.394443e-01
5.515799e-01
5.626094e-01
0.000000e+00
1.000000e+00
5.629972e-01
5.517480e-01
5.397224e-01
5.274406e-01
5.157991e-01
5.060229e-01
4.994445e-01
4.971290e-01
4.994850e-01
5.060982e-01
5.159102e-01
5.275752e-01
5.397962e-01
5.517983e-01
5.627051e-01
0.000000e+00
1.000000e+00
5.633272e-01
5.525766e-01
5.410357e-01
5.292372e-01
5.180543e-01
5.086637e-01
5.023449e-01
5.001208e-01
5.023838e-01
5.087355e-01
5.181603e-01
5.293633e-01
5.411091e-01
5.526373e-01
5.631063e-01
0.000000e+00
1.000000e+00
5.639641e-01
5.539581e-01
5.431988e-01
5.321972e-01
5.217699e-01
5.130137e-01
5.071218e-01
5.050483e-01
5.071584e-01
5.130803e-01
5.218668e-01
5.323144e-01
5.432729e-01
5.540195e-01
5.637496e-01
0.000000e+00
1.000000e+00
5.648133e-01
5.557790e-01
5.460464e-01
5.360948e-01
5.266632e-01
5.187433e-01
5.134137e-01
5.115380e-01
5.134468e-01
5.188033e-01
5.267489e-01
5.362071e-01
5.461155e-01
5.558324e-01
5.646615e-01
0.000000e+00
1.000000e+00
5.658227e-01
5.579211e-01
5.493954e-01
5.406790e-01
5.324179e-01
5.254816e-01
5.208142e-01
5.191712e-01
5.208433e-01
5.255351e-01
5.324942e-01
5.407803e-01
5.494635e-01
5.579718e-01
5.657897e-01
0.000000e+00
1.000000e+00
5.669504e-01
5.602660e-01
5.530643e-01
5.457024e-01
5.387243e-01
5.328652e-01
5.289235e-01
5.275359e-01
5.289481e-01
5.329121e-01
5.387930e-01
5.457956e-01
5.531344e-01
5.603438e-01
5.666367e-01
0.000000e+00
1.000000e+00
5.713728e-01
5.694170e-01
5.673982e-01
5.653275e-01
5.633642e-01
5.617148e-01
5.606040e-01
5.602118e-01
5.606078e-01
5.617232e-01
5.633764e-01
5.653394e-01
5.674135e-01
5.693683e-01
5.721155e-01
0.000000e+00
1.000000e+00
5.706363e-01
5.678894e-01
5.650039e-01
5.620495e-01
5.592484e-01
5.568954e-01
5.553111e-01
5.547521e-01
5.553176e-01
5.569085e-01
5.592666e-01
5.620656e-01
5.650213e-01
5.678267e-01
5.707565e-01
0.000000e+00
1.000000e+00
5.697655e-01
5.660765e-01
5.621648e-01
5.581623e-01
5.543678e-01
5.511805e-01
5.490349e-01
5.482784e-01
5.490449e-01
5.512000e-01
5.543945e-01
5.581872e-01
5.621943e-01
5.660517e-01
5.697167e-01
0.000000e+00
1.000000e+00
5.687788e-01
5.640230e-01
5.589494e-01
5.537597e-01
5.488399e-01
5.447078e-01
5.419267e-01
5.409467e-01
5.419411e-01
5.447355e-01
5.488776e-01
5.537933e-01
5.589886e-01
5.640270e-01
5.686447e-01
0.000000e+00
1.000000e+00
5.677163e-01
5.618072e-01
5.554804e-01
5.490100e-01
5.428766e-01
5.377255e-01
5.342590e-01
5.330382e-01
5.342786e-01
5.377627e-01
5.429278e-01
5.490538e-01
5.555295e-01
5.618482e-01
5.674891e-01
0.000000e+00
1.000000e+00
5.666391e-01
5.595436e-01
5.519373e-01
5.441588e-01
5.367863e-01
5.305949e-01
5.264286e-01
5.249619e-01
5.264535e-01
5.306421e-01
5.368529e-01
5.442133e-01
5.519934e-01
5.596083e-01
5.664311e-01
0.000000e+00
1.000000e+00
5.656134e-01
5.573767e-01
5.485453e-01
5.395150e-01
5.309570e-01
5.237701e-01
5.189341e-01
5.172320e-01
5.189640e-01
5.238267e-01
5.310399e-01
5.395811e-01
5.486063e-01
5.574499e-01
5.654158e-01
0.000000e+00
1.000000e+00
5.647164e-01
5.554666e-01
5.455541e-01
5.354210e-01
5.258182e-01
5.177537e-01
5.123272e-01
5.104174e-01
5.123611e-01
5.178179e-01
5.259157e-01
5.354995e-01
5.456178e-01
5.555403e-01
5.645075e-01
0.000000e+00
1.000000e+00
5.640311e-01
5.539704e-01
5.432056e-01
5.322082e-01
5.217855e-01
5.130316e-01
5.071413e-01
5.050681e-01
5.071778e-01
5.131007e-01
5.218929e-01
5.322990e-01
5.432699e-01
5.540369e-01
5.637912e-01
0.000000e+00
1.000000e+00
5.636687e-01
5.530251e-01
5.417001e-01
5.301481e-01
5.191978e-01
5.100015e-01
5.038134e-01
5.016352e-01
5.038512e-01
5.100729e-01
5.193098e-01
5.302501e-01
5.417614e-01
5.530616e-01
5.633508e-01
0.000000e+00
1.000000e+00
5.636921e-01
5.527027e-01
5.411610e-01
5.294090e-01
5.182690e-01
5.089140e-01
5.026189e-01
5.004029e-01
5.026569e-01
5.089851e-01
5.183803e-01
5.295201e-01
5.412202e-01
5.527003e-01
5.631981e-01
0.000000e+00
1.000000e+00
5.637135e-01
5.529805e-01
5.416215e-01
5.300392e-01
5.190602e-01
5.098405e-01
5.036364e-01
5.014524e-01
5.036735e-01
5.099095e-01
5.191674e-01
5.301544e-01
5.416825e-01
5.529830e-01
5.633277e-01
0.000000e+00
1.000000e+00
5.639806e-01
5.538579e-01
5.430307e-01
5.319688e-01
5.214831e-01
5.126770e-01
5.067513e-01
5.046654e-01
5.067867e-01
5.127422e-01
5.215845e-01
5.320760e-01
5.430917e-01
5.538763e-01
5.637651e-01
0.000000e+00
1.000000e+00
5.646078e-01
5.552789e-01
5.452656e-01
5.350286e-01
5.253263e-01
5.171774e-01
5.116929e-01
5.097622e-01
5.117253e-01
5.172367e-01
5.254178e-01
5.351299e-01
5.453302e-01
5.553016e-01
5.644335e-01
0.000000e+00
1.000000e+00
5.654634e-01
5.571298e-01
5.481608e-01
5.389896e-01
5.302988e-01
5.230017e-01
5.180902e-01
5.163603e-01
5.181186e-01
5.230552e-01
5.303804e-01
5.390870e-01
5.482216e-01
5.571492e-01
5.653379e-01
0.000000e+00
1.000000e+00
5.664784e-01
5.592842e-01
5.515292e-01
5.435998e-01
5.360848e-01
5.297757e-01
5.255313e-01
5.240363e-01
5.255564e-01
5.298243e-01
5.361573e-01
5.436867e-01
5.515898e-01
5.593064e-01
5.664280e-01
0.000000e+00
1.000000e+00
5.676012e-01
5.616226e-01
5.551881e-01
5.486098e-01
5.423743e-01
5.371388e-01
5.336173e-01
5.323783e-01
5.336396e-01
5.371812e-01
5.424396e-01
5.486900e-01
5.552519e-01
5.616681e-01
5.673832e-01
0.000000e+00
1.000000e+00
5.717478e-01
5.701719e-01
5.685819e-01
5.669485e-01
5.653999e-01
5.640990e-01
5.632228e-01
5.629134e-01
5.632255e-01
5.641053e-01
5.654085e-01
5.669588e-01
5.686027e-01
5.702515e-01
5.727795e-01
0.000000e+00
1.000000e+00
5.710640e-01
5.687683e-01
5.663810e-01
5.639350e-01
5.616162e-01
5.596685e-01
5.583572e-01
5.578945e-01
5.583626e-01
5.596801e-01
5.616319e-01
5.639510e-01
5.664031e-01
5.687445e-01
5.716920e-01
0.000000e+00
1.000000e+00
5.702543e-01
5.670857e-01
5.637451e-01
5.603258e-01
5.570843e-01
5.543619e-01
5.525293e-01
5.518833e-01
5.525383e-01
5.543798e-01
5.571079e-01
5.603489e-01
5.637754e-01
5.670435e-01
5.705106e-01
0.000000e+00
1.000000e+00
5.693333e-01
5.651648e-01
5.607363e-01
5.562061e-01
5.519116e-01
5.483050e-01
5.458777e-01
5.450226e-01
5.458910e-01
5.483308e-01
5.519451e-01
5.562373e-01
5.607756e-01
5.651325e-01
5.694440e-01
0.000000e+00
1.000000e+00
5.683361e-01
5.630792e-01
5.574708e-01
5.517349e-01
5.462980e-01
5.417323e-01
5.386599e-01
5.375781e-01
5.386781e-01
5.417671e-01
5.463438e-01
5.517762e-01
5.575215e-01
5.630849e-01
5.681352e-01
0.000000e+00
1.000000e+00
5.673178e-01
5.609390e-01
5.541204e-01
5.471479e-01
5.405395e-01
5.349902e-01
5.312561e-01
5.299418e-01
5.312792e-01
5.350344e-01
5.405993e-01
5.471990e-01
5.541811e-01
5.609900e-01
5.670199e-01
0.000000e+00
1.000000e+00
5.663495e-01
5.588846e-01
5.509037e-01
5.427443e-01
5.350116e-01
5.285184e-01
5.241490e-01
5.226112e-01
5.241765e-01
5.285712e-01
5.350861e-01
5.428043e-01
5.509697e-01
5.589549e-01
5.660776e-01
0.000000e+00
1.000000e+00
5.655065e-01
5.570723e-01
5.480636e-01
5.388572e-01
5.301327e-01
5.228061e-01
5.178757e-01
5.161404e-01
5.179066e-01
5.228654e-01
5.302206e-01
5.389259e-01
5.481314e-01
5.571430e-01
5.652402e-01
0.000000e+00
1.000000e+00
5.648662e-01
5.556559e-01
5.458368e-01
5.358110e-01
5.263087e-01
5.183283e-01
5.129577e-01
5.110674e-01
5.129909e-01
5.183917e-01
5.264065e-01
5.358873e-01
5.459030e-01
5.557119e-01
5.646129e-01
0.000000e+00
1.000000e+00
5.645318e-01
5.547688e-01
5.444195e-01
5.338712e-01
5.238722e-01
5.154751e-01
5.098237e-01
5.078345e-01
5.098579e-01
5.155398e-01
5.239754e-01
5.339541e-01
5.444789e-01
5.547869e-01
5.642750e-01
0.000000e+00
1.000000e+00
5.645944e-01
5.544764e-01
5.439329e-01
5.332035e-01
5.230330e-01
5.144918e-01
5.087439e-01
5.067206e-01
5.087782e-01
5.145563e-01
5.231367e-01
5.332918e-01
5.439855e-01
5.544516e-01
5.642291e-01
0.000000e+00
1.000000e+00
5.647425e-01
5.547735e-01
5.444095e-01
5.338555e-01
5.238511e-01
5.154493e-01
5.097958e-01
5.078054e-01
5.098290e-01
5.155119e-01
5.239517e-01
5.339452e-01
5.444590e-01
5.547388e-01
5.644340e-01
0.000000e+00
1.000000e+00
5.649491e-01
5.556438e-01
5.457985e-01
5.357586e-01
5.262408e-01
5.182466e-01
5.128665e-01
5.109725e-01
5.128977e-01
5.183042e-01
5.263341e-01
5.358397e-01
5.458470e-01
5.556164e-01
5.649145e-01
0.000000e+00
1.000000e+00
5.654581e-01
5.570168e-01
5.479783e-01
5.387433e-01
5.299911e-01
5.226401e-01
5.176908e-01
5.159476e-01
5.177181e-01
5.226913e-01
5.300744e-01
5.388218e-01
5.480323e-01
5.570079e-01
5.656152e-01
0.000000e+00
1.000000e+00
5.662741e-01
5.588105e-01
5.507906e-01
5.425900e-01
5.348193e-01
5.282955e-01
5.239045e-01
5.223564e-01
5.239278e-01
5.283421e-01
5.348946e-01
5.426669e-01
5.508428e-01
5.588059e-01
5.664741e-01
0.000000e+00
1.000000e+00
5.672518e-01
5.608952e-01
5.540511e-01
5.470523e-01
5.404193e-01
5.348509e-01
5.311055e-01