<?xml version="1.0"?>
<VTKFile type="StructuredGrid" version="0.1">
  <StructuredGrid WholeExtent="0 180 0 16 0 0">
    <Piece Extent="0 180 0 16 0 0">
      <PointData Scalars="temperature" Vectors="velocity">
        <DataArray type="Float32" Name="density" NumberOfComponents="4" format="ascii">
1.7077e+00 1.7380e+00 1.7380e+00 1.7106e+00
1.7074e+00 1.7378e+00 1.7378e+00 1.7104e+00
1.7071e+00 1.7376e+00 1.7376e+00 1.7101e+00
1.7068e+00 1.7373e+00 1.7373e+00 1.7098e+00
1.7065e+00 1.7371e+00 1.7371e+00 1.7095e+00
1.7062e+00 1.7368e+00 1.7368e+00 1.7092e+00
1.7059e+00 1.7365e+00 1.7365e+00 1.7088e+00
1.7056e+00 1.7362e+00 1.7362e+00 1.7085e+00
1.7052e+00 1.7360e+00 1.7360e+00 1.7082e+00
1.7049e+00 1.7357e+00 1.7357e+00 1.7078e+00
1.7045e+00 1.7354e+00 1.7354e+00 1.7075e+00
1.7042e+00 1.7351e+00 1.7351e+00 1.7071e+00
1.7038e+00 1.7348e+00 1.7348e+00 1.7068e+00
1.7035e+00 1.7345e+00 1.7345e+00 1.7064e+00
1.7031e+00 1.7342e+00 1.7342e+00 1.7061e+00
1.7027e+00 1.7338e+00 1.7338e+00 1.7057e+00
1.7024e+00 1.7335e+00 1.7335e+00 1.7053e+00
1.7020e+00 1.7332e+00 1.7332e+00 1.7049e+00
1.7016e+00 1.7329e+00 1.7329e+00 1.7045e+00
1.7012e+00 1.7326e+00 1.7326e+00 1.7042e+00
1.7008e+00 1.7322e+00 1.7322e+00 1.7038e+00
1.7004e+00 1.7319e+00 1.7319e+00 1.7034e+00
1.7000e+00 1.7316e+00 1.7316e+00 1.7030e+00
1.6996e+00 1.7312e+00 1.7312e+00 1.7026e+00
1.6992e+00 1.7309e+00 1.7309e+00 1.7022e+00
1.6988e+00 1.7306e+00 1.7306e+00 1.7018e+00
1.6984e+00 1.7302e+00 1.7302e+00 1.7014e+00
1.6980e+00 1.7299e+00 1.7299e+00 1.7010e+00
1.6976e+00 1.7295e+00 1.7295e+00 1.7006e+00
1.6972e+00 1.7292e+00 1.7292e+00 1.7002e+00
1.6968e+00 1.7288e+00 1.7288e+00 1.6997e+00
1.6964e+00 1.7285e+00 1.7285e+00 1.6993e+00
1.6960e+00 1.7281e+00 1.7281e+00 1.6989e+00
1.6955e+00 1.7278e+00 1.7278e+00 1.6985e+00
1.6951e+00 1.7274e+00 1.7274e+00 1.6981e+00
1.6947e+00 1.7271e+00 1.7271e+00 1.6977e+00
1.6943e+00 1.7267e+00 1.7267e+00 1.6972e+00
1.6939e+00 1.7264e+00 1.7264e+00 1.6968e+00
1.6934e+00 1.7260e+00 1.7260e+00 1.6964e+00
1.6930e+00 1.7257e+00 1.7257e+00 1.6960e+00
1.6926e+00 1.7253e+00 1.7253e+00 1.6955e+00
1.6922e+00 1.7250e+00 1.7250e+00 1.6951e+00
1.6917e+00 1.7246e+00 1.7246e+00 1.6947e+00
1.6913e+00 1.7242e+00 1.7242e+00 1.6943e+00
1.6909e+00 1.7239e+00 1.7239e+00 1.6938e+00
1.6904e+00 1.7235e+00 1.7235e+00 1.6934e+00
1.6900e+00 1.7232e+00 1.7232e+00 1.6930e+00
1.6896e+00 1.7228e+00 1.7228e+00 1.6925e+00
1.6891e+00 1.7224e+00 1.7224e+00 1.6921e+00
1.6887e+00 1.7221e+00 1.7221e+00 1.6917e+00
1.6883e+00 1.7217e+00 1.7217e+00 1.6912e+00
1.6878e+00 1.7213e+00 1.7213e+00 1.6908e+00
1.6874e+00 1.7210e+00 1.7210e+00 1.6904e+00
1.6870e+00 1.7206e+00 1.7206e+00 1.6899e+00
1.6865e+00 1.7202e+00 1.7202e+00 1.6895e+00
1.6861e+00 1.7199e+00 1.7199e+00 1.6890e+00
1.6856e+00 1.7195e+00 1.7195e+00 1.6886e+00
1.6852e+00 1.7191e+00 1.7191e+00 1.6882e+00
1.6848e+00 1.7188e+00 1.7188e+00 1.6877e+00
1.6843e+00 1.7184e+00 1.7184e+00 1.6873e+00
1.6839e+00 1.7180e+00 1.7180e+00 1.6868e+00
1.6834e+00 1.7176e+00 1.7176e+00 1.6864e+00
1.6830e+00 1.7173e+00 1.7173e+00 1.6860e+00
1.6826e+00 1.7169e+00 1.7169e+00 1.6855e+00
1.6821e+00 1.7165e+00 1.7165e+00 1.6851e+00
1.6817e+00 1.7162e+00 1.7162e+00 1.6846e+00
1.6812e+00 1.7158e+00 1.7158e+00 1.6842e+00
1.6808e+00 1.7154e+00 1.7154e+00 1.6837e+00
1.6803e+00 1.7150e+00 1.7150e+00 1.6833e+00
1.6799e+00 1.7147e+00 1.7147e+00 1.6828e+00
1.6794e+00 1.7143e+00 1.7143e+00 1.6824e+00
1.6790e+00 1.7139e+00 1.7139e+00 1.6819e+00
1.6781e+00 1.7135e+00 1.7135e+00 1.6810e+00
1.6776e+00 1.7132e+00 1.7132e+00 1.6806e+00
1.6772e+00 1.7128e+00 1.7128e+00 1.6801e+00
1.6767e+00 1.7124e+00 1.7124e+00 1.6797e+00
1.6763e+00 1.7120e+00 1.7120e+00 1.6792e+00
1.6758e+00 1.7117e+00 1.7117e+00 1.6788e+00
1.6754e+00 1.7113e+00 1.7113e+00 1.6783e+00
1.6749e+00 1.7109e+00 1.7109e+00 1.6779e+00
1.6745e+00 1.7105e+00 1.7105e+00 1.6774e+00
1.6740e+00 1.7101e+00 1.7101e+00 1.6770e+00
1.6736e+00 1.7098e+00 1.7098e+00 1.6765e+00
1.6731e+00 1.7094e+00 1.7094e+00 1.6761e+00
1.6727e+00 1.7090e+00 1.7090e+00 1.6756e+00
1.6722e+00 1.7086e+00 1.7086e+00 1.6752e+00
1.6718e+00 1.7082e+00 1.7082e+00 1.6747e+00
1.6713e+00 1.7079e+00 1.7079e+00 1.6743e+00
1.6708e+00 1.7075e+00 1.7075e+00 1.6738e+00
1.6704e+00 1.7071e+00 1.7071e+00 1.6733e+00
1.6699e+00 1.7067e+00 1.7067e+00 1.6729e+00
1.6695e+00 1.7063e+00 1.7063e+00 1.6724e+00
1.6690e+00 1.7059e+00 1.7059e+00 1.6720e+00
1.6686e+00 1.7056e+00 1.7056e+00 1.6715e+00
1.6681e+00 1.7052e+00 1.7052e+00 1.6711e+00
1.6676e+00 1.7048e+00 1.7048e+00 1.6706e+00
1.6672e+00 1.7044e+00 1.7044e+00 1.6701e+00
1.6667e+00 1.7040e+00 1.7040e+00 1.6697e+00
1.6663e+00 1.7036e+00 1.7036e+00 1.6692e+00
1.6658e+00 1.7032e+00 1.7032e+00 1.6688e+00
1.6653e+00 1.7029e+00 1.7029e+00 1.6683e+00
1.6649e+00 1.7025e+00 1.7025e+00 1.6678e+00
1.6644e+00 1.7021e+00 1.7021e+00 1.6674e+00
1.6640e+00 1.7017e+00 1.7017e+00 1.6669e+00
1.6635e+00 1.7013e+00 1.7013e+00 1.6665e+00
1.6630e+00 1.7009e+00 1.7009e+00 1.6660e+00
1.6626e+00 1.7005e+00 1.7005e+00 1.6655e+00
1.6621e+00 1.7002e+00 1.7002e+00 1.6651e+00
1.6616e+00 1.6998e+00 1.6998e+00 1.6646e+00
1.6612e+00 1.6994e+00 1.6994e+00 1.6641e+00
1.6607e+00 1.6990e+00 1.6990e+00 1.6637e+00
1.6603e+00 1.6986e+00 1.6986e+00 1.6632e+00
1.6598e+00 1.6982e+00 1.6982e+00 1.6627e+00
1.6593e+00 1.6978e+00 1.6978e+00 1.6623e+00
1.6589e+00 1.6974e+00 1.6974e+00 1.6618e+00
1.6584e+00 1.6970e+00 1.6970e+00 1.6613e+00
1.6579e+00 1.6966e+00 1.6966e+00 1.6609e+00
1.6575e+00 1.6963e+00 1.6963e+00 1.6604e+00
1.6570e+00 1.6959e+00 1.6959e+00 1.6599e+00
1.6565e+00 1.6955e+00 1.6955e+00 1.6595e+00
1.6561e+00 1.6951e+00 1.6951e+00 1.6590e+00
1.6556e+00 1.6947e+00 1.6947e+00 1.6585e+00
1.6551e+00 1.6943e+00 1.6943e+00 1.6581e+00
1.6546e+00 1.6939e+00 1.6939e+00 1.6576e+00
1.6542e+00 1.6935e+00 1.6935e+00 1.6571e+00
1.6537e+00 1.6931e+00 1.6931e+00 1.6567e+00
1.6532e+00 1.6927e+00 1.6927e+00 1.6562e+00
1.6528e+00 1.6923e+00 1.6923e+00 1.6557e+00
1.6523e+00 1.6919e+00 1.6919e+00 1.6553e+00
1.6518e+00 1.6916e+00 1.6916e+00 1.6548e+00
1.6514e+00 1.6912e+00 1.6912e+00 1.6543e+00
1.6509e+00 1.6908e+00 1.6908e+00 1.6538e+00
1.6504e+00 1.6904e+00 1.6904e+00 1.6534e+00
1.6499e+00 1.6900e+00 1.6900e+00 1.6529e+00
1.6495e+00 1.6896e+00 1.6896e+00 1.6524e+00
1.6490e+00 1.6892e+00 1.6892e+00 1.6520e+00
1.6485e+00 1.6888e+00 1.6888e+00 1.6515e+00
1.6481e+00 1.6830e+00 1.6830e+00 1.6510e+00
1.6476e+00 1.6827e+00 1.6827e+00 1.6505e+00
1.6471e+00 1.6823e+00 1.6823e+00 1.6501e+00
1.6466e+00 1.6819e+00 1.6819e+00 1.6496e+00
1.6462e+00 1.6816e+00 1.6816e+00 1.6491e+00
1.6457e+00 1.6812e+00 1.6812e+00 1.6486e+00
1.6452e+00 1.6808e+00 1.6808e+00 1.6482e+00
1.6447e+00 1.6805e+00 1.6805e+00 1.6477e+00
1.6443e+00 1.6801e+00 1.6801e+00 1.6472e+00
1.6438e+00 1.6797e+00 1.6797e+00 1.6467e+00
1.6433e+00 1.6794e+00 1.6794e+00 1.6463e+00
1.6428e+00 1.6790e+00 1.6790e+00 1.6458e+00
1.6423e+00 1.6786e+00 1.6786e+00 1.6453e+00
1.6288e+00 1.6761e+00 1.6761e+00 1.6318e+00
1.6285e+00 1.6758e+00 1.6758e+00 1.6314e+00
1.6281e+00 1.6754e+00 1.6754e+00 1.6310e+00
1.6277e+00 1.6750e+00 1.6750e+00 1.6306e+00
1.6273e+00 1.6747e+00 1.6747e+00 1.6303e+00
1.6269e+00 1.6743e+00 1.6743e+00 1.6299e+00
1.6265e+00 1.6740e+00 1.6740e+00 1.6295e+00
1.6261e+00 1.6736e+00 1.6736e+00 1.6291e+00
1.6257e+00 1.6733e+00 1.6733e+00 1.6287e+00
1.6254e+00 1.6729e+00 1.6729e+00 1.6283e+00
1.6250e+00 1.6726e+00 1.6726e+00 1.6279e+00
1.6246e+00 1.6722e+00 1.6722e+00 1.6275e+00
1.6242e+00 1.6665e+00 1.6665e+00 1.6271e+00
1.6238e+00 1.6661e+00 1.6661e+00 1.6268e+00
1.6234e+00 1.6658e+00 1.6658e+00 1.6264e+00
1.6230e+00 1.6654e+00 1.6654e+00 1.6260e+00
1.6226e+00 1.6651e+00 1.6651e+00 1.6256e+00
1.6222e+00 1.6647e+00 1.6647e+00 1.6252e+00
1.6219e+00 1.6643e+00 1.6643e+00 1.6248e+00
1.6215e+00 1.6640e+00 1.6640e+00 1.6244e+00
1.6211e+00 1.6636e+00 1.6636e+00 1.6240e+00
1.6207e+00 1.6633e+00 1.6633e+00 1.6236e+00
1.6203e+00 1.6629e+00 1.6629e+00 1.6232e+00
1.6199e+00 1.6626e+00 1.6626e+00 1.6229e+00
1.6195e+00 1.6622e+00 1.6622e+00 1.6225e+00
1.6191e+00 1.6619e+00 1.6619e+00 1.6221e+00
1.6187e+00 1.6615e+00 1.6615e+00 1.6217e+00
1.6183e+00 1.6611e+00 1.6611e+00 1.6213e+00
1.6179e+00 1.6608e+00 1.6608e+00 1.6209e+00
1.6175e+00 1.6604e+00 1.6604e+00 1.6205e+00
1.6172e+00 1.6601e+00 1.6601e+00 1.6201e+00
1.6894e+00 1.7202e+00 1.7202e+00 1.6924e+00
1.6891e+00 1.7200e+00 1.7200e+00 1.6921e+00
1.6888e+00 1.7197e+00 1.7197e+00 1.6918e+00
1.6885e+00 1.7194e+00 1.7194e+00 1.6915e+00
1.6882e+00 1.7192e+00 1.7192e+00 1.6912e+00
1.6879e+00 1.7189e+00 1.7189e+00 1.6908e+00
1.6876e+00 1.7186e+00 1.7186e+00 1.6905e+00
1.6872e+00 1.7183e+00 1.7183e+00 1.6902e+00
1.6869e+00 1.7180e+00 1.7180e+00 1.6898e+00
1.6865e+00 1.7177e+00 1.7177e+00 1.6895e+00
1.6862e+00 1.7174e+00 1.7174e+00 1.6891e+00
1.6858e+00 1.7171e+00 1.7171e+00 1.6888e+00
1.6854e+00 1.7168e+00 1.7168e+00 1.6884e+00
1.6851e+00 1.7165e+00 1.7165e+00 1.6880e+00
1.6847e+00 1.7162e+00 1.7162e+00 1.6876e+00
1.6843e+00 1.7159e+00 1.7159e+00 1.6873e+00
1.6839e+00 1.7155e+00 1.7155e+00 1.6869e+00
1.6835e+00 1.7152e+00 1.7152e+00 1.6865e+00
1.6831e+00 1.7149e+00 1.7149e+00 1.6861e+00
1.6827e+00 1.7146e+00 1.7146e+00 1.6857e+00
1.6823e+00 1.7142e+00 1.7142e+00 1.6853e+00
1.6819e+00 1.7139e+00 1.7139e+00 1.6849e+00
1.6815e+00 1.7135e+00 1.7135e+00 1.6845e+00
1.6811e+00 1.7132e+00 1.7132e+00 1.6841e+00
1.6807e+00 1.7128e+00 1.7128e+00 1.6837e+00
1.6803e+00 1.7125e+00 1.7125e+00 1.6833e+00
1.6799e+00 1.7122e+00 1.7122e+00 1.6828e+00
1.6795e+00 1.7118e+00 1.7118e+00 1.6824e+00
1.6790e+00 1.7115e+00 1.7115e+00 1.6820e+00
1.6786e+00 1.7111e+00 1.7111e+00 1.6816e+00
1.6782e+00 1.7107e+00 1.7107e+00 1.6812e+00
1.6778e+00 1.7104e+00 1.7104e+00 1.6807e+00
1.6774e+00 1.7100e+00 1.7100e+00 1.6803e+00
1.6769e+00 1.7097e+00 1.7097e+00 1.6799e+00
1.6765e+00 1.7093e+00 1.7093e+00 1.6795e+00
1.6761e+00 1.7090e+00 1.7090e+00 1.6790e+00
1.6756e+00 1.7086e+00 1.7086e+00 1.6786e+00
1.6752e+00 1.7082e+00 1.7082e+00 1.6782e+00
1.6748e+00 1.7079e+00 1.7079e+00 1.6777e+00
1.6743e+00 1.7075e+00 1.7075e+00 1.6773e+00
1.6739e+00 1.7071e+00 1.7071e+00 1.6769e+00
1.6735e+00 1.7068e+00 1.7068e+00 1.6764e+00
1.6730e+00 1.7064e+00 1.7064e+00 1.6760e+00
1.6726e+00 1.7060e+00 1.7060e+00 1.6755e+00
1.6721e+00 1.7057e+00 1.7057e+00 1.6751e+00
1.6717e+00 1.7053e+00 1.7053e+00 1.6747e+00
1.6713e+00 1.7049e+00 1.7049e+00 1.6742e+00
1.6708e+00 1.7045e+00 1.7045e+00 1.6738e+00
1.6704e+00 1.7042e+00 1.7042e+00 1.6733e+00
1.6699e+00 1.7038e+00 1.7038e+00 1.6729e+00
1.6695e+00 1.7034e+00 1.7034e+00 1.6724e+00
1.6690e+00 1.7031e+00 1.7031e+00 1.6720e+00
1.6686e+00 1.7027e+00 1.7027e+00 1.6716e+00
1.6681e+00 1.7023e+00 1.7023e+00 1.6711e+00
1.6677e+00 1.7019e+00 1.7019e+00 1.6707e+00
1.6672e+00 1.7015e+00 1.7015e+00 1.6702e+00
1.6668e+00 1.7012e+00 1.7012e+00 1.6698e+00
1.6663e+00 1.7008e+00 1.7008e+00 1.6693e+00
1.6659e+00 1.7004e+00 1.7004e+00 1.6689e+00
1.6654e+00 1.7000e+00 1.7000e+00 1.6684e+00
1.6650e+00 1.6997e+00 1.6997e+00 1.6679e+00
1.6645e+00 1.6993e+00 1.6993e+00 1.6675e+00
1.6641e+00 1.6989e+00 1.6989e+00 1.6670e+00
1.6636e+00 1.6985e+00 1.6985e+00 1.6666e+00
1.6627e+00 1.6981e+00 1.6981e+00 1.6657e+00
1.6623e+00 1.6977e+00 1.6977e+00 1.6652e+00
1.6618e+00 1.6974e+00 1.6974e+00 1.6648e+00
1.6614e+00 1.6970e+00 1.6970e+00 1.6643e+00
1.6609e+00 1.6966e+00 1.6966e+00 1.6639e+00
1.6605e+00 1.6962e+00 1.6962e+00 1.6634e+00
1.6600e+00 1.6958e+00 1.6958e+00 1.6630e+00
1.6595e+00 1.6954e+00 1.6954e+00 1.6625e+00
1.6591e+00 1.6951e+00 1.6951e+00 1.6620e+00
1.6586e+00 1.6947e+00 1.6947e+00 1.6616e+00
1.6582e+00 1.6943e+00 1.6943e+00 1.6611e+00
1.6577e+00 1.6939e+00 1.6939e+00 1.6607e+00
1.6572e+00 1.6935e+00 1.6935e+00 1.6602e+00
1.6568e+00 1.6931e+00 1.6931e+00 1.6597e+00
1.6563e+00 1.6927e+00 1.6927e+00 1.6593e+00
1.6559e+00 1.6924e+00 1.6924e+00 1.6588e+00
1.6554e+00 1.6920e+00 1.6920e+00 1.6583e+00
1.6549e+00 1.6916e+00 1.6916e+00 1.6579e+00
1.6545e+00 1.6912e+00 1.6912e+00 1.6574e+00
1.6540e+00 1.6908e+00 1.6908e+00 1.6570e+00
1.6535e+00 1.6904e+00 1.6904e+00 1.6565e+00
1.6531e+00 1.6900e+00 1.6900e+00 1.6560e+00
1.6526e+00 1.6896e+00 1.6896e+00 1.6556e+00
1.6521e+00 1.6892e+00 1.6892e+00 1.6551e+00
1.6517e+00 1.6888e+00 1.6888e+00 1.6546e+00
1.6512e+00 1.6884e+00 1.6884e+00 1.6542e+00
1.6507e+00 1.6881e+00 1.6881e+00 1.6537e+00
1.6503e+00 1.6877e+00 1.6877e+00 1.6532e+00
1.6498e+00 1.6873e+00 1.6873e+00 1.6528e+00
1.6493e+00 1.6869e+00 1.6869e+00 1.6523e+00
1.6489e+00 1.6865e+00 1.6865e+00 1.6518e+00
1.6484e+00 1.6861e+00 1.6861e+00 1.6513e+00
1.6479e+00 1.6857e+00 1.6857e+00 1.6509e+00
1.6474e+00 1.6853e+00 1.6853e+00 1.6504e+00
1.6470e+00 1.6849e+00 1.6849e+00 1.6499e+00
1.6465e+00 1.6845e+00 1.6845e+00 1.6495e+00
1.6460e+00 1.6841e+00 1.6841e+00 1.6490e+00
1.6456e+00 1.6837e+00 1.6837e+00 1.6485e+00
1.6451e+00 1.6833e+00 1.6833e+00 1.6480e+00
1.6446e+00 1.6829e+00 1.6829e+00 1.6476e+00
1.6441e+00 1.6825e+00 1.6825e+00 1.6471e+00
1.6437e+00 1.6821e+00 1.6821e+00 1.6466e+00
1.6432e+00 1.6817e+00 1.6817e+00 1.6461e+00
1.6427e+00 1.6813e+00 1.6813e+00 1.6457e+00
1.6422e+00 1.6809e+00 1.6809e+00 1.6452e+00
1.6418e+00 1.6805e+00 1.6805e+00 1.6447e+00
1.6413e+00 1.6801e+00 1.6801e+00 1.6442e+00
1.6408e+00 1.6797e+00 1.6797e+00 1.6438e+00
1.6403e+00 1.6793e+00 1.6793e+00 1.6433e+00
1.6399e+00 1.6789e+00 1.6789e+00 1.6428e+00
1.6394e+00 1.6785e+00 1.6785e+00 1.6423e+00
1.6389e+00 1.6781e+00 1.6781e+00 1.6419e+00
1.6384e+00 1.6777e+00 1.6777e+00 1.6414e+00
1.6380e+00 1.6773e+00 1.6773e+00 1.6409e+00
1.6375e+00 1.6769e+00 1.6769e+00 1.6404e+00
1.6370e+00 1.6765e+00 1.6765e+00 1.6399e+00
1.6365e+00 1.6761e+00 1.6761e+00 1.6395e+00
1.6360e+00 1.6757e+00 1.6757e+00 1.6390e+00
1.6356e+00 1.6753e+00 1.6753e+00 1.6385e+00
1.6351e+00 1.6749e+00 1.6749e+00 1.6380e+00
1.6346e+00 1.6745e+00 1.6745e+00 1.6375e+00
1.6341e+00 1.6741e+00 1.6741e+00 1.6371e+00
1.6336e+00 1.6737e+00 1.6737e+00 1.6366e+00
1.6331e+00 1.6692e+00 1.6692e+00 1.6361e+00
1.6327e+00 1.6688e+00 1.6688e+00 1.6356e+00
1.6185e+00 1.6594e+00 1.6594e+00 1.6215e+00
1.6181e+00 1.6591e+00 1.6591e+00 1.6211e+00
1.6177e+00 1.6587e+00 1.6587e+00 1.6207e+00
1.6174e+00 1.6584e+00 1.6584e+00 1.6203e+00
1.6170e+00 1.6580e+00 1.6580e+00 1.6199e+00
1.6166e+00 1.6576e+00 1.6576e+00 1.6195e+00
1.6162e+00 1.6573e+00 1.6573e+00 1.6191e+00
1.6158e+00 1.6569e+00 1.6569e+00 1.6187e+00
1.6154e+00 1.6566e+00 1.6566e+00 1.6183e+00
1.6150e+00 1.6562e+00 1.6562e+00 1.6180e+00
1.6146e+00 1.6559e+00 1.6559e+00 1.6176e+00
1.6142e+00 1.6555e+00 1.6555e+00 1.6172e+00
1.6138e+00 1.6551e+00 1.6551e+00 1.6168e+00
1.6134e+00 1.6548e+00 1.6548e+00 1.6164e+00
1.6130e+00 1.6544e+00 1.6544e+00 1.6160e+00
1.6126e+00 1.6541e+00 1.6541e+00 1.6156e+00
1.6122e+00 1.6537e+00 1.6537e+00 1.6152e+00
1.6118e+00 1.6533e+00 1.6533e+00 1.6148e+00
1.6114e+00 1.6530e+00 1.6530e+00 1.6144e+00
1.6111e+00 1.6526e+00 1.6526e+00 1.6140e+00
1.6107e+00 1.6523e+00 1.6523e+00 1.6136e+00
1.6103e+00 1.6519e+00 1.6519e+00 1.6132e+00
1.6099e+00 1.6515e+00 1.6515e+00 1.6128e+00
1.6095e+00 1.6512e+00 1.6512e+00 1.6124e+00
1.6091e+00 1.6508e+00 1.6508e+00 1.6120e+00
1.6087e+00 1.6504e+00 1.6504e+00 1.6116e+00
1.6083e+00 1.6501e+00 1.6501e+00 1.6112e+00
1.6079e+00 1.6497e+00 1.6497e+00 1.6108e+00
1.6075e+00 1.6494e+00 1.6494e+00 1.6104e+00
1.6071e+00 1.6490e+00 1.6490e+00 1.6100e+00
1.6067e+00 1.6486e+00 1.6486e+00 1.6096e+00
1.6063e+00 1.6483e+00 1.6483e+00 1.6092e+00
1.6059e+00 1.6479e+00 1.6479e+00 1.6088e+00
1.6055e+00 1.6475e+00 1.6475e+00 1.6084e+00
1.6051e+00 1.6472e+00 1.6472e+00 1.6080e+00
1.6047e+00 1.6468e+00 1.6468e+00 1.6076e+00
1.6043e+00 1.6464e+00 1.6464e+00 1.6072e+00
1.6039e+00 1.6461e+00 1.6461e+00 1.6068e+00
1.6035e+00 1.6457e+00 1.6457e+00 1.6064e+00
1.6031e+00 1.6454e+00 1.6454e+00 1.6060e+00
1.6027e+00 1.6450e+00 1.6450e+00 1.6056e+00
1.6023e+00 1.6446e+00 1.6446e+00 1.6052e+00
1.6019e+00 1.6443e+00 1.6443e+00 1.6048e+00
1.6015e+00 1.6439e+00 1.6439e+00 1.6044e+00
1.6011e+00 1.6435e+00 1.6435e+00 1.6040e+00
1.6007e+00 1.6432e+00 1.6432e+00 1.6036e+00
1.6003e+00 1.6428e+00 1.6428e+00 1.6032e+00
1.5999e+00 1.6424e+00 1.6424e+00 1.6028e+00
1.5995e+00 1.6421e+00 1.6421e+00 1.6024e+00
1.5991e+00 1.6417e+00 1.6417e+00 1.6020e+00
1.5987e+00 1.6413e+00 1.6413e+00 1.6016e+00
1.5983e+00 1.6410e+00 1.6410e+00 1.6012e+00
1.6679e+00 1.6993e+00 1.6993e+00 1.6709e+00
1.6676e+00 1.6990e+00 1.6990e+00 1.6706e+00
1.6673e+00 1.6987e+00 1.6987e+00 1.6703e+00
1.6670e+00 1.6985e+00 1.6985e+00 1.6700e+00
1.6667e+00 1.6982e+00 1.6982e+00 1.6697e+00
1.6664e+00 1.6979e+00 1.6979e+00 1.6693e+00
1.6660e+00 1.6976e+00 1.6976e+00 1.6690e+00
1.6657e+00 1.6973e+00 1.6973e+00 1.6686e+00
1.6653e+00 1.6970e+00 1.6970e+00 1.6683e+00
1.6650e+00 1.6967e+00 1.6967e+00 1.6679e+00
1.6646e+00 1.6964e+00 1.6964e+00 1.6675e+00
1.6642e+00 1.6961e+00 1.6961e+00 1.6672e+00
1.6638e+00 1.6958e+00 1.6958e+00 1.6668e+00
1.6634e+00 1.6954e+00 1.6954e+00 1.6664e+00
1.6631e+00 1.6951e+00 1.6951e+00 1.6660e+00
1.6627e+00 1.6948e+00 1.6948e+00 1.6656e+00
1.6623e+00 1.6944e+00 1.6944e+00 1.6652e+00
1.6619e+00 1.6941e+00 1.6941e+00 1.6648e+00
1.6615e+00 1.6938e+00 1.6938e+00 1.6644e+00
1.6610e+00 1.6934e+00 1.6934e+00 1.6640e+00
1.6606e+00 1.6931e+00 1.6931e+00 1.6636e+00
1.6602e+00 1.6927e+00 1.6927e+00 1.6632e+00
1.6598e+00 1.6924e+00 1.6924e+00 1.6628e+00
1.6594e+00 1.6920e+00 1.6920e+00 1.6623e+00
1.6590e+00 1.6917e+00 1.6917e+00 1.6619e+00
1.6585e+00 1.6913e+00 1.6913e+00 1.6615e+00
1.6581e+00 1.6909e+00 1.6909e+00 1.6611e+00
1.6577e+00 1.6906e+00 1.6906e+00 1.6606e+00
1.6572e+00 1.6902e+00 1.6902e+00 1.6602e+00
1.6568e+00 1.6899e+00 1.6899e+00 1.6598e+00
1.6564e+00 1.6895e+00 1.6895e+00 1.6593e+00
1.6559e+00 1.6891e+00 1.6891e+00 1.6589e+00
1.6555e+00 1.6888e+00 1.6888e+00 1.6585e+00
1.6551e+00 1.6884e+00 1.6884e+00 1.6580e+00
1.6546e+00 1.6880e+00 1.6880e+00 1.6576e+00
1.6542e+00 1.6877e+00 1.6877e+00 1.6571e+00
1.6537e+00 1.6873e+00 1.6873e+00 1.6567e+00
1.6533e+00 1.6869e+00 1.6869e+00 1.6562e+00
1.6528e+00 1.6865e+00 1.6865e+00 1.6558e+00
1.6524e+00 1.6862e+00 1.6862e+00 1.6554e+00
1.6520e+00 1.6858e+00 1.6858e+00 1.6549e+00
1.6515e+00 1.6854e+00 1.6854e+00 1.6545e+00
1.6510e+00 1.6850e+00 1.6850e+00 1.6540e+00
1.6506e+00 1.6846e+00 1.6846e+00 1.6536e+00
1.6501e+00 1.6843e+00 1.6843e+00 1.6531e+00
1.6497e+00 1.6839e+00 1.6839e+00 1.6526e+00
1.6492e+00 1.6835e+00 1.6835e+00 1.6522e+00
1.6488e+00 1.6831e+00 1.6831e+00 1.6517e+00
1.6483e+00 1.6827e+00 1.6827e+00 1.6513e+00
1.6479e+00 1.6823e+00 1.6823e+00 1.6508e+00
1.6474e+00 1.6820e+00 1.6820e+00 1.6504e+00
1.6469e+00 1.6816e+00 1.6816e+00 1.6499e+00
1.6465e+00 1.6812e+00 1.6812e+00 1.6494e+00
1.6460e+00 1.6808e+00 1.6808e+00 1.6490e+00
1.6456e+00 1.6804e+00 1.6804e+00 1.6485e+00
1.6447e+00 1.6800e+00 1.6800e+00 1.6477e+00
1.6442e+00 1.6796e+00 1.6796e+00 1.6472e+00
1.6438e+00 1.6792e+00 1.6792e+00 1.6467e+00
1.6433e+00 1.6789e+00 1.6789e+00 1.6463e+00
1.6428e+00 1.6785e+00 1.6785e+00 1.6458e+00
1.6424e+00 1.6781e+00 1.6781e+00 1.6453e+00
1.6419e+00 1.6777e+00 1.6777e+00 1.6449e+00
1.6414e+00 1.6773e+00 1.6773e+00 1.6444e+00
1.6410e+00 1.6769e+00 1.6769e+00 1.6439e+00
1.6405e+00 1.6765e+00 1.6765e+00 1.6435e+00
1.6400e+00 1.6761e+00 1.6761e+00 1.6430e+00
1.6396e+00 1.6757e+00 1.6757e+00 1.6425e+00
1.6391e+00 1.6753e+00 1.6753e+00 1.6421e+00
1.6386e+00 1.6749e+00 1.6749e+00 1.6416e+00
1.6382e+00 1.6745e+00 1.6745e+00 1.6411e+00
1.6377e+00 1.6741e+00 1.6741e+00 1.6406e+00
1.6372e+00 1.6737e+00 1.6737e+00 1.6402e+00
1.6367e+00 1.6733e+00 1.6733e+00 1.6397e+00
1.6363e+00 1.6729e+00 1.6729e+00 1.6392e+00
1.6358e+00 1.6725e+00 1.6725e+00 1.6388e+00
1.6353e+00 1.6722e+00 1.6722e+00 1.6383e+00
1.6348e+00 1.6718e+00 1.6718e+00 1.6378e+00
1.6344e+00 1.6714e+00 1.6714e+00 1.6373e+00
1.6339e+00 1.6710e+00 1.6710e+00 1.6369e+00
1.6334e+00 1.6706e+00 1.6706e+00 1.6364e+00
1.6329e+00 1.6702e+00 1.6702e+00 1.6359e+00
1.6325e+00 1.6698e+00 1.6698e+00 1.6354e+00
1.6320e+00 1.6694e+00 1.6694e+00 1.6349e+00
1.6315e+00 1.6690e+00 1.6690e+00 1.6345e+00
1.6310e+00 1.6686e+00 1.6686e+00 1.6340e+00
1.6305e+00 1.6681e+00 1.6681e+00 1.6335e+00
1.6301e+00 1.6634e+00 1.6634e+00 1.6330e+00
1.6296e+00 1.6630e+00 1.6630e+00 1.6325e+00
1.6291e+00 1.6626e+00 1.6626e+00 1.6321e+00
1.6286e+00 1.6622e+00 1.6622e+00 1.6316e+00
1.6281e+00 1.6618e+00 1.6618e+00 1.6311e+00
1.6277e+00 1.6614e+00 1.6614e+00 1.6306e+00
1.6272e+00 1.6610e+00 1.6610e+00 1.6301e+00
1.6267e+00 1.6606e+00 1.6606e+00 1.6297e+00
1.6262e+00 1.6602e+00 1.6602e+00 1.6292e+00
1.6257e+00 1.6598e+00 1.6598e+00 1.6287e+00
1.6252e+00 1.6594e+00 1.6594e+00 1.6282e+00
1.6248e+00 1.6590e+00 1.6590e+00 1.6277e+00
1.6243e+00 1.6586e+00 1.6586e+00 1.6272e+00
1.6238e+00 1.6582e+00 1.6582e+00 1.6267e+00
1.6233e+00 1.6578e+00 1.6578e+00 1.6263e+00
1.6228e+00 1.6574e+00 1.6574e+00 1.6258e+00
1.6223e+00 1.6569e+00 1.6569e+00 1.6253e+00
1.6218e+00 1.6565e+00 1.6565e+00 1.6248e+00
1.6069e+00 1.6513e+00 1.6513e+00 1.6098e+00
1.6065e+00 1.6509e+00 1.6509e+00 1.6094e+00
1.6061e+00 1.6505e+00 1.6505e+00 1.6090e+00
1.6057e+00 1.6501e+00 1.6501e+00 1.6086e+00
1.6053e+00 1.6497e+00 1.6497e+00 1.6082e+00
1.6049e+00 1.6494e+00 1.6494e+00 1.6078e+00
1.6045e+00 1.6490e+00 1.6490e+00 1.6074e+00
1.6041e+00 1.6486e+00 1.6486e+00 1.6070e+00
1.6037e+00 1.6482e+00 1.6482e+00 1.6066e+00
1.6033e+00 1.6478e+00 1.6478e+00 1.6062e+00
1.6029e+00 1.6475e+00 1.6475e+00 1.6058e+00
1.6025e+00 1.6471e+00 1.6471e+00 1.6054e+00
1.6021e+00 1.6467e+00 1.6467e+00 1.6050e+00
1.6017e+00 1.6463e+00 1.6463e+00 1.6046e+00
1.6013e+00 1.6459e+00 1.6459e+00 1.6042e+00
1.6009e+00 1.6456e+00 1.6456e+00 1.6038e+00
1.6005e+00 1.6408e+00 1.6408e+00 1.6034e+00
1.6001e+00 1.6404e+00 1.6404e+00 1.6030e+00
1.5997e+00 1.6401e+00 1.6401e+00 1.6026e+00
1.5993e+00 1.6397e+00 1.6397e+00 1.6022e+00
1.5989e+00 1.6393e+00 1.6393e+00 1.6018e+00
1.5985e+00 1.6390e+00 1.6390e+00 1.6014e+00
1.5981e+00 1.6386e+00 1.6386e+00 1.6010e+00
1.5977e+00 1.6382e+00 1.6382e+00 1.6006e+00
1.5973e+00 1.6379e+00 1.6379e+00 1.6002e+00
1.5969e+00 1.6375e+00 1.6375e+00 1.5998e+00
1.5965e+00 1.6371e+00 1.6371e+00 1.5994e+00
1.5961e+00 1.6368e+00 1.6368e+00 1.5990e+00
1.5957e+00 1.6364e+00 1.6364e+00 1.5986e+00
1.5953e+00 1.6360e+00 1.6360e+00 1.5982e+00
1.5949e+00 1.6357e+00 1.6357e+00 1.5978e+00
1.5944e+00 1.6353e+00 1.6353e+00 1.5974e+00
1.5940e+00 1.6349e+00 1.6349e+00 1.5970e+00
1.5936e+00 1.6346e+00 1.6346e+00 1.5966e+00
1.5932e+00 1.6342e+00 1.6342e+00 1.5962e+00
1.5928e+00 1.6338e+00 1.6338e+00 1.5958e+00
1.5924e+00 1.6335e+00 1.6335e+00 1.5954e+00
1.5920e+00 1.6331e+00 1.6331e+00 1.5950e+00
1.5916e+00 1.6327e+00 1.6327e+00 1.5946e+00
1.5912e+00 1.6323e+00 1.6323e+00 1.5942e+00
1.5908e+00 1.6320e+00 1.6320e+00 1.5938e+00
1.5904e+00 1.6316e+00 1.6316e+00 1.5933e+00
1.5900e+00 1.6312e+00 1.6312e+00 1.5929e+00
1.5896e+00 1.6308e+00 1.6308e+00 1.5925e+00
1.5892e+00 1.6305e+00 1.6305e+00 1.5921e+00
1.5888e+00 1.6301e+00 1.6301e+00 1.5917e+00
1.5884e+00 1.6297e+00 1.6297e+00 1.5913e+00
1.5879e+00 1.6294e+00 1.6294e+00 1.5909e+00
1.5875e+00 1.6290e+00 1.6290e+00 1.5905e+00
1.5871e+00 1.6286e+00 1.6286e+00 1.5901e+00
1.5867e+00 1.6282e+00 1.6282e+00 1.5897e+00
1.5863e+00 1.6279e+00 1.6279e+00 1.5893e+00
1.5859e+00 1.6275e+00 1.6275e+00 1.5889e+00
1.5855e+00 1.6271e+00 1.6271e+00 1.5884e+00
1.5851e+00 1.6267e+00 1.6267e+00 1.5880e+00
1.5847e+00 1.6264e+00 1.6264e+00 1.5876e+00
1.5843e+00 1.6260e+00 1.6260e+00 1.5872e+00
1.5839e+00 1.6256e+00 1.6256e+00 1.5868e+00
1.5834e+00 1.6252e+00 1.6252e+00 1.5864e+00
1.5830e+00 1.6249e+00 1.6249e+00 1.5860e+00
1.5826e+00 1.6245e+00 1.6245e+00 1.5856e+00
1.5822e+00 1.6241e+00 1.6241e+00 1.5852e+00
1.5818e+00 1.6237e+00 1.6237e+00 1.5848e+00
1.5814e+00 1.6234e+00 1.6234e+00 1.5843e+00
1.5810e+00 1.6230e+00 1.6230e+00 1.5839e+00
1.5806e+00 1.6226e+00 1.6226e+00 1.5835e+00
1.5801e+00 1.6222e+00 1.6222e+00 1.5831e+00
1.5797e+00 1.6218e+00 1.6218e+00 1.5827e+00
1.5793e+00 1.6215e+00 1.6215e+00 1.5823e+00
1.5789e+00 1.6211e+00 1.6211e+00 1.5819e+00
1.5785e+00 1.6207e+00 1.6207e+00 1.5814e+00
1.5781e+00 1.6203e+00 1.6203e+00 1.5810e+00
1.5777e+00 1.6199e+00 1.6199e+00 1.5806e+00
1.5773e+00 1.6196e+00 1.6196e+00 1.5802e+00
1.5768e+00 1.6192e+00 1.6192e+00 1.5798e+00
1.5764e+00 1.6188e+00 1.6188e+00 1.5794e+00
1.5760e+00 1.6184e+00 1.6184e+00 1.5790e+00
1.6458e+00 1.6777e+00 1.6777e+00 1.6488e+00
1.6455e+00 1.6774e+00 1.6774e+00 1.6485e+00
1.6452e+00 1.6772e+00 1.6772e+00 1.6482e+00
1.6449e+00 1.6769e+00 1.6769e+00 1.6478e+00
1.6445e+00 1.6766e+00 1.6766e+00 1.6475e+00
1.6442e+00 1.6763e+00 1.6763e+00 1.6471e+00
1.6438e+00 1.6760e+00 1.6760e+00 1.6468e+00
1.6435e+00 1.6757e+00 1.6757e+00 1.6464e+00
1.6431e+00 1.6754e+00 1.6754e+00 1.6461e+00
1.6427e+00 1.6751e+00 1.6751e+00 1.6457e+00
1.6423e+00 1.6747e+00 1.6747e+00 1.6453e+00
1.6420e+00 1.6744e+00 1.6744e+00 1.6449e+00
1.6416e+00 1.6741e+00 1.6741e+00 1.6445e+00
1.6412e+00 1.6737e+00 1.6737e+00 1.6441e+00
1.6408e+00 1.6734e+00 1.6734e+00 1.6437e+00
1.6404e+00 1.6731e+00 1.6731e+00 1.6433e+00
1.6399e+00 1.6727e+00 1.6727e+00 1.6429e+00
1.6395e+00 1.6724e+00 1.6724e+00 1.6425e+00
1.6391e+00 1.6720e+00 1.6720e+00 1.6421e+00
1.6387e+00 1.6717e+00 1.6717e+00 1.6416e+00
1.6383e+00 1.6713e+00 1.6713e+00 1.6412e+00
1.6378e+00 1.6709e+00 1.6709e+00 1.6408e+00
1.6374e+00 1.6706e+00 1.6706e+00 1.6404e+00
1.6370e+00 1.6702e+00 1.6702e+00 1.6399e+00
1.6365e+00 1.6698e+00 1.6698e+00 1.6395e+00
1.6361e+00 1.6695e+00 1.6695e+00 1.6390e+00
1.6357e+00 1.6691e+00 1.6691e+00 1.6386e+00
1.6352e+00 1.6687e+00 1.6687e+00 1.6382e+00
1.6348e+00 1.6684e+00 1.6684e+00 1.6377e+00
1.6343e+00 1.6680e+00 1.6680e+00 1.6373e+00
1.6339e+00 1.6676e+00 1.6676e+00 1.6368e+00
1.6334e+00 1.6672e+00 1.6672e+00 1.6364e+00
1.6330e+00 1.6668e+00 1.6668e+00 1.6359e+00
1.6325e+00 1.6665e+00 1.6665e+00 1.6355e+00
1.6321e+00 1.6661e+00 1.6661e+00 1.6350e+00
1.6316e+00 1.6657e+00 1.6657e+00 1.6346e+00
1.6311e+00 1.6653e+00 1.6653e+00 1.6341e+00
1.6307e+00 1.6649e+00 1.6649e+00 1.6336e+00
1.6302e+00 1.6645e+00 1.6645e+00 1.6332e+00
1.6298e+00 1.6642e+00 1.6642e+00 1.6327e+00
1.6293e+00 1.6638e+00 1.6638e+00 1.6323e+00
1.6288e+00 1.6634e+00 1.6634e+00 1.6318e+00
1.6284e+00 1.6630e+00 1.6630e+00 1.6313e+00
1.6279e+00 1.6581e+00 1.6581e+00 1.6309e+00
1.6274e+00 1.6577e+00 1.6577e+00 1.6304e+00
1.6270e+00 1.6573e+00 1.6573e+00 1.6299e+00
1.6265e+00 1.6569e+00 1.6569e+00 1.6295e+00
1.6257e+00 1.6565e+00 1.6565e+00 1.6286e+00
1.6252e+00 1.6561e+00 1.6561e+00 1.6281e+00
1.6247e+00 1.6557e+00 1.6557e+00 1.6277e+00
1.6242e+00 1.6553e+00 1.6553e+00 1.6272e+00
1.6238e+00 1.6549e+00 1.6549e+00 1.6267e+00
1.6233e+00 1.6545e+00 1.6545e+00 1.6263e+00
1.6228e+00 1.6541e+00 1.6541e+00 1.6258e+00
1.6223e+00 1.6537e+00 1.6537e+00 1.6253e+00
1.6219e+00 1.6533e+00 1.6533e+00 1.6248e+00
1.6214e+00 1.6529e+00 1.6529e+00 1.6244e+00
1.6209e+00 1.6525e+00 1.6525e+00 1.6239e+00
1.6204e+00 1.6521e+00 1.6521e+00 1.6234e+00
1.6200e+00 1.6517e+00 1.6517e+00 1.6229e+00
1.6195e+00 1.6513e+00 1.6513e+00 1.6224e+00
1.6190e+00 1.6509e+00 1.6509e+00 1.6220e+00
1.6185e+00 1.6505e+00 1.6505e+00 1.6215e+00
1.6180e+00 1.6501e+00 1.6501e+00 1.6210e+00
1.6176e+00 1.6497e+00 1.6497e+00 1.6205e+00
1.6171e+00 1.6493e+00 1.6493e+00 1.6200e+00
1.6166e+00 1.6489e+00 1.6489e+00 1.6195e+00
1.6161e+00 1.6485e+00 1.6485e+00 1.6191e+00
1.6156e+00 1.6481e+00 1.6481e+00 1.6186e+00
1.6151e+00 1.6477e+00 1.6477e+00 1.6181e+00
1.6146e+00 1.6473e+00 1.6473e+00 1.6176e+00
1.6142e+00 1.6469e+00 1.6469e+00 1.6171e+00
1.6137e+00 1.6465e+00 1.6465e+00 1.6166e+00
1.6132e+00 1.6460e+00 1.6460e+00 1.6161e+00
1.6127e+00 1.6456e+00 1.6456e+00 1.6156e+00
1.6122e+00 1.6452e+00 1.6452e+00 1.6152e+00
1.5961e+00 1.6396e+00 1.6396e+00 1.5991e+00
1.5957e+00 1.6392e+00 1.6392e+00 1.5987e+00
1.5953e+00 1.6388e+00 1.6388e+00 1.5983e+00
1.5949e+00 1.6384e+00 1.6384e+00 1.5979e+00
1.5945e+00 1.6380e+00 1.6380e+00 1.5975e+00
1.5941e+00 1.6377e+00 1.6377e+00 1.5971e+00
1.5937e+00 1.6373e+00 1.6373e+00 1.5966e+00
1.5933e+00 1.6369e+00 1.6369e+00 1.5962e+00
1.5929e+00 1.6365e+00 1.6365e+00 1.5958e+00
1.5925e+00 1.6361e+00 1.6361e+00 1.5954e+00
1.5921e+00 1.6357e+00 1.6357e+00 1.5950e+00
1.5917e+00 1.6354e+00 1.6354e+00 1.5946e+00
1.5913e+00 1.6350e+00 1.6350e+00 1.5942e+00
1.5909e+00 1.6346e+00 1.6346e+00 1.5938e+00
1.5905e+00 1.6342e+00 1.6342e+00 1.5934e+00
1.5901e+00 1.6338e+00 1.6338e+00 1.5930e+00
1.5897e+00 1.6334e+00 1.6334e+00 1.5926e+00
1.5893e+00 1.6330e+00 1.6330e+00 1.5922e+00
1.5888e+00 1.6327e+00 1.6327e+00 1.5918e+00
1.5884e+00 1.6323e+00 1.6323e+00 1.5914e+00
1.5880e+00 1.6319e+00 1.6319e+00 1.5910e+00
1.5876e+00 1.6315e+00 1.6315e+00 1.5906e+00
1.5872e+00 1.6311e+00 1.6311e+00 1.5902e+00
1.5868e+00 1.6307e+00 1.6307e+00 1.5898e+00
1.5864e+00 1.6303e+00 1.6303e+00 1.5894e+00
1.5860e+00 1.6299e+00 1.6299e+00 1.5890e+00
1.5856e+00 1.6295e+00 1.6295e+00 1.5885e+00
1.5852e+00 1.6292e+00 1.6292e+00 1.5881e+00
1.5848e+00 1.6288e+00 1.6288e+00 1.5877e+00
1.5844e+00 1.6284e+00 1.6284e+00 1.5873e+00
1.5840e+00 1.6280e+00 1.6280e+00 1.5869e+00
1.5835e+00 1.6276e+00 1.6276e+00 1.5865e+00
1.5831e+00 1.6272e+00 1.6272e+00 1.5861e+00
1.5827e+00 1.6268e+00 1.6268e+00 1.5857e+00
1.5823e+00 1.6220e+00 1.6220e+00 1.5853e+00
1.5819e+00 1.6217e+00 1.6217e+00 1.5849e+00
1.5815e+00 1.6213e+00 1.6213e+00 1.5844e+00
1.5811e+00 1.6209e+00 1.6209e+00 1.5840e+00
1.5807e+00 1.6205e+00 1.6205e+00 1.5836e+00
1.5803e+00 1.6202e+00 1.6202e+00 1.5832e+00
1.5798e+00 1.6198e+00 1.6198e+00 1.5828e+00
1.5794e+00 1.6194e+00 1.6194e+00 1.5824e+00
1.5790e+00 1.6190e+00 1.6190e+00 1.5820e+00
1.5786e+00 1.6187e+00 1.6187e+00 1.5816e+00
1.5782e+00 1.6183e+00 1.6183e+00 1.5812e+00
1.5778e+00 1.6179e+00 1.6179e+00 1.5807e+00
1.5774e+00 1.6175e+00 1.6175e+00 1.5803e+00
1.5770e+00 1.6171e+00 1.6171e+00 1.5799e+00
1.5765e+00 1.6168e+00 1.6168e+00 1.5795e+00
1.5761e+00 1.6164e+00 1.6164e+00 1.5791e+00
1.5757e+00 1.6160e+00 1.6160e+00 1.5787e+00
1.5753e+00 1.6156e+00 1.6156e+00 1.5783e+00
1.5749e+00 1.6152e+00 1.6152e+00 1.5778e+00
1.5745e+00 1.6149e+00 1.6149e+00 1.5774e+00
1.5741e+00 1.6145e+00 1.6145e+00 1.5770e+00
1.5736e+00 1.6141e+00 1.6141e+00 1.5766e+00