<?xml version="1.0"?>
<VTKFile type="StructuredGrid" version="0.1">
  <StructuredGrid WholeExtent="0 16 0 16 0 16">
    <Piece Extent="0 16 0 16 0 16">
      <PointData Scalars="temperature" Vectors="velocity">
        <DataArray type="Float32" Name="temperature" format="ascii">
1.000000e+00
5.731990e-01
5.730255e-01
5.730476e-01
5.730618e-01
5.730752e-01
5.730865e-01
5.730941e-01
5.730970e-01
5.730946e-01
5.730876e-01
5.730768e-01
5.730645e-01
5.730499e-01
5.730903e-01
5.724519e-01
0.000000e+00
1.000000e+00
5.731546e-01
5.730176e-01
5.730354e-01
5.730445e-01
5.730531e-01
5.730602e-01
5.730649e-01
5.730666e-01
5.730649e-01
5.730603e-01
5.730534e-01
5.730504e-01
5.730434e-01
5.730744e-01
5.723717e-01
0.000000e+00
1.000000e+00
5.730484e-01
5.727737e-01
5.726469e-01
5.725133e-01
5.723866e-01
5.722801e-01
5.722082e-01
5.721825e-01
5.722075e-01
5.722790e-01
5.723853e-01
5.725272e-01
5.726676e-01
5.728548e-01
5.725225e-01
0.000000e+00
1.000000e+00
5.727673e-01
5.722669e-01
5.718484e-01
5.714197e-01
5.710132e-01
5.706716e-01
5.704415e-01
5.703598e-01
5.704410e-01
5.706718e-01
5.710139e-01
5.714533e-01
5.718918e-01
5.723251e-01
5.724008e-01
0.000000e+00
1.000000e+00
5.723445e-01
5.714879e-01
5.706220e-01
5.697404e-01
5.689046e-01
5.682026e-01
5.677301e-01
5.675634e-01
5.677325e-01
5.682097e-01
5.689153e-01
5.698070e-01
5.706987e-01
5.715696e-01
5.718934e-01
0.000000e+00
1.000000e+00
5.717959e-01
5.704445e-01
5.689810e-01
5.674937e-01
5.660839e-01
5.649004e-01
5.641043e-01
5.638250e-01
5.641131e-01
5.649204e-01
5.661113e-01
5.675972e-01
5.690961e-01
5.705646e-01
5.712955e-01
0.000000e+00
1.000000e+00
5.711438e-01
5.691655e-01
5.669723e-01
5.647439e-01
5.626319e-01
5.608594e-01
5.596682e-01
5.592518e-01
5.596860e-01
5.608963e-01
5.626802e-01
5.648830e-01
5.671218e-01
5.693097e-01
5.706828e-01
0.000000e+00
1.000000e+00
5.704075e-01
5.677016e-01
5.646756e-01
5.615999e-01
5.586856e-01
5.562406e-01
5.545986e-01
5.540262e-01
5.546269e-01
5.562963e-01
5.587568e-01
5.617729e-01
5.648571e-01
5.678634e-01
5.700100e-01
0.000000e+00
1.000000e+00
5.696201e-01
5.661220e-01
5.621991e-01
5.582100e-01
5.544308e-01
5.512608e-01
5.491334e-01
5.483936e-01
5.491743e-01
5.513373e-01
5.545263e-01
5.584174e-01
5.624080e-01
5.662975e-01
5.692693e-01
0.000000e+00
1.000000e+00
5.688197e-01
5.645084e-01
5.596701e-01
5.547484e-01
5.500863e-01
5.461765e-01
5.435532e-01
5.426429e-01
5.436072e-01
5.462741e-01
5.502059e-01
5.549875e-01
5.599034e-01
5.646991e-01
5.685082e-01
0.000000e+00
1.000000e+00
5.680464e-01
5.629459e-01
5.572218e-01
5.513975e-01
5.458807e-01
5.412546e-01
5.381516e-01
5.370757e-01
5.382176e-01
5.413723e-01
5.460215e-01
5.516670e-01
5.574738e-01
5.631450e-01
5.677765e-01
0.000000e+00
1.000000e+00
5.673364e-01
5.615138e-01
5.549779e-01
5.483265e-01
5.420268e-01
5.367444e-01
5.332017e-01
5.319743e-01
5.332782e-01
5.368799e-01
5.421861e-01
5.486202e-01
5.552458e-01
5.617215e-01
5.671058e-01
0.000000e+00
1.000000e+00
5.667233e-01
5.602777e-01
5.530415e-01
5.456765e-01
5.387011e-01
5.328527e-01
5.289309e-01
5.275720e-01
5.290146e-01
5.330022e-01
5.388750e-01
5.459913e-01
5.533187e-01
5.604883e-01
5.665248e-01
0.000000e+00
1.000000e+00
5.662378e-01
5.592835e-01
5.514858e-01
5.435477e-01
5.360300e-01
5.297273e-01
5.254998e-01
5.240335e-01
5.255879e-01
5.298860e-01
5.362150e-01
5.438743e-01
5.517704e-01
5.595051e-01
5.660703e-01
0.000000e+00
1.000000e+00
5.658957e-01
5.585576e-01
5.503524e-01
5.419966e-01
5.340829e-01
5.274473e-01
5.229967e-01
5.214528e-01
5.230887e-01
5.276130e-01
5.342776e-01
5.423287e-01
5.506352e-01
5.587842e-01
5.657147e-01
0.000000e+00
1.000000e+00
5.656697e-01
5.581064e-01
5.496475e-01
5.410319e-01
5.328725e-01
5.260311e-01
5.214424e-01
5.198504e-01
5.215368e-01
5.262019e-01
5.330817e-01
5.413593e-01
5.499330e-01
5.583565e-01
5.655536e-01
0.000000e+00
1.000000e+00
5.655236e-01
5.579064e-01
5.493504e-01
5.406273e-01
5.323678e-01
5.254442e-01
5.208024e-01
5.191950e-01
5.209060e-01
5.256318e-01
5.326082e-01
5.409506e-01
5.496656e-01
5.583044e-01
5.648923e-01
0.000000e+00
1.000000e+00
5.730934e-01
5.730299e-01
5.730631e-01
5.730820e-01
5.730998e-01
5.731148e-01
5.731249e-01
5.731286e-01
5.731253e-01
5.731155e-01
5.731010e-01
5.730828e-01
5.730606e-01
5.730248e-01
5.729651e-01
0.000000e+00
1.000000e+00
5.729699e-01
5.727962e-01
5.726907e-01
5.725719e-01
5.724592e-01
5.723644e-01
5.723005e-01
5.722779e-01
5.723005e-01
5.723640e-01
5.724597e-01
5.725774e-01
5.726935e-01
5.728093e-01
5.723245e-01
0.000000e+00
1.000000e+00
5.726930e-01
5.722991e-01
5.719027e-01
5.714927e-01
5.711038e-01
5.707768e-01
5.705563e-01
5.704779e-01
5.705552e-01
5.707751e-01
5.711046e-01
5.715123e-01
5.719202e-01
5.723630e-01
5.724469e-01
0.000000e+00
1.000000e+00
5.722923e-01
5.715173e-01
5.706671e-01
5.698011e-01
5.689796e-01
5.682892e-01
5.678239e-01
5.676590e-01
5.678238e-01
5.682915e-01
5.689886e-01
5.698435e-01
5.707085e-01
5.715780e-01
5.720374e-01
0.000000e+00
1.000000e+00
5.717443e-01
5.704453e-01
5.689795e-01
5.674905e-01
5.660785e-01
5.648923e-01
5.640936e-01
5.638121e-01
5.640987e-01
5.649057e-01
5.661035e-01
5.675597e-01
5.690459e-01
5.705218e-01
5.714413e-01
0.000000e+00
1.000000e+00
5.710636e-01
5.691017e-01
5.668685e-01
5.646004e-01
5.624502e-01
5.606446e-01
5.594303e-01
5.590045e-01
5.594444e-01
5.606745e-01
5.624959e-01
5.647005e-01
5.669666e-01
5.692057e-01
5.707478e-01
0.000000e+00
1.000000e+00
5.702737e-01
5.675299e-01
5.644019e-01
5.612236e-01
5.582112e-01
5.556827e-01
5.539838e-01
5.533904e-01
5.540095e-01
5.557327e-01
5.582808e-01
5.613584e-01
5.645331e-01
5.676556e-01
5.699696e-01
0.000000e+00
1.000000e+00
5.694090e-01
5.657971e-01
5.616847e-01
5.575040e-01
5.535422e-01
5.502179e-01
5.479860e-01
5.472087e-01
5.480251e-01
5.502905e-01
5.536382e-01
5.576742e-01
5.618483e-01
5.659426e-01
5.691521e-01
0.000000e+00
1.000000e+00
5.685137e-01
5.639898e-01
5.588518e-01
5.536262e-01
5.486750e-01
5.445216e-01
5.417343e-01
5.407658e-01
5.417878e-01
5.446177e-01
5.487977e-01
5.538343e-01
5.590456e-01
5.641487e-01
5.682880e-01
0.000000e+00
1.000000e+00
5.676331e-01
5.622047e-01
5.560546e-01
5.497975e-01
5.438697e-01
5.388983e-01
5.355630e-01
5.344056e-01
5.356302e-01
5.390174e-01
5.440183e-01
5.500410e-01
5.562760e-01
5.623786e-01
5.674470e-01
0.000000e+00
1.000000e+00
5.668110e-01
5.605384e-01
5.534440e-01
5.462246e-01
5.393860e-01
5.336513e-01
5.298050e-01
5.284711e-01
5.298846e-01
5.337917e-01
5.395569e-01
5.465026e-01
5.536873e-01
5.607156e-01
5.666638e-01
0.000000e+00
1.000000e+00
5.660911e-01
5.590763e-01
5.511539e-01
5.430906e-01
5.354532e-01
5.290495e-01
5.247547e-01
5.232658e-01
5.248448e-01
5.292084e-01
5.356427e-01
5.433969e-01
5.514177e-01
5.592602e-01
5.659709e-01
0.000000e+00
1.000000e+00
5.655040e-01
5.578844e-01
5.492870e-01
5.405359e-01
5.322477e-01
5.252985e-01
5.206384e-01
5.190232e-01
5.207364e-01
5.254721e-01
5.324509e-01
5.408658e-01
5.495651e-01
5.580661e-01
5.654024e-01
0.000000e+00
1.000000e+00
5.650705e-01
5.570031e-01
5.479073e-01
5.386484e-01
5.298797e-01
5.225278e-01
5.175973e-01
5.158873e-01
5.176993e-01
5.227103e-01
5.300932e-01
5.389891e-01
5.481959e-01
5.571874e-01
5.649945e-01
0.000000e+00
1.000000e+00
5.648118e-01
5.564461e-01
5.470396e-01
5.374614e-01
5.283898e-01
5.207835e-01
5.156818e-01
5.139125e-01
5.157869e-01
5.209718e-01
5.286132e-01
5.378045e-01
5.473243e-01
5.566327e-01
5.647308e-01
0.000000e+00
1.000000e+00
5.646901e-01
5.562090e-01
5.466700e-01
5.369563e-01
5.277568e-01
5.200436e-01
5.148702e-01
5.130758e-01
5.149769e-01
5.202361e-01
5.279950e-01
5.372864e-01
5.469454e-01
5.564453e-01
5.646284e-01
0.000000e+00
1.000000e+00
5.648715e-01
5.562507e-01
5.467705e-01
5.370950e-01
5.279324e-01
5.202505e-01
5.150980e-01
5.133105e-01
5.152036e-01
5.204422e-01
5.281826e-01
5.373946e-01
5.470890e-01
5.568645e-01
5.636319e-01
0.000000e+00
1.000000e+00
5.732639e-01
5.732749e-01
5.734496e-01
5.736106e-01
5.737632e-01
5.738915e-01
5.739780e-01
5.740086e-01
5.739775e-01
5.738898e-01
5.737593e-01
5.736066e-01
5.734532e-01
5.732891e-01
5.734792e-01
0.000000e+00
1.000000e+00
5.730222e-01
5.728053e-01
5.727058e-01
5.725920e-01
5.724842e-01
5.723935e-01
5.723324e-01
5.723107e-01
5.723314e-01
5.723908e-01
5.724828e-01
5.725963e-01
5.727130e-01
5.728149e-01
5.731440e-01
0.000000e+00
1.000000e+00
5.726053e-01
5.720408e-01
5.715006e-01
5.709413e-01
5.704111e-01
5.699655e-01
5.696655e-01
5.695593e-01
5.696655e-01
5.699662e-01
5.704196e-01
5.709665e-01
5.715189e-01
5.720633e-01
5.726387e-01
0.000000e+00
1.000000e+00
5.720341e-01
5.709642e-01
5.698064e-01
5.686218e-01
5.674986e-01
5.665550e-01
5.659199e-01
5.656962e-01
5.659243e-01
5.665670e-01
5.675243e-01
5.686768e-01
5.698522e-01
5.710077e-01
5.719252e-01
0.000000e+00
1.000000e+00
5.713233e-01
5.695802e-01
5.676320e-01
5.656449e-01
5.637611e-01
5.621792e-01
5.611152e-01
5.607423e-01
5.611279e-01
5.622078e-01
5.638065e-01
5.657274e-01
5.677028e-01
5.696514e-01
5.711650e-01
0.000000e+00
1.000000e+00
5.704841e-01
5.679191e-01
5.650254e-01
5.620764e-01
5.592811e-01
5.569347e-01
5.553582e-01
5.548076e-01
5.553823e-01
5.569840e-01
5.593512e-01
5.621890e-01
5.651256e-01
5.680180e-01
5.703055e-01
0.000000e+00
1.000000e+00
5.695451e-01
5.660399e-01
5.620785e-01
5.580421e-01
5.542168e-01
5.510071e-01
5.488521e-01
5.481017e-01
5.488903e-01
5.510801e-01
5.543157e-01
5.581913e-01
5.622095e-01
5.661633e-01
5.693747e-01
0.000000e+00
1.000000e+00
5.685467e-01
5.640278e-01
5.589250e-01
5.537250e-01
5.487981e-01
5.446652e-01
5.418919e-01
5.409284e-01
5.419457e-01
5.447637e-01
5.489271e-01
5.539143e-01
5.590860e-01
5.641731e-01
5.683932e-01
0.000000e+00
1.000000e+00
5.675397e-01
5.619883e-01
5.557292e-01
5.493505e-01
5.433075e-01
5.382398e-01
5.348405e-01
5.336611e-01
5.349099e-01
5.383642e-01
5.434659e-01
5.495823e-01
5.559192e-01
5.621482e-01
5.674084e-01
0.000000e+00
1.000000e+00
5.665773e-01
5.600349e-01
5.526686e-01
5.451614e-01
5.380504e-01
5.320878e-01
5.280893e-01
5.267032e-01
5.281734e-01
5.322368e-01
5.382357e-01
5.454340e-01
5.528863e-01
5.602067e-01
5.664753e-01
0.000000e+00
1.000000e+00
5.657117e-01
5.582760e-01
5.499129e-01
5.413902e-01
5.333179e-01
5.265502e-01
5.220124e-01
5.204397e-01
5.221090e-01
5.267206e-01
5.335256e-01
5.417021e-01
5.501579e-01
5.584513e-01
5.656382e-01
0.000000e+00
1.000000e+00
5.649863e-01
5.568024e-01
5.476041e-01
5.382308e-01
5.293537e-01
5.219115e-01
5.169216e-01
5.151924e-01
5.170277e-01
5.220996e-01
5.295789e-01
5.385723e-01
5.478775e-01
5.569823e-01
5.649304e-01
0.000000e+00
1.000000e+00
5.644310e-01
5.556781e-01
5.458415e-01
5.358194e-01
5.263280e-01
5.183711e-01
5.130359e-01
5.111868e-01
5.131489e-01
5.185732e-01
5.265658e-01
5.361800e-01
5.461393e-01
5.558518e-01
5.643914e-01
0.000000e+00
1.000000e+00
5.640634e-01
5.549349e-01
5.446760e-01
5.342251e-01
5.243279e-01
5.160309e-01
5.104676e-01
5.085387e-01
5.105838e-01
5.162412e-01
5.245752e-01
5.345904e-01
5.449904e-01
5.551056e-01
5.640302e-01
0.000000e+00
1.000000e+00
5.639061e-01
5.545718e-01
5.441121e-01
5.334536e-01
5.233595e-01
5.148967e-01
5.092215e-01
5.072540e-01
5.093401e-01
5.151112e-01
5.236161e-01
5.338151e-01
5.444152e-01
5.547447e-01
5.638711e-01
0.000000e+00
1.000000e+00
5.639038e-01
5.545727e-01
5.441125e-01
5.334548e-01
5.233617e-01
5.148995e-01
5.092244e-01
5.072566e-01
5.093426e-01
5.151141e-01
5.236282e-01
5.337960e-01
5.444087e-01
5.548259e-01
5.638369e-01
0.000000e+00
1.000000e+00
5.642199e-01
5.548780e-01
5.446213e-01
5.341529e-01
5.242396e-01
5.159283e-01
5.103540e-01
5.084205e-01
5.104689e-01
5.161382e-01
5.245112e-01
5.344632e-01
5.449569e-01
5.555660e-01
5.629081e-01
0.000000e+00
1.000000e+00
5.735503e-01
5.737822e-01
5.742430e-01
5.746970e-01
5.751276e-01
5.754894e-01
5.757329e-01
5.758180e-01
5.757287e-01
5.754821e-01
5.751199e-01
5.746941e-01
5.742638e-01
5.738229e-01
5.732310e-01
0.000000e+00
1.000000e+00
5.731771e-01
5.730758e-01
5.731274e-01
5.731694e-01
5.732094e-01
5.732431e-01
5.732657e-01
5.732730e-01
5.732623e-01
5.732358e-01
5.732042e-01
5.731753e-01
5.731555e-01
5.731070e-01
5.730874e-01
0.000000e+00
1.000000e+00
5.726492e-01
5.720423e-01
5.715008e-01
5.709426e-01
5.704136e-01
5.699692e-01
5.696701e-01
5.695641e-01
5.696693e-01
5.699689e-01
5.704267e-01
5.709707e-01
5.715360e-01
5.720608e-01
5.725591e-01
0.000000e+00
1.000000e+00
5.719291e-01
5.706681e-01
5.693445e-01
5.679902e-01
5.667064e-01
5.656285e-01
5.649037e-01
5.646494e-01
5.649115e-01
5.656476e-01
5.667474e-01
5.680501e-01
5.693996e-01
5.707237e-01
5.716296e-01
0.000000e+00
1.000000e+00
5.710560e-01
5.689672e-01
5.666778e-01
5.643389e-01
5.621222e-01
5.602616e-01
5.590115e-01
5.585750e-01
5.590314e-01
5.603046e-01
5.621883e-01
5.644366e-01
5.667645e-01
5.690592e-01
5.707413e-01
0.000000e+00
1.000000e+00
5.700539e-01
5.669832e-01
5.635690e-01
5.600825e-01
5.567786e-01
5.540065e-01
5.521456e-01
5.514979e-01
5.521800e-01
5.540758e-01
5.568713e-01
5.602120e-01
5.636816e-01
5.670965e-01
5.697598e-01
0.000000e+00
1.000000e+00
5.689610e-01
5.647926e-01
5.601374e-01
5.553844e-01
5.508810e-01
5.471038e-01
5.445697e-01
5.436898e-01
5.446207e-01
5.472019e-01
5.510057e-01
5.555518e-01
5.602762e-01
5.649294e-01
5.686998e-01
0.000000e+00
1.000000e+00
5.678260e-01
5.625008e-01
5.565480e-01
5.504704e-01
5.447131e-01
5.398856e-01
5.366482e-01
5.355258e-01
5.367167e-01
5.400133e-01
5.448737e-01
5.506830e-01
5.567136e-01
5.626600e-01
5.676090e-01
0.000000e+00
1.000000e+00
5.667082e-01
5.602335e-01
5.529967e-01
5.456092e-01
5.386121e-01
5.327462e-01
5.288135e-01
5.274510e-01
5.288989e-01
5.329023e-01
5.388068e-01
5.458709e-01
5.531888e-01
5.604043e-01
5.665303e-01
0.000000e+00
1.000000e+00
5.656696e-01
5.581214e-01
5.496883e-01
5.410810e-01
5.329296e-01
5.260968e-01
5.215166e-01
5.199302e-01
5.216171e-01
5.262781e-01
5.331534e-01
5.413911e-01
5.499106e-01
5.583074e-01
5.655294e-01
0.000000e+00
1.000000e+00
5.647648e-01
5.562847e-01
5.468105e-01
5.371429e-01
5.279880e-01
5.203145e-01
5.151707e-01
5.133894e-01
5.152835e-01
5.205163e-01
5.282340e-01
5.374963e-01
5.470641e-01
5.564781e-01
5.646432e-01
0.000000e+00
1.000000e+00
5.640406e-01
5.548182e-01
5.445113e-01
5.339972e-01
5.240410e-01
5.156959e-01
5.101016e-01
5.081639e-01
5.102229e-01
5.159133e-01
5.243033e-01
5.343785e-01
5.448010e-01
5.550137e-01
5.639303e-01
0.000000e+00
1.000000e+00
5.635237e-01
5.537816e-01
5.428840e-01
5.317710e-01
5.212480e-01
5.124275e-01
5.065138e-01
5.044646e-01
5.066407e-01
5.126572e-01
5.215218e-01
5.321607e-01
5.432117e-01
5.539665e-01
5.634339e-01
0.000000e+00
1.000000e+00
5.632289e-01
5.531946e-01
5.419618e-01
5.305099e-01
5.196661e-01
5.105769e-01
5.044830e-01
5.023704e-01
5.046120e-01
5.108137e-01
5.199496e-01
5.308892e-01
5.423210e-01
5.533737e-01
5.631491e-01
0.000000e+00
1.000000e+00
5.631745e-01
5.530422e-01
5.417262e-01
5.301875e-01
5.192610e-01
5.101014e-01
5.039602e-01
5.018320e-01
5.040912e-01
5.103411e-01
5.195526e-01
5.305549e-01
5.420666e-01
5.532223e-01
5.631110e-01
0.000000e+00
1.000000e+00
5.632983e-01
5.532917e-01
5.421136e-01
5.307181e-01
5.199269e-01
5.108804e-01
5.048144e-01
5.027120e-01
5.049435e-01
5.111166e-01
5.202211e-01
5.310646e-01
5.424431e-01
5.535633e-01
5.631845e-01
0.000000e+00
1.000000e+00
5.637405e-01
5.538648e-01
5.430381e-01
5.319855e-01
5.215197e-01
5.127458e-01
5.068622e-01
5.048226e-01
5.069868e-01
5.129747e-01
5.218085e-01
5.323144e-01
5.434022e-01
5.545389e-01
5.624618e-01
0.000000e+00
1.000000e+00
5.739528e-01
5.745577e-01
5.754589e-01
5.763628e-01
5.772200e-01
5.779403e-01
5.784252e-01
5.785958e-01
5.784224e-01
5.779374e-01
5.772240e-01
5.763765e-01
5.755128e-01
5.746403e-01
5.733302e-01
0.000000e+00
1.000000e+00
5.734583e-01
5.736283e-01
5.739895e-01
5.743506e-01
5.746932e-01
5.749809e-01
5.751741e-01
5.752404e-01
5.751671e-01
5.749688e-01
5.746860e-01
5.743632e-01
5.740453e-01
5.737012e-01
5.731534e-01
0.000000e+00
1.000000e+00
5.727841e-01
5.723357e-01
5.719575e-01
5.715680e-01
5.711989e-01
5.708890e-01
5.706804e-01
5.706059e-01
5.706777e-01
5.708851e-01
5.712114e-01
5.716020e-01
5.720260e-01
5.723874e-01
5.725272e-01
0.000000e+00
1.000000e+00
5.719546e-01
5.706734e-01
5.693511e-01
5.679996e-01
5.667189e-01
5.656442e-01
5.649220e-01
5.646690e-01
5.649310e-01
5.656659e-01
5.667702e-01
5.680647e-01
5.694288e-01
5.707549e-01
5.715184e-01
0.000000e+00
1.000000e+00
5.709374e-01
5.686650e-01
5.662056e-01
5.636930e-01
5.613123e-01
5.593150e-01
5.579745e-01
5.575079e-01
5.580002e-01
5.593699e-01
5.613993e-01
5.637993e-01
5.663106e-01
5.687887e-01
5.705751e-01
0.000000e+00
1.000000e+00
5.697898e-01
5.663675e-01
5.626100e-01
5.587701e-01
5.551321e-01
5.520812e-01
5.500349e-01
5.493250e-01
5.500789e-01
5.521689e-01
5.552500e-01
5.589183e-01
5.627420e-01
5.665109e-01
5.694731e-01
0.000000e+00
1.000000e+00
5.685547e-01
5.638756e-01
5.587112e-01
5.534322e-01
5.484319e-01
5.442397e-01
5.414291e-01
5.404558e-01
5.414922e-01
5.443613e-01
5.485830e-01
5.536212e-01
5.588683e-01
5.640380e-01
5.682528e-01
0.000000e+00
1.000000e+00
5.672919e-01
5.613160e-01
5.547065e-01
5.479497e-01
5.415509e-01
5.361876e-01
5.325931e-01
5.313492e-01
5.326752e-01
5.363437e-01
5.417396e-01
5.481843e-01
5.548888e-01
5.614958e-01
5.670139e-01
0.000000e+00
1.000000e+00
5.660721e-01
5.588350e-01
5.508240e-01
5.426351e-01
5.348815e-01
5.283838e-01
5.240294e-01
5.225228e-01
5.241293e-01
5.285714e-01
5.351080e-01
5.429220e-01
5.510332e-01
5.590255e-01
5.658362e-01
0.000000e+00
1.000000e+00
5.649632e-01
5.565809e-01
5.472951e-01
5.378054e-01
5.288211e-01
5.212924e-01
5.162472e-01
5.145015e-01
5.163623e-01
5.215061e-01
5.290818e-01
5.381436e-01
5.475332e-01
5.567858e-01
5.647795e-01
0.000000e+00
1.000000e+00
5.640273e-01
5.546846e-01
5.443242e-01
5.337401e-01
5.237200e-01
5.153233e-01
5.096960e-01
5.077483e-01
5.098227e-01
5.155562e-01
5.240068e-01
5.341216e-01
5.445945e-01
5.548900e-01
5.638813e-01
0.000000e+00
1.000000e+00
5.633105e-01
5.532435e-01
5.420631e-01
5.306465e-01
5.198381e-01
5.107803e-01
5.047092e-01
5.026071e-01
5.048435e-01
5.110260e-01
5.201426e-01
5.310500e-01
5.423750e-01
5.534533e-01
5.631969e-01
0.000000e+00
1.000000e+00
5.628343e-01
5.523109e-01
5.405953e-01
5.286388e-01
5.173186e-01
5.078308e-01
5.014705e-01
4.992677e-01
5.016103e-01
5.080867e-01
5.176350e-01
5.290388e-01
5.409525e-01
5.525208e-01
5.627562e-01
0.000000e+00
1.000000e+00
5.626303e-01
5.518894e-01
5.399339e-01
5.277350e-01
5.161851e-01
5.065045e-01
5.000143e-01
4.977653e-01
5.001550e-01
5.067653e-01
5.165101e-01
5.281124e-01
5.403228e-01
5.521268e-01
5.625303e-01
0.000000e+00
1.000000e+00
5.626651e-01
5.519525e-01
5.400331e-01
5.278705e-01
5.163546e-01
5.067025e-01
5.002321e-01
4.979912e-01
5.003742e-01
5.069655e-01
5.166864e-01
5.282316e-01
5.403880e-01
5.521960e-01
5.625778e-01
0.000000e+00
1.000000e+00
5.629145e-01
5.524509e-01
5.408062e-01
5.289282e-01
5.176809e-01
5.082533e-01
5.019330e-01
4.997439e-01
5.020714e-01
5.085088e-01
5.180035e-01
5.292703e-01
5.411587e-01
5.527673e-01
5.627809e-01
0.000000e+00
1.000000e+00
5.634704e-01
5.532866e-01
5.421353e-01
5.307495e-01
5.199687e-01
5.109320e-01
5.048732e-01
5.027743e-01
5.050056e-01
5.111768e-01
5.202729e-01
5.310960e-01
5.425319e-01
5.539294e-01
5.622192e-01
0.000000e+00
1.000000e+00
5.744797e-01
5.755968e-01
5.770956e-01
5.786034e-01
5.800334e-01
5.812350e-01
5.820443e-01
5.823303e-01
5.820432e-01
5.812390e-01
5.800579e-01
5.786470e-01
5.771931e-01
5.757180e-01
5.737021e-01
0.000000e+00
1.000000e+00
5.738730e-01
5.744616e-01
5.752970e-01
5.761408e-01
5.769410e-01
5.776134e-01
5.780660e-01
5.782244e-01
5.780600e-01
5.776037e-01
5.769417e-01
5.761705e-01
5.753949e-01
5.745781e-01
5.733840e-01
0.000000e+00
1.000000e+00
5.730837e-01
5.729333e-01
5.728893e-01
5.728444e-01
5.728022e-01
5.727671e-01
5.727435e-01
5.727339e-01
5.727393e-01
5.727605e-01
5.728129e-01
5.728882e-01
5.729945e-01
5.730258e-01
5.726785e-01
0.000000e+00
1.000000e+00
5.720992e-01
5.710059e-01
5.698687e-01
5.687086e-01
5.676098e-01
5.666883e-01
5.660695e-01
5.658531e-01
5.660780e-01
5.667081e-01
5.676661e-01
5.687848e-01
5.699873e-01
5.711143e-01
5.715641e-01
0.000000e+00
1.000000e+00
5.709660e-01
5.687144e-01
5.662820e-01
5.637979e-01
5.614446e-01
5.594717e-01
5.581485e-01
5.576895e-01
5.581778e-01
5.595336e-01
5.615480e-01
5.639093e-01
5.664169e-01
5.688592e-01
5.704545e-01
0.000000e+00
1.000000e+00
5.696958e-01
5.661302e-01
5.622395e-01
5.582635e-01
5.544974e-01
5.513405e-01
5.492250e-01
5.484934e-01
5.492766e-01
5.514432e-01
5.546404e-01
5.584189e-01
5.623925e-01
5.662957e-01
5.692604e-01
0.000000e+00
1.000000e+00
5.683495e-01
5.633649e-01
5.579161e-01
5.523445e-01
5.470686e-01
5.426471e-01
5.396848e-01
5.386615e-01
5.397578e-01
5.427880e-01
5.472485e-01
5.525488e-01
5.580951e-01
5.635516e-01
5.679738e-01
0.000000e+00
1.000000e+00
5.669851e-01
5.605652e-01
5.535398e-01
5.463537e-01
5.395507e-01
5.338506e-01
5.300322e-01
5.287127e-01
5.301251e-01
5.340290e-01
5.397697e-01
5.466068e-01
5.537406e-01
5.607703e-01
5.666756e-01
0.000000e+00
1.000000e+00
5.656811e-01
5.578970e-01
5.493690e-01
5.406451e-01
5.323879e-01
5.254701e-01
5.208355e-01
5.192335e-01
5.209464e-01
5.256822e-01
5.326457e-01
5.409518e-01
5.495953e-01
5.581149e-01
5.654289e-01
0.000000e+00
1.000000e+00
5.645164e-01
5.555252e-01
5.456596e-01
5.355690e-01
5.260188e-01
5.180177e-01
5.126567e-01
5.108028e-01
5.127825e-01
5.182572e-01
5.263117e-01
5.359250e-01
5.459150e-01
5.557507e-01
5.642969e-01
0.000000e+00
1.000000e+00
5.635574e-01
5.535905e-01
5.426302e-01
5.314235e-01
5.208170e-01
5.119302e-01
5.059750e-01
5.039145e-01
5.061118e-01
5.121885e-01
5.211388e-01
5.318175e-01
5.429181e-01
5.538150e-01
5.633480e-01
0.000000e+00
1.000000e+00
5.628480e-01
5.521909e-01
5.404328e-01
5.284167e-01
5.170431e-01
5.075127e-01
5.011253e-01
4.989144e-01
5.012694e-01
5.077824e-01
5.173876e-01
5.288292e-01
5.407593e-01
5.524269e-01
5.626496e-01
0.000000e+00
1.000000e+00
5.624081e-01
5.513718e-01
5.391385e-01
5.266455e-01
5.148191e-01
5.049085e-01
4.982661e-01
4.959672e-01
4.984163e-01
5.051881e-01
5.151795e-01
5.270560e-01
5.394990e-01
5.516222e-01
5.622380e-01
0.000000e+00
1.000000e+00
5.623148e-01
5.511180e-01
5.387407e-01
5.261018e-01
5.141364e-01
5.041084e-01
4.973864e-01
4.950592e-01
4.975372e-01
5.043909e-01
5.145018e-01
5.264891e-01
5.391013e-01
5.514101e-01
5.620771e-01
0.000000e+00
1.000000e+00
5.624238e-01
5.513871e-01
5.391623e-01
5.266793e-01
5.148618e-01
5.049581e-01
4.983202e-01
4.960227e-01
4.984704e-01
5.052398e-01
5.152273e-01
5.270486e-01
5.394992e-01
5.516967e-01
5.622114e-01
0.000000e+00
1.000000e+00
5.627830e-01
5.521191e-01
5.402971e-01
5.282312e-01
5.168073e-01
5.072329e-01
5.008154e-01
4.985943e-01
5.009604e-01
5.075030e-01
5.171516e-01
5.285829e-01
5.406563e-01
5.524654e-01
5.625293e-01
0.000000e+00
1.000000e+00
5.634307e-01
5.531976e-01
5.419977e-01
5.305608e-01
5.197324e-01
5.106570e-01
5.045737e-01
5.024679e-01
5.047112e-01
5.109131e-01
5.200494e-01
5.309292e-01
5.423551e-01
5.537307e-01
5.624521e-01
0.000000e+00
1.000000e+00
5.751452e-01
5.768726e-01
5.791040e-01
5.813539e-01
5.834876e-01
5.852807e-01
5.864884e-01
5.869155e-01
5.864902e-01
5.852996e-01
5.835436e-01
5.814396e-01
5.792394e-01
5.770266e-01
5.743607e-01
0.000000e+00
1.000000e+00
5.744237e-01
5.755556e-01
5.770198e-01
5.784998e-01
5.799034e-01
5.810829e-01
5.818769e-01
5.821563e-01
5.818708e-01
5.810768e-01
5.799220e-01
5.785632e-01
5.771704e-01
5.757104e-01
5.739454e-01
0.000000e+00
1.000000e+00
5.735107e-01
5.738240e-01
5.742844e-01
5.747541e-01
5.751999e-01
5.755748e-01
5.758276e-01
5.759156e-01
5.758225e-01
5.755664e-01
5.752084e-01
5.748121e-01
5.744317e-01
5.739599e-01
5.732031e-01
0.000000e+00
1.000000e+00
5.724156e-01
5.716672e-01
5.709013e-01
5.701224e-01
5.693851e-01
5.687680e-01
5.683550e-01
5.682112e-01
5.683620e-01
5.687829e-01
5.694410e-01
5.702141e-01
5.710591e-01
5.718138e-01
5.720204e-01
0.000000e+00
1.000000e+00
5.711571e-01
5.691311e-01
5.669333e-01
5.646898e-01
5.625658e-01
5.607860e-01
5.595936e-01
5.591814e-01
5.596236e-01
5.608485e-01
5.626791e-01
5.648131e-01
5.671175e-01
5.693221e-01
5.708154e-01
0.000000e+00
1.000000e+00
5.697797e-01
5.663028e-01
5.625102e-01
5.586341e-01
5.549641e-01
5.518892e-01
5.498304e-01
5.491207e-01
5.498867e-01
5.520007e-01
5.551259e-01
5.587926e-01
5.626983e-01
5.665117e-01
5.694888e-01
0.000000e+00
1.000000e+00
5.683438e-01
5.633093e-01
5.578302e-01
5.522277e-01
5.469240e-01
5.424809e-01
5.395061e-01
5.384810e-01
5.395860e-01
5.426355e-01
5.471292e-01
5.524289e-01
5.580305e-01
5.635309e-01
5.680081e-01
0.000000e+00
1.000000e+00
5.669205e-01
5.603142e-01
5.531490e-01
5.458209e-01
5.388855e-01
5.330759e-01
5.291853e-01
5.278429e-01
5.292853e-01
5.332691e-01
5.391331e-01
5.460749e-01
5.533686e-01
5.605452e-01
5.665112e-01
0.000000e+00
1.000000e+00
5.655738e-01
5.574995e-01
5.487514e-01
5.398035e-01
5.313365e-01
5.242439e-01
5.194926e-01
5.178514e-01
5.196099e-01
5.244707e-01
5.316246e-01
5.401120e-01
5.489909e-01
5.577407e-01
5.651571e-01
0.000000e+00
1.000000e+00
5.643773e-01
5.550430e-01
5.449136e-01
5.345526e-01
5.247488e-01
5.165354e-01
5.110321e-01
5.091296e-01
5.111637e-01
5.167894e-01
5.250724e-01
5.349102e-01
5.451735e-01
5.552888e-01
5.640161e-01
0.000000e+00
1.000000e+00
5.634000e-01
5.530927e-01
5.418641e-01
5.303794e-01
5.195115e-01
5.104057e-01
5.043036e-01
5.021927e-01
5.044459e-01
5.106788e-01
5.198631e-01
5.307723e-01
5.421447e-01
5.533413e-01
5.631479e-01
0.000000e+00
1.000000e+00
5.626888e-01
5.517472e-01
5.397519e-01
5.274879e-01
5.158811e-01
5.061555e-01
4.996374e-01
4.973817e-01
4.997870e-01
5.064408e-01
5.162557e-01
5.278971e-01
5.400522e-01
5.520059e-01
5.625724e-01
0.000000e+00
1.000000e+00
5.622929e-01
5.510389e-01
5.386331e-01
5.259564e-01
5.139580e-01
5.039041e-01
4.971660e-01
4.948344e-01
4.973207e-01
5.041976e-01
5.143476e-01
5.263646e-01
5.389430e-01
5.513258e-01
5.622651e-01
0.000000e+00
1.000000e+00
5.622662e-01
5.509446e-01
5.384822e-01
5.257493e-01
5.136968e-01
5.035972e-01
4.968284e-01
4.944865e-01
4.969849e-01
5.038940e-01
5.140878e-01
5.261458e-01
5.387904e-01
5.512947e-01
5.621826e-01
0.000000e+00
1.000000e+00
5.624762e-01
5.514030e-01
5.391985e-01
5.267294e-01
5.149266e-01
5.050365e-01
4.984089e-01
4.961163e-01
4.985632e-01
5.053290e-01
5.153081e-01
5.271168e-01
5.395101e-01
5.517802e-01
5.624525e-01
0.000000e+00
1.000000e+00
5.629191e-01
5.523388e-01
5.406499e-01
5.287141e-01
5.174147e-01
5.079459e-01
5.016006e-01
4.994060e-01
5.017486e-01
5.082237e-01
5.177688e-01
5.290843e-01
5.409708e-01
5.527271e-01
5.627855e-01
0.000000e+00
1.000000e+00
5.636301e-01
5.536257e-01
5.426687e-01
5.314786e-01
5.208848e-01
5.120071e-01
5.060578e-01
5.040004e-01
5.061975e-01
5.122685e-01
5.212098e-01
5.318545e-01
5.429776e-01
5.540434e-01
5.631066e-01
0.000000e+00
1.000000e+00
5.759173e-01
5.783328e-01
5.814080e-01
5.845085e-01
5.874492e-01
5.899210e-01
5.915864e-01
5.921770e-01
5.915955e-01
5.899638e-01
5.875383e-01
5.846313e-01
5.815734e-01
5.785417e-01
5.750388e-01
0.000000e+00
1.000000e+00
5.751074e-01
5.768682e-01
5.790853e-01
5.813285e-01
5.834562e-01
5.852441e-01
5.864484e-01
5.868736e-01
5.864450e-01
5.852519e-01
5.835069e-01
5.814386e-01
5.792791e-01
5.770766e-01
5.744711e-01
0.000000e+00
1.000000e+00
5.740868e-01
5.749688e-01
5.760827e-01
5.772166e-01
5.782922e-01
5.791962e-01
5.798052e-01
5.800191e-01
5.797993e-01
5.791879e-01
5.783075e-01
5.773018e-01
5.762830e-01
5.752098e-01
5.735172e-01
0.000000e+00
1.000000e+00
5.728677e-01
5.726323e-01
5.724088e-01
5.721858e-01
5.719757e-01
5.718018e-01
5.716877e-01
5.716493e-01
5.716925e-01
5.718095e-01
5.720210e-01
5.722931e-01
5.725975e-01
5.729300e-01
5.720485e-01
0.000000e+00
1.000000e+00
5.715136e-01
5.699016e-01
5.681381e-01
5.663390e-01
5.646370e-01
5.632130e-01
5.622611e-01
5.619326e-01
5.622878e-01
5.632680e-01
5.647521e-01
5.664781e-01
5.683679e-01
5.703223e-01
5.704762e-01
0.000000e+00
1.000000e+00
5.700609e-01
5.668828e-01
5.634196e-01
5.598799e-01
5.565304e-01
5.537248e-01
5.518482e-01
5.512032e-01
5.519049e-01
5.538367e-01
5.567016e-01
5.600524e-01
5.636694e-01
5.674000e-01
5.691253e-01
0.000000e+00
1.000000e+00
5.685586e-01
5.637201e-01
5.584737e-01
5.531092e-01
5.480331e-01
5.437814e-01
5.409370e-01
5.399594e-01
5.410200e-01
5.439421e-01
5.482529e-01
5.533114e-01
5.587208e-01
5.642401e-01
5.679939e-01
0.000000e+00
1.000000e+00
5.670803e-01
5.605876e-01
5.535753e-01
5.464066e-01
5.396237e-01
5.339426e-01
5.301393e-01
5.288291e-01
5.302423e-01
5.341423e-01
5.398892e-01
5.466456e-01
5.538274e-01
5.610629e-01
5.667216e-01
0.000000e+00
1.000000e+00
5.657555e-01
5.576813e-01
5.490287e-01
5.401879e-01
5.318229e-01
5.248152e-01
5.201212e-01
5.185009e-01
5.202404e-01
5.250469e-01
5.321304e-01
5.404748e-01
5.492912e-01
5.580936e-01
5.654594e-01
0.000000e+00
1.000000e+00
5.645759e-01
5.551831e-01
5.451245e-01
5.348476e-01
5.251228e-01
5.169745e-01
5.115146e-01
5.096277e-01
5.116473e-01
5.172318e-01
5.254662e-01
5.351809e-01
5.453976e-01
5.555415e-01
5.643167e-01
0.000000e+00
1.000000e+00
5.635760e-01
5.532397e-01
5.420955e-01
5.307017e-01
5.199192e-01
5.108838e-01
5.048286e-01
5.027346e-01
5.049718e-01
5.111597e-01
5.202895e-01
5.310714e-01
5.423792e-01
5.536108e-01
5.633177e-01
0.000000e+00
1.000000e+00
5.628381e-01
5.519561e-01
5.400848e-01
5.279471e-01
5.164598e-01
5.068339e-01
5.003827e-01
4.981512e-01
5.005340e-01
5.071234e-01
5.168475e-01
5.283382e-01
5.403781e-01
5.524171e-01
5.625561e-01
0.000000e+00
1.000000e+00
5.625618e-01
5.513529e-01
5.391366e-01
5.266479e-01
5.148277e-01
5.049226e-01
4.982841e-01
4.959872e-01
4.984381e-01
5.052172e-01
5.152182e-01
5.270455e-01
5.394477e-01
5.519646e-01
5.621232e-01
0.000000e+00
1.000000e+00
5.625363e-01
5.513941e-01
5.391990e-01
5.267330e-01
5.149347e-01
5.050491e-01
4.984244e-01
4.961334e-01
4.985809e-01
5.053487e-01
5.153249e-01
5.271325e-01
5.395222e-01
5.521168e-01
5.620970e-01
0.000000e+00
1.000000e+00
5.628095e-01
5.520146e-01
5.401635e-01
5.280507e-01
5.165866e-01
5.069817e-01
5.005462e-01
4.983215e-01
5.007002e-01
5.072756e-01
5.169644e-01
5.284453e-01
5.404851e-01
5.527652e-01
5.624753e-01
0.000000e+00
1.000000e+00
5.633146e-01
5.531150e-01
5.418708e-01
5.303850e-01
5.195127e-01
5.104033e-01
5.043001e-01