<?xml version="1.0"?>
<VTKFile type="StructuredGrid" version="0.1">
  <StructuredGrid WholeExtent="0 16 0 16 0 16">
    <Piece Extent="0 16 0 16 0 16">
      <PointData Scalars="temperature" Vectors="velocity">
        <DataArray type="Float32" Name="temperature" format="ascii">
1.000000e+00
5.730751e-01
5.730243e-01
5.730414e-01
5.730555e-01
5.730689e-01
5.730802e-01
5.730877e-01
5.730904e-01
5.730878e-01
5.730804e-01
5.730694e-01
5.730563e-01
5.730419e-01
5.730456e-01
5.728287e-01
0.000000e+00
1.000000e+00
5.730472e-01
5.730299e-01
5.730537e-01
5.730720e-01
5.730894e-01
5.731040e-01
5.731139e-01
5.731174e-01
5.731140e-01
5.731042e-01
5.730898e-01
5.730722e-01
5.730526e-01
5.730276e-01
5.730001e-01
0.000000e+00
1.000000e+00
5.731776e-01
5.732745e-01
5.734376e-01
5.735975e-01
5.737492e-01
5.738766e-01
5.739625e-01
5.739929e-01
5.739624e-01
5.738762e-01
5.737481e-01
5.735961e-01
5.734385e-01
5.732802e-01
5.732483e-01
0.000000e+00
1.000000e+00
5.734330e-01
5.737811e-01
5.742310e-01
5.746839e-01
5.751134e-01
5.754743e-01
5.757174e-01
5.758032e-01
5.757162e-01
5.754722e-01
5.751110e-01
5.746825e-01
5.742370e-01
5.737952e-01
5.733246e-01
0.000000e+00
1.000000e+00
5.738147e-01
5.745602e-01
5.754509e-01
5.763544e-01
5.772112e-01
5.779312e-01
5.784163e-01
5.785878e-01
5.784155e-01
5.779306e-01
5.772127e-01
5.763581e-01
5.754668e-01
5.745877e-01
5.736037e-01
0.000000e+00
1.000000e+00
5.743229e-01
5.756046e-01
5.770892e-01
5.785975e-01
5.800279e-01
5.812299e-01
5.820398e-01
5.823266e-01
5.820399e-01
5.812315e-01
5.800360e-01
5.786109e-01
5.771189e-01
5.756448e-01
5.740589e-01
0.000000e+00
1.000000e+00
5.749529e-01
5.768873e-01
5.791011e-01
5.813525e-01
5.834875e-01
5.852817e-01
5.864905e-01
5.869183e-01
5.864913e-01
5.852876e-01
5.835057e-01
5.813793e-01
5.791429e-01
5.769385e-01
5.746857e-01
0.000000e+00
1.000000e+00
5.756780e-01
5.783578e-01
5.814097e-01
5.845134e-01
5.874568e-01
5.899305e-01
5.915975e-01
5.921880e-01
5.916004e-01
5.899441e-01
5.874858e-01
5.845522e-01
5.814612e-01
5.784276e-01
5.753778e-01
0.000000e+00
1.000000e+00
5.764644e-01
5.799488e-01
5.839086e-01
5.879348e-01
5.917533e-01
5.949627e-01
5.971260e-01
5.978934e-01
5.971322e-01
5.949852e-01
5.917928e-01
5.879835e-01
5.839667e-01
5.800525e-01
5.760736e-01
0.000000e+00
1.000000e+00
5.772670e-01
5.815815e-01
5.864724e-01
5.914450e-01
5.961613e-01
6.001256e-01
6.027981e-01
6.037472e-01
6.028081e-01
6.001556e-01
5.962102e-01
5.914998e-01
5.865353e-01
5.817275e-01
5.766699e-01
0.000000e+00
1.000000e+00
5.780494e-01
5.831707e-01
5.889689e-01
5.948632e-01
6.004537e-01
6.051530e-01
6.083216e-01
6.094478e-01
6.083356e-01
6.051898e-01
6.005118e-01
5.949226e-01
5.890334e-01
5.833366e-01
5.773448e-01
0.000000e+00
1.000000e+00
5.787718e-01
5.846364e-01
5.912737e-01
5.980189e-01
6.044166e-01
6.097946e-01
6.134213e-01
6.147114e-01
6.134394e-01
6.098377e-01
6.044849e-01
5.980827e-01
5.913424e-01
5.848016e-01
5.781001e-01
0.000000e+00
1.000000e+00
5.793989e-01
5.859128e-01
5.932824e-01
6.007696e-01
6.078709e-01
6.138407e-01
6.178668e-01
6.192999e-01
6.178886e-01
6.138902e-01
6.079502e-01
6.008399e-01
5.933554e-01
5.860700e-01
5.787709e-01
0.000000e+00
1.000000e+00
5.799148e-01
5.869474e-01
5.949189e-01
6.030110e-01
6.106862e-01
6.171385e-01
6.214905e-01
6.230404e-01
6.215156e-01
6.171949e-01
6.107764e-01
6.030901e-01
5.950006e-01
5.871008e-01
5.793795e-01
0.000000e+00
1.000000e+00
5.803290e-01
5.877031e-01
5.961380e-01
6.046817e-01
6.127856e-01
6.195986e-01
6.241945e-01
6.258321e-01
6.242239e-01
6.196636e-01
6.128873e-01
6.047732e-01
5.962289e-01
5.878732e-01
5.798695e-01
0.000000e+00
1.000000e+00
5.806023e-01
5.881955e-01
5.969305e-01
6.057668e-01
6.141485e-01
6.211956e-01
6.259505e-01
6.276459e-01
6.259853e-01
6.212693e-01
6.142595e-01
6.058659e-01
5.970256e-01
5.883770e-01
5.801546e-01
0.000000e+00
1.000000e+00
5.807147e-01
5.884338e-01
5.973076e-01
6.062830e-01
6.147973e-01
6.219565e-01
6.267877e-01
6.285119e-01
6.268279e-01
6.220361e-01
6.149220e-01
6.063957e-01
5.974107e-01
5.886245e-01
5.801208e-01
0.000000e+00
1.000000e+00
5.729495e-01
5.728103e-01
5.727072e-01
5.725975e-01
5.724934e-01
5.724060e-01
5.723470e-01
5.723262e-01
5.723470e-01
5.724058e-01
5.724934e-01
5.725982e-01
5.727060e-01
5.729218e-01
5.723009e-01
0.000000e+00
1.000000e+00
5.730651e-01
5.730430e-01
5.730726e-01
5.730978e-01
5.731216e-01
5.731417e-01
5.731552e-01
5.731601e-01
5.731552e-01
5.731413e-01
5.731207e-01
5.730966e-01
5.730725e-01
5.730681e-01
5.728693e-01
0.000000e+00
1.000000e+00
5.733091e-01
5.735412e-01
5.738549e-01
5.741687e-01
5.744662e-01
5.747162e-01
5.748846e-01
5.749441e-01
5.748840e-01
5.747149e-01
5.744636e-01
5.741665e-01
5.738589e-01
5.735473e-01
5.732906e-01
0.000000e+00
1.000000e+00
5.737013e-01
5.743260e-01
5.750846e-01
5.758525e-01
5.765809e-01
5.771929e-01
5.776053e-01
5.777511e-01
5.776048e-01
5.771930e-01
5.765821e-01
5.758542e-01
5.750966e-01
5.743435e-01
5.736847e-01
0.000000e+00
1.000000e+00
5.742268e-01
5.754009e-01
5.767723e-01
5.781634e-01
5.794826e-01
5.805913e-01
5.813384e-01
5.816033e-01
5.813395e-01
5.805944e-01
5.794917e-01
5.781753e-01
5.767985e-01
5.754320e-01
5.741435e-01
0.000000e+00
1.000000e+00
5.748883e-01
5.767462e-01
5.788919e-01
5.810657e-01
5.831272e-01
5.848597e-01
5.860272e-01
5.864412e-01
5.860301e-01
5.848670e-01
5.831460e-01
5.810910e-01
5.789319e-01
5.767977e-01
5.747352e-01
0.000000e+00
1.000000e+00
5.756727e-01
5.783269e-01
5.813769e-01
5.844685e-01
5.874006e-01
5.898649e-01
5.915259e-01
5.921158e-01
5.915337e-01
5.898813e-01
5.874336e-01
5.845080e-01
5.814283e-01
5.784028e-01
5.754883e-01
0.000000e+00
1.000000e+00
5.765400e-01
5.800765e-01
5.841272e-01
5.882343e-01
5.921294e-01
5.954033e-01
5.976104e-01
5.983951e-01
5.976234e-01
5.954299e-01
5.921752e-01
5.882846e-01
5.841875e-01
5.801911e-01
5.762605e-01
0.000000e+00
1.000000e+00
5.774496e-01
5.819084e-01
5.870088e-01
5.921797e-01
5.970840e-01
6.012064e-01
6.039859e-01
6.049749e-01
6.040037e-01
6.012424e-01
5.971416e-01
5.922388e-01
5.870738e-01
5.820765e-01
5.769579e-01
0.000000e+00
1.000000e+00
5.783554e-01
5.837258e-01
5.898710e-01
5.960985e-01
6.020052e-01
6.069704e-01
6.103187e-01
6.115109e-01
6.103413e-01
6.070139e-01
6.020743e-01
5.961634e-01
5.899370e-01
5.839470e-01
5.775540e-01
0.000000e+00
1.000000e+00
5.792143e-01
5.854306e-01
5.925617e-01
5.997829e-01
6.066321e-01
6.123899e-01
6.162734e-01
6.176571e-01
6.163011e-01
6.124397e-01
6.067137e-01
5.998538e-01
5.926279e-01
5.856755e-01
5.782836e-01
0.000000e+00
1.000000e+00
5.799823e-01
5.869357e-01
5.949456e-01
6.030475e-01
6.107320e-01
6.171923e-01
6.215503e-01
6.231042e-01
6.215833e-01
6.172480e-01
6.108278e-01
6.031267e-01
5.950153e-01
5.871792e-01
5.789996e-01
0.000000e+00
1.000000e+00
5.806061e-01
5.881825e-01
5.969178e-01
6.057480e-01
6.141235e-01
6.211650e-01
6.259159e-01
6.276111e-01
6.259537e-01
6.212282e-01
6.142335e-01
6.058393e-01
5.969933e-01
5.884110e-01
5.797227e-01
0.000000e+00
1.000000e+00
5.810743e-01
5.891242e-01
5.984107e-01
6.077928e-01
6.166914e-01
6.241727e-01
6.292211e-01
6.310234e-01
6.292620e-01
6.242440e-01
6.168130e-01
6.078958e-01
5.984947e-01
5.893426e-01
5.803463e-01
0.000000e+00
1.000000e+00
5.814109e-01
5.897247e-01
5.993929e-01
6.091397e-01
6.183845e-01
6.261572e-01
6.314027e-01
6.332761e-01
6.314466e-01
6.262376e-01
6.185161e-01
6.092554e-01
5.994870e-01
5.899598e-01
5.807691e-01
0.000000e+00
1.000000e+00
5.815830e-01
5.900374e-01
5.998759e-01
6.098013e-01
6.192163e-01
6.271329e-01
6.324762e-01
6.343853e-01
6.325245e-01
6.272224e-01
6.193560e-01
6.099265e-01
5.999803e-01
5.902638e-01
5.809780e-01
0.000000e+00
1.000000e+00
5.815443e-01
5.900812e-01
5.998952e-01
6.098257e-01
6.192466e-01
6.271692e-01
6.325174e-01
6.344300e-01
6.325705e-01
6.272593e-01
6.193919e-01
6.099582e-01
5.999992e-01
5.902665e-01
5.810397e-01
0.000000e+00
1.000000e+00
5.727319e-01
5.723536e-01
5.719902e-01
5.716156e-01
5.712604e-01
5.709619e-01
5.707608e-01
5.706895e-01
5.707605e-01
5.709615e-01
5.712611e-01
5.716187e-01
5.719888e-01
5.724720e-01
5.723905e-01
0.000000e+00
1.000000e+00
5.729588e-01
5.728192e-01
5.727197e-01
5.726143e-01
5.725145e-01
5.724305e-01
5.723739e-01
5.723537e-01
5.723731e-01
5.724287e-01
5.725127e-01
5.726146e-01
5.727236e-01
5.728593e-01
5.727531e-01
0.000000e+00
1.000000e+00
5.733403e-01
5.735824e-01
5.739132e-01
5.742489e-01
5.745672e-01
5.748347e-01
5.750148e-01
5.750781e-01
5.750135e-01
5.748325e-01
5.745653e-01
5.742497e-01
5.739229e-01
5.735938e-01
5.730996e-01
0.000000e+00
1.000000e+00
5.738638e-01
5.746592e-01
5.756012e-01
5.765602e-01
5.774696e-01
5.782338e-01
5.787487e-01
5.789310e-01
5.787486e-01
5.782347e-01
5.774747e-01
5.765673e-01
5.756216e-01
5.746806e-01
5.737135e-01
0.000000e+00
1.000000e+00
5.745425e-01
5.760478e-01
5.777809e-01
5.795445e-01
5.812169e-01
5.826222e-01
5.835690e-01
5.839045e-01
5.835708e-01
5.826282e-01
5.812338e-01
5.795650e-01
5.778176e-01
5.760850e-01
5.743648e-01
0.000000e+00
1.000000e+00
5.753692e-01
5.777139e-01
5.804059e-01
5.831386e-01
5.857301e-01
5.879081e-01
5.893759e-01
5.898971e-01
5.893831e-01
5.879235e-01
5.857615e-01
5.831726e-01
5.804511e-01
5.777793e-01
5.751088e-01
0.000000e+00
1.000000e+00
5.763094e-01
5.796060e-01
5.833874e-01
5.872213e-01
5.908573e-01
5.939135e-01
5.959739e-01
5.967072e-01
5.959886e-01
5.939394e-01
5.909043e-01
5.872685e-01
5.834413e-01
5.797147e-01
5.759503e-01
0.000000e+00
1.000000e+00
5.773203e-01
5.816440e-01
5.865963e-01
5.916150e-01
5.963749e-01
6.003761e-01
6.030743e-01
6.040359e-01
6.030956e-01
6.004111e-01
5.964363e-01
5.916732e-01
5.866566e-01
5.818144e-01
5.767399e-01
0.000000e+00
1.000000e+00
5.783557e-01
5.837180e-01
5.898678e-01
5.960944e-01
6.020005e-01
6.069658e-01
6.103150e-01
6.115096e-01
6.103433e-01
6.070089e-01
6.020766e-01
5.961617e-01
5.899298e-01
5.839580e-01
5.775083e-01
0.000000e+00
1.000000e+00
5.793629e-01
5.857109e-01
5.930244e-01
6.004174e-01
6.074296e-01
6.133249e-01
6.173020e-01
6.187218e-01
6.173374e-01
6.133757e-01
6.075199e-01
6.004917e-01
5.930841e-01
5.859999e-01
5.782924e-01
0.000000e+00
1.000000e+00
5.802955e-01
5.875089e-01
5.958947e-01
6.043478e-01
6.123656e-01
6.191069e-01
6.236557e-01
6.252811e-01
6.236978e-01
6.191662e-01
6.124721e-01
6.044335e-01
5.959538e-01
5.878145e-01
5.790867e-01
0.000000e+00
1.000000e+00
5.811040e-01
5.890134e-01
5.983330e-01
6.076873e-01
6.165599e-01
6.240202e-01
6.290553e-01
6.308558e-01
6.291040e-01
6.240881e-01
6.166824e-01
6.077911e-01
5.983965e-01
5.893307e-01
5.799820e-01
0.000000e+00
1.000000e+00
5.816924e-01
5.902053e-01
6.002369e-01
6.102941e-01
6.198334e-01
6.278549e-01
6.332700e-01
6.352075e-01
6.333248e-01
6.279323e-01
6.199707e-01
6.104189e-01
6.003081e-01
5.905118e-01
5.807499e-01
0.000000e+00
1.000000e+00
5.821188e-01
5.910320e-01
6.015499e-01
6.120922e-01
6.220914e-01
6.304998e-01
6.361765e-01
6.382082e-01
6.362343e-01
6.305869e-01
6.222404e-01
6.122326e-01
6.016310e-01
5.913315e-01
5.813168e-01
0.000000e+00
1.000000e+00
5.823820e-01
5.914754e-01
6.022591e-01
6.130655e-01
6.233155e-01
6.319351e-01
6.377547e-01
6.398379e-01
6.378144e-01
6.320328e-01
6.234750e-01
6.132169e-01
6.023536e-01
5.917780e-01
5.816474e-01
0.000000e+00
1.000000e+00
5.824063e-01
5.916228e-01
6.024000e-01
6.132584e-01
6.235591e-01
6.322219e-01
6.380715e-01
6.401662e-01
6.381357e-01
6.323295e-01
6.237260e-01
6.134142e-01
6.025067e-01
5.918705e-01
5.817496e-01
0.000000e+00
1.000000e+00
5.821958e-01
5.914585e-01
6.020374e-01
6.127571e-01
6.229275e-01
6.314817e-01
6.372588e-01
6.393291e-01
6.373262e-01
6.315861e-01
6.230934e-01
6.129094e-01
6.021378e-01
5.916300e-01
5.816787e-01
0.000000e+00
1.000000e+00
5.723873e-01
5.716347e-01
5.708627e-01
5.700719e-01
5.693221e-01
5.686921e-01
5.682676e-01
5.681173e-01
5.682679e-01
5.686934e-01
5.693271e-01
5.700813e-01
5.708672e-01
5.716950e-01
5.722351e-01
0.000000e+00
1.000000e+00
5.727286e-01
5.723313e-01
5.719530e-01
5.715649e-01
5.711970e-01
5.708878e-01
5.706793e-01
5.706052e-01
5.706784e-01
5.708865e-01
5.711985e-01
5.715719e-01
5.719636e-01
5.723768e-01
5.725009e-01
0.000000e+00
1.000000e+00
5.732246e-01
5.733591e-01
5.735618e-01
5.737678e-01
5.739632e-01
5.741273e-01
5.742377e-01
5.742763e-01
5.742361e-01
5.741241e-01
5.739612e-01
5.737732e-01
5.735788e-01
5.733945e-01
5.729552e-01
0.000000e+00
1.000000e+00
5.738873e-01
5.747309e-01
5.757131e-01
5.767134e-01
5.776619e-01
5.784590e-01
5.789959e-01
5.791855e-01
5.789943e-01
5.784566e-01
5.776650e-01
5.767235e-01
5.757423e-01
5.747591e-01
5.736803e-01
0.000000e+00
1.000000e+00
5.747268e-01
5.764385e-01
5.783893e-01
5.803779e-01
5.822635e-01
5.838479e-01
5.849151e-01
5.852925e-01
5.849151e-01
5.838530e-01
5.822856e-01
5.804044e-01
5.784346e-01
5.764823e-01
5.744919e-01
0.000000e+00
1.000000e+00
5.757189e-01
5.784346e-01
5.815267e-01
5.846731e-01
5.876567e-01
5.901640e-01
5.918536e-01
5.924530e-01
5.918620e-01
5.901856e-01
5.876996e-01
5.847144e-01
5.815768e-01
5.785096e-01
5.753349e-01
0.000000e+00
1.000000e+00
5.768232e-01
5.806447e-01
5.850092e-01
5.894413e-01
5.936446e-01
5.971777e-01
5.995598e-01
6.004082e-01
5.995797e-01
5.972144e-01
5.937048e-01
5.894971e-01
5.850674e-01
5.807755e-01
5.762343e-01
0.000000e+00
1.000000e+00
5.779851e-01
5.829683e-01
5.886756e-01
5.944615e-01
5.999494e-01
6.045631e-01
6.076753e-01
6.087863e-01
6.077052e-01
6.046091e-01
6.000262e-01
5.945294e-01
5.887374e-01
5.831738e-01
5.771475e-01
0.000000e+00
1.000000e+00
5.791483e-01
5.852789e-01
5.923303e-01
5.994662e-01
6.062353e-01
6.119266e-01
6.157668e-01
6.171392e-01
6.158053e-01
6.119783e-01
6.063287e-01
5.995424e-01
5.923893e-01
5.855566e-01
5.779919e-01
0.000000e+00
1.000000e+00
5.802536e-01
5.874401e-01
5.957674e-01
6.041736e-01
6.121475e-01
6.188520e-01
6.233770e-01
6.249955e-01
6.234229e-01
6.189111e-01
6.122578e-01
6.042611e-01
5.958227e-01
5.877460e-01
5.788970e-01
0.000000e+00
1.000000e+00
5.812523e-01
5.893186e-01
5.987950e-01
6.083203e-01
6.173555e-01
6.249535e-01
6.300825e-01
6.319183e-01
6.301355e-01
6.250243e-01
6.174816e-01
6.084312e-01
5.988523e-01
5.896327e-01
5.799542e-01
0.000000e+00
1.000000e+00
5.820810e-01
5.908111e-01
6.012608e-01
6.116979e-01
6.215980e-01
6.299230e-01
6.355439e-01
6.375573e-01
6.356053e-01
6.300066e-01
6.217345e-01
6.118432e-01
6.013257e-01
5.911681e-01
5.808927e-01
0.000000e+00
1.000000e+00
5.826396e-01
5.919352e-01
6.030675e-01
6.141711e-01
6.247023e-01
6.335587e-01
6.395403e-01
6.416845e-01
6.396102e-01
6.336538e-01
6.248501e-01
6.143474e-01
6.031427e-01
5.922940e-01
5.816319e-01
0.000000e+00
1.000000e+00
5.829839e-01
5.926356e-01
6.041706e-01
6.156820e-01
6.265992e-01
6.357814e-01
6.419831e-01
6.442064e-01
6.420560e-01
6.358868e-01
6.267613e-01
6.158745e-01
6.042582e-01
5.929878e-01
5.821409e-01
0.000000e+00
1.000000e+00
5.831310e-01
5.929245e-01
6.045810e-01
6.162460e-01
6.273100e-01
6.366161e-01
6.429016e-01
6.451554e-01
6.429763e-01
6.367328e-01
6.274876e-01
6.164417e-01
6.046831e-01
5.932512e-01
5.823709e-01
0.000000e+00
1.000000e+00
5.830172e-01
5.928741e-01
6.043623e-01
6.159455e-01
6.269336e-01
6.361763e-01
6.424203e-01
6.446604e-01
6.424993e-01
6.363036e-01
6.271217e-01
6.161338e-01
6.044743e-01
5.931202e-01
5.823363e-01
0.000000e+00
1.000000e+00
5.826897e-01
5.924600e-01
6.036078e-01
6.149060e-01
6.256236e-01
6.346394e-01
6.407307e-01
6.429172e-01
6.408091e-01
6.347622e-01
6.258058e-01
6.150759e-01
6.037073e-01
5.926259e-01
5.821446e-01
0.000000e+00
1.000000e+00
5.719094e-01
5.706510e-01
5.693214e-01
5.679616e-01
5.666722e-01
5.655889e-01
5.648592e-01
5.646014e-01
5.648612e-01
5.655942e-01
5.666840e-01
5.679791e-01
5.693345e-01
5.706992e-01
5.717632e-01
0.000000e+00
1.000000e+00
5.723544e-01
5.715685e-01
5.707576e-01
5.699282e-01
5.691418e-01
5.684810e-01
5.680359e-01
5.678782e-01
5.680362e-01
5.684826e-01
5.691502e-01
5.699443e-01
5.707767e-01
5.716127e-01
5.721503e-01
0.000000e+00
1.000000e+00
5.729690e-01
5.728520e-01
5.727667e-01
5.726790e-01
5.725959e-01
5.725260e-01
5.724788e-01
5.724615e-01
5.724771e-01
5.725228e-01
5.725967e-01
5.726932e-01
5.727922e-01
5.728936e-01
5.727380e-01
0.000000e+00
1.000000e+00
5.737728e-01
5.745096e-01
5.753652e-01
5.762370e-01
5.770637e-01
5.777583e-01
5.782261e-01
5.783909e-01
5.782233e-01
5.777525e-01
5.770625e-01
5.762503e-01
5.754033e-01
5.745497e-01
5.735936e-01
0.000000e+00
1.000000e+00
5.747620e-01
5.765251e-01
5.785235e-01
5.805617e-01
5.824944e-01
5.841184e-01
5.852124e-01
5.855989e-01
5.852102e-01
5.841183e-01
5.825166e-01
5.805949e-01
5.785807e-01
5.765822e-01
5.745460e-01
0.000000e+00
1.000000e+00
5.759077e-01
5.788406e-01
5.821569e-01
5.855362e-01
5.887405e-01
5.914333e-01
5.932475e-01
5.938902e-01
5.932527e-01
5.914533e-01
5.887928e-01
5.855876e-01
5.822167e-01
5.789239e-01
5.755078e-01
0.000000e+00
1.000000e+00
5.771649e-01
5.813616e-01
5.861223e-01
5.909650e-01
5.955574e-01
5.994173e-01
6.020195e-01
6.029453e-01
6.020404e-01
5.994595e-01
5.956283e-01
5.910309e-01
5.861853e-01
5.814935e-01
5.765474e-01
0.000000e+00
1.000000e+00
5.784691e-01
5.839645e-01
5.902255e-01
5.965827e-01
6.026123e-01
6.076814e-01
6.111009e-01
6.123223e-01
6.111379e-01
6.077379e-01
6.027018e-01
5.966605e-01
5.902871e-01
5.841640e-01
5.775571e-01
0.000000e+00
1.000000e+00
5.797529e-01
5.865016e-01
5.942381e-01
6.020770e-01
6.095130e-01
6.157659e-01
6.199864e-01
6.214975e-01
6.200357e-01
6.158314e-01
6.096245e-01
6.021678e-01
5.942967e-01
5.867470e-01
5.785262e-01
0.000000e+00
1.000000e+00
5.809488e-01
5.888185e-01
5.979256e-01
6.071277e-01
6.158579e-01
6.232002e-01
6.281579e-01
6.299350e-01
6.282156e-01
6.232739e-01
6.159903e-01
6.072427e-01
5.979853e-01
5.890678e-01
5.797085e-01
0.000000e+00
1.000000e+00
5.819926e-01
5.907741e-01
6.010794e-01
6.114496e-01
6.212879e-01
6.295625e-01
6.351505e-01
6.371540e-01
6.352154e-01
6.296485e-01
6.214316e-01
6.116017e-01
6.011488e-01
5.910396e-01
5.808705e-01
0.000000e+00
1.000000e+00
5.827893e-01
5.922835e-01
6.035441e-01
6.148269e-01
6.255297e-01
6.345308e-01
6.406104e-01
6.427913e-01
6.406839e-01
6.346341e-01
6.256753e-01
6.150194e-01
6.036320e-01
5.925889e-01
5.817567e-01
0.000000e+00
1.000000e+00
5.833281e-01
5.933181e-01
6.052272e-01
6.171317e-01
6.284227e-01
6.379184e-01
6.443336e-01
6.466356e-01
6.444149e-01
6.380361e-01
6.285726e-01
6.173532e-01
6.053395e-01
5.936477e-01
5.824379e-01
0.000000e+00
1.000000e+00
5.836286e-01
5.938508e-01
6.061006e-01
6.183294e-01
6.299267e-01
6.396812e-01
6.462710e-01
6.486356e-01
6.463560e-01
6.398087e-01
6.300923e-01
6.185628e-01
6.062291e-01
5.942063e-01
5.828305e-01
0.000000e+00
1.000000e+00
5.836409e-01
5.939772e-01
6.062043e-01
6.184714e-01
6.301070e-01
6.398948e-01
6.465070e-01
6.488807e-01
6.465943e-01
6.400331e-01
6.302948e-01
6.187013e-01
6.063330e-01
5.942792e-01
5.828822e-01
0.000000e+00
1.000000e+00
5.834048e-01
5.936924e-01
6.056280e-01
6.176788e-01
6.291113e-01
6.387290e-01
6.452272e-01
6.475615e-01
6.453161e-01
6.388764e-01
6.293135e-01
6.178926e-01
6.057514e-01
5.939221e-01
5.827072e-01
0.000000e+00
1.000000e+00
5.829689e-01
5.930196e-01
6.044875e-01
6.161130e-01
6.271407e-01
6.364164e-01
6.426829e-01
6.449337e-01
6.427648e-01
6.365545e-01
6.273294e-01
6.162986e-01
6.045918e-01
5.931830e-01
5.824100e-01
0.000000e+00
1.000000e+00
5.713074e-01
5.694187e-01
5.673911e-01
5.653187e-01
5.633537e-01
5.617029e-01
5.605914e-01
5.601993e-01
5.605963e-01
5.617136e-01
5.633735e-01
5.653460e-01
5.674128e-01
5.694643e-01
5.711802e-01
0.000000e+00
1.000000e+00
5.718519e-01
5.705389e-01
5.691449e-01
5.677201e-01
5.663692e-01
5.652344e-01
5.644701e-01
5.642001e-01
5.644727e-01
5.652409e-01
5.663867e-01
5.677467e-01
5.691756e-01
5.705893e-01
5.716712e-01
0.000000e+00
1.000000e+00
5.725758e-01
5.720578e-01
5.715221e-01
5.709749e-01
5.704561e-01
5.700203e-01
5.697266e-01
5.696224e-01
5.697261e-01
5.700201e-01
5.704661e-01
5.710035e-01
5.715575e-01
5.721019e-01
5.723638e-01
0.000000e+00
1.000000e+00
5.735091e-01
5.739796e-01
5.745329e-01
5.750974e-01
5.756326e-01
5.760824e-01
5.763851e-01
5.764914e-01
5.763820e-01
5.760756e-01
5.756292e-01
5.751180e-01
5.745796e-01
5.740291e-01
5.733260e-01
0.000000e+00
1.000000e+00
5.746352e-01
5.762778e-01
5.781351e-01
5.800299e-01
5.818267e-01
5.833366e-01
5.843538e-01
5.847131e-01
5.843508e-01
5.833311e-01
5.818419e-01
5.800673e-01
5.782051e-01
5.763477e-01
5.744210e-01
0.000000e+00
1.000000e+00
5.759197e-01
5.788854e-01
5.822237e-01
5.856280e-01
5.888561e-01
5.915689e-01
5.933968e-01
5.940436e-01
5.933972e-01
5.915792e-01
5.889118e-01
5.856897e-01
5.822957e-01
5.789805e-01
5.755094e-01
0.000000e+00
1.000000e+00
5.773105e-01
5.816889e-01
5.866272e-01
5.916564e-01
5.964254e-01
6.004335e-01
6.031352e-01
6.040949e-01
6.031521e-01
6.004739e-01
5.965056e-01
5.917345e-01
5.866995e-01
5.818129e-01
5.766571e-01
0.000000e+00
1.000000e+00
5.787361e-01
5.845448e-01
5.911219e-01
5.978095e-01
6.041519e-01
6.094835e-01
6.130797e-01
6.143630e-01
6.131176e-01
6.095470e-01
6.042520e-01
5.979010e-01
5.911878e-01
5.847099e-01
5.778037e-01
0.000000e+00
1.000000e+00
5.801178e-01
5.872857e-01
5.954474e-01
6.037315e-01
6.115892e-01
6.181965e-01
6.226567e-01
6.242548e-01
6.227138e-01
6.182745e-01
6.117142e-01
6.038435e-01
5.955078e-01
5.874643e-01
5.789974e-01
0.000000e+00
1.000000e+00
5.813751e-01
5.897438e-01
5.993442e-01
6.090677e-01
6.182927e-01
6.260520e-01
6.312931e-01
6.331756e-01
6.313640e-01
6.261415e-01
6.184380e-01
6.092191e-01
5.994102e-01
5.899196e-01
5.803320e-01
0.000000e+00
1.000000e+00
5.824307e-01
5.917757e-01
6.025883e-01
6.135127e-01
6.238781e-01
6.325979e-01
6.384899e-01
6.406074e-01
6.385699e-01
6.327018e-01
6.240311e-01
6.137143e-01
6.026772e-01
5.919680e-01
5.815259e-01
0.000000e+00
1.000000e+00
5.832179e-01
5.932868e-01
6.050211e-01
6.168481e-01
6.280682e-01
6.375072e-01
6.438859e-01
6.461777e-01
6.439729e-01
6.376304e-01
6.282238e-01
6.170799e-01
6.051477e-01
5.935147e-01
5.823965e-01
0.000000e+00
1.000000e+00
5.837334e-01
5.942274e-01
6.065603e-01
6.189578e-01
6.307188e-01
6.406123e-01
6.472978e-01
6.496989e-01
6.473890e-01
6.407539e-01
6.308832e-01
6.191844e-01
6.067349e-01
5.944968e-01
5.829837e-01
0.000000e+00
1.000000e+00
5.839676e-01
5.946102e-01
6.071976e-01
6.198328e-01
6.318210e-01
6.419050e-01
6.487186e-01
6.511657e-01
6.488129e-01
6.420597e-01
6.320028e-01
6.200549e-01
6.073918e-01
5.949102e-01
5.832123e-01
0.000000e+00
1.000000e+00
5.838711e-01
5.945370e-01
6.070051e-01
6.195663e-01
6.314859e-01
6.415136e-01
6.482892e-01
6.507240e-01
6.483863e-01
6.416762e-01
6.316863e-01
6.197992e-01
6.071739e-01
5.947871e-01
5.831265e-01
0.000000e+00
1.000000e+00
5.835265e-01
5.940132e-01
6.060926e-01
6.183115e-01
6.299070e-01
6.396631e-01
6.462559e-01
6.486255e-01
6.463510e-01
6.398274e-01
6.301149e-01
6.185384e-01
6.062312e-01
5.942113e-01
5.828447e-01
0.000000e+00
1.000000e+00
5.829926e-01
5.930978e-01
6.045965e-01
6.162601e-01
6.273261e-01
6.366353e-01
6.429247e-01
6.451833e-01
6.430090e-01
6.367835e-01
6.275143e-01
6.164547e-01
6.046988e-01
5.932451e-01
5.824357e-01
0.000000e+00
1.000000e+00
5.706090e-01
5.679745e-01
5.651300e-01
5.622226e-01
5.594662e-01
5.571509e-01
5.555924e-01
5.550432e-01
5.556011e-01
5.571685e-01
5.594950e-01
5.622607e-01
5.651606e-01
5.680222e-01
5.704906e-01
0.000000e+00
1.000000e+00
5.712367e-01
5.692726e-01
5.671621e-01
5.650053e-01
5.629605e-01
5.612429e-01
5.600866e-01
5.596788e-01
5.600925e-01
5.612558e-01
5.629876e-01
5.650434e-01
5.672058e-01
5.693290e-01
5.710779e-01
0.000000e+00
1.000000e+00
5.720568e-01
5.709972e-01
5.698608e-01
5.687004e-01
5.676002e-01
5.666762e-01
5.660541e-01
5.658344e-01
5.660563e-01
5.666820e-01
5.676231e-01
5.687421e-01
5.699080e-01
5.710473e-01
5.718699e-01
0.000000e+00
1.000000e+00
5.731002e-01
5.731493e-01
5.732303e-01
5.733139e-01
5.733932e-01
5.734600e-01
5.735049e-01
5.735202e-01
5.735029e-01
5.734554e-01
5.733935e-01
5.733521e-01
5.732865e-01
5.732027e-01
5.729298e-01
0.000000e+00
1.000000e+00
5.743457e-01
5.756915e-01
5.772154e-01
5.787706e-01
5.802455e-01
5.814849e-01
5.823198e-01
5.826147e-01
5.823173e-01
5.814783e-01
5.802490e-01
5.788067e-01
5.772949e-01
5.757678e-01
5.741345e-01
0.000000e+00
1.000000e+00
5.757485e-01
5.785476e-01
5.816928e-01
5.849013e-01
5.879439e-01
5.905010e-01
5.922241e-01
5.928339e-01
5.922227e-01
5.905007e-01
5.879920e-01
5.849706e-01
5.817778e-01
5.786421e-01
5.753921e-01
0.000000e+00
1.000000e+00
5.772500e-01
5.815882e-01
5.864646e-01
5.914341e-01
5.961467e-01
6.001073e-01
6.027767e-01
6.037237e-01
6.027867e-01
6.001381e-01
5.962323e-01
5.915243e-01
5.865488e-01
5.816884e-01
5.766993e-01
0.000000e+00
1.000000e+00
5.787715e-01
5.846518e-01
5.912800e-01
5.980264e-01
6.044241e-01
6.098016e-01
6.134278e-01
6.147195e-01
6.134603e-01
6.098661e-01
6.045309e-01
5.981340e-01
5.913567e-01
5.847554e-01
5.780597e-01
0.000000e+00
1.000000e+00
5.802242e-01
5.875553e-01
5.958533e-01
6.042870e-01
6.122856e-01
6.190107e-01
6.235493e-01
6.251743e-01
6.236081e-01
6.190990e-01
6.124162e-01
6.044220e-01
5.959238e-01
5.876684e-01
5.794140e-01
0.000000e+00
1.000000e+00
5.815187e-01
5.901192e-01
5.999035e-01
6.098322e-01
6.192503e-01
6.271717e-01
6.325226e-01
6.344460e-01
6.326026e-01
6.272771e-01
6.193992e-01
6.100162e-01
5.999825e-01
5.902374e-01
5.807674e-01
0.000000e+00
1.000000e+00
5.825798e-01
5.921936e-01
6.031955e-01
6.143413e-01
6.249157e-01
6.338122e-01
6.398250e-01
6.419895e-01
6.399173e-01
6.339342e-01
6.250684e-01
6.145782e-01
6.033096e-01
5.923357e-01
5.819027e-01
0.000000e+00
1.000000e+00
5.833545e-01
5.936769e-01
6.055691e-01
6.175956e-01
6.290063e-01
6.386071e-01
6.450969e-01
6.474319e-01
6.451951e-01
6.387465e-01
6.291625e-01
6.178424e-01
6.057418e-01
5.938604e-01
5.826641e-01
0.000000e+00
1.000000e+00
5.838363e-01
5.945214e-01
6.069543e-01
6.194961e-01
6.313964e-01
6.414091e-01
6.481771e-01
6.506111e-01
6.482785e-01
6.415704e-01
6.315762e-01
6.197092e-01
6.071640e-01
5.947583e-01
5.831227e-01
0.000000e+00
1.000000e+00
5.839788e-01
5.947800e-01
6.073700e-01
6.200641e-01
6.321115e-01
6.422485e-01
6.491011e-01
6.515662e-01
6.492065e-01
6.424287e-01
6.323188e-01
6.202635e-01
6.075826e-01
5.950278e-01
5.832431e-01
0.000000e+00
1.000000e+00
5.837999e-01
5.945173e-01
6.069056e-01
6.194249e-01
6.313064e-01
6.413046e-01
6.480637e-01
6.504957e-01
6.481704e-01
6.414873e-01
6.315159e-01
6.196346e-01
6.071069e-01
5.947199e-01
5.830860e-01
0.000000e+00
1.000000e+00
5.833712e-01
5.937825e-01
6.056941e-01
6.177625e-01
6.292143e-01
6.388503e-01
6.453640e-01
6.477065e-01
6.454650e-01
6.390240e-01
6.294141e-01
6.179890e-01
6.058520e-01
5.939455e-01
5.827144e-01
0.000000e+00
1.000000e+00
5.827574e-01
5.926588e-01
6.038906e-01
6.152927e-01
6.261095e-01
6.352086e-01
6.413566e-01
6.435635e-01
6.414420e-01
6.353586e-01
6.262904e-01
6.154903e-01
6.039895e-01
5.927855e-01
5.822141e-01
0.000000e+00
1.000000e+00
5.698397e-01
5.663766e-01
5.626283e-01
5.587973e-01
5.551653e-01
5.521148e-01
5.500619e-01
5.493393e-01
5.500751e-01
5.521407e-01
5.552033e-01
5.588470e-01
5.626674e-01
5.664272e-01
5.697315e-01
0.000000e+00
1.000000e+00
5.705360e-01
5.678230e-01
5.648927e-01
5.618981e-01
5.590592e-01
5.566747e-01
5.550699e-01
5.545047e-01
5.550797e-01
5.566949e-01
5.590958e-01
5.619476e-01
5.649473e-01
5.678823e-01
5.703965e-01
0.000000e+00
1.000000e+00
5.714352e-01
5.697168e-01
5.678559e-01
5.659554e-01
5.641539e-01
5.626409e-01
5.616226e-01
5.612638e-01
5.616286e-01
5.626544e-01
5.641892e-01
5.660097e-01
5.679174e-01
5.697786e-01
5.712691e-01
0.000000e+00
1.000000e+00
5.725653e-01
5.720552e-01
5.715157e-01
5.709664e-01
5.704457e-01
5.700087e-01
5.697145e-01
5.696106e-01
5.697152e-01
5.700094e-01
5.704610e-01
5.710289e-01
5.715807e-01
5.721129e-01
5.724104e-01
0.000000e+00
1.000000e+00
5.739041e-01
5.747920e-01
5.758044e-01
5.768387e-01
5.778197e-01
5.786442e-01
5.791998e-01
5.793960e-01
5.791978e-01
5.786396e-01
5.778175e-01
5.768790e-01
5.758873e-01
5.748694e-01
5.736860e-01
0.000000e+00
1.000000e+00
5.753991e-01
5.778390e-01
5.805819e-01
5.833804e-01
5.860346e-01
5.882653e-01
5.897685e-01
5.903007e-01
5.897677e-01
5.882611e-01
5.860657e-01
5.834515e-01
5.806804e-01
5.779262e-01
5.751166e-01
0.000000e+00
1.000000e+00
5.769841e-01
5.810577e-01
5.856310e-01
5.902934e-01
5.947149e-01
5.984311e-01
6.009358e-01
6.018237e-01
6.009400e-01
5.984480e-01
5.947972e-01
5.903927e-01
5.857278e-01
5.811370e-01
5.766845e-01
0.000000e+00
1.000000e+00
5.785717e-01
5.842698e-01
5.906756e-01
5.971995e-01
6.033862e-01
6.085862e-01
6.120919e-01
6.133384e-01
6.121156e-01
6.086453e-01
6.034940e-01
5.973207e-01
5.907672e-01
5.843457e-01
5.782014e-01
0.000000e+00
1.000000e+00
5.800670e-01
5.872815e-01
5.954130e-01
6.036851e-01
6.115299e-01
6.181247e-01
6.225739e-01
6.241637e-01
6.226265e-01
6.182188e-01
6.116570e-01
6.038367e-01
5.954988e-01
5.873710e-01
5.795913e-01
0.000000e+00
1.000000e+00
5.813827e-01
5.899043e-01
5.995482e-01
6.093466e-01
6.186396e-01
6.264543e-01
6.317314e-01
6.336261e-01
6.318109e-01
6.265696e-01
6.187850e-01
6.095454e-01
5.996433e-01
5.900074e-01
5.809190e-01
0.000000e+00
1.000000e+00
5.824432e-01
5.919813e-01
6.028390e-01
6.138539e-01
6.243024e-01
6.330916e-01
6.390311e-01
6.411685e-01
6.391265e-01
6.332241e-01
6.244537e-01
6.140966e-01
6.029727e-01
5.921119e-01
5.819550e-01
0.000000e+00
1.000000e+00
5.831978e-01
5.934166e-01
6.051306e-01
6.169927e-01
6.282480e-01
6.377186e-01
6.441209e-01
6.464257e-01
6.442236e-01
6.378699e-01
6.284080e-01
6.172303e-01
6.053235e-01
5.935880e-01
5.825636e-01
0.000000e+00
1.000000e+00
5.836195e-01
5.941807e-01
6.063653e-01
6.186839e-01
6.303742e-01
6.402124e-01
6.468648e-01
6.492610e-01
6.469749e-01
6.403886e-01
6.305568e-01
6.188916e-01
6.065620e-01
5.944003e-01
5.829276e-01
0.000000e+00
1.000000e+00
5.836866e-01
5.943190e-01
6.065805e-01
6.189774e-01
6.307423e-01
6.406436e-01
6.473394e-01
6.497523e-01
6.474552e-01
6.408360e-01
6.309442e-01
6.191783e-01
6.067715e-01
5.945367e-01
5.829974e-01
0.000000e+00
1.000000e+00
5.834392e-01
5.938970e-01
6.058832e-01
6.180209e-01
6.295382e-01
6.392303e-01
6.457839e-01
6.481449e-01
6.458973e-01
6.394193e-01
6.297341e-01
6.182152e-01
6.060899e-01
5.940669e-01
5.827721e-01
0.000000e+00
1.000000e+00
5.829439e-01
5.929927e-01
6.044253e-01
6.160239e-01
6.270274e-01
6.362847e-01
6.425418e-01