<?xml version="1.0"?>
<VTKFile type="StructuredGrid" version="0.1">
  <StructuredGrid WholeExtent="0 16 0 16 0 16">
    <Piece Extent="0 16 0 16 0 16">
      <PointData Scalars="temperature" Vectors="velocity">
        <DataArray type="Float32" Name="temperature" format="ascii">
1.000000e+00
5.732183e-01
5.730060e-01
5.730183e-01
5.730204e-01
5.730222e-01
5.730235e-01
5.730245e-01
5.730246e-01
5.730242e-01
5.730227e-01
5.730208e-01
5.730169e-01
5.730111e-01
5.730611e-01
5.722624e-01
0.000000e+00
1.000000e+00
5.733361e-01
5.729804e-01
5.730212e-01
5.730233e-01
5.730251e-01
5.730260e-01
5.730265e-01
5.730263e-01
5.730259e-01
5.730254e-01
5.730257e-01
5.730258e-01
5.730254e-01
5.730973e-01
5.722296e-01
0.000000e+00
1.000000e+00
5.733458e-01
5.729510e-01
5.729779e-01
5.729659e-01
5.729540e-01
5.729441e-01
5.729376e-01
5.729360e-01
5.729392e-01
5.729473e-01
5.729577e-01
5.729692e-01
5.729805e-01
5.730433e-01
5.725574e-01
0.000000e+00
1.000000e+00
5.733326e-01
5.728940e-01
5.728993e-01
5.728572e-01
5.728168e-01
5.727832e-01
5.727611e-01
5.727542e-01
5.727633e-01
5.727871e-01
5.728210e-01
5.728587e-01
5.729017e-01
5.729693e-01
5.727071e-01
0.000000e+00
1.000000e+00
5.733127e-01
5.728041e-01
5.727786e-01
5.726909e-01
5.726073e-01
5.725372e-01
5.724905e-01
5.724752e-01
5.724932e-01
5.725420e-01
5.726115e-01
5.726950e-01
5.727836e-01
5.729009e-01
5.725645e-01
0.000000e+00
1.000000e+00
5.732275e-01
5.727054e-01
5.726167e-01
5.724684e-01
5.723276e-01
5.722093e-01
5.721299e-01
5.721026e-01
5.721324e-01
5.722144e-01
5.723327e-01
5.724744e-01
5.726199e-01
5.728056e-01
5.725057e-01
0.000000e+00
1.000000e+00
5.730992e-01
5.725945e-01
5.724174e-01
5.721954e-01
5.719848e-01
5.718079e-01
5.716890e-01
5.716473e-01
5.716903e-01
5.718132e-01
5.719906e-01
5.722008e-01
5.724193e-01
5.726888e-01
5.723226e-01
0.000000e+00
1.000000e+00
5.729747e-01
5.724649e-01
5.721889e-01
5.718824e-01
5.715918e-01
5.713480e-01
5.711844e-01
5.711268e-01
5.711850e-01
5.713537e-01
5.715984e-01
5.718874e-01
5.721912e-01
5.725478e-01
5.722263e-01
0.000000e+00
1.000000e+00
5.728209e-01
5.723218e-01
5.719422e-01
5.715448e-01
5.711680e-01
5.708517e-01
5.706395e-01
5.705652e-01
5.706414e-01
5.708584e-01
5.711747e-01
5.715501e-01
5.719456e-01
5.723952e-01
5.721649e-01
0.000000e+00
1.000000e+00
5.726772e-01
5.721718e-01
5.716901e-01
5.711999e-01
5.707350e-01
5.703448e-01
5.700828e-01
5.699911e-01
5.700868e-01
5.703526e-01
5.707419e-01
5.712060e-01
5.716947e-01
5.722335e-01
5.721378e-01
0.000000e+00
1.000000e+00
5.725364e-01
5.720246e-01
5.714460e-01
5.708659e-01
5.703156e-01
5.698539e-01
5.695437e-01
5.694349e-01
5.695483e-01
5.698632e-01
5.703227e-01
5.708729e-01
5.714515e-01
5.720817e-01
5.720222e-01
0.000000e+00
1.000000e+00
5.724129e-01
5.718921e-01
5.712223e-01
5.705595e-01
5.699311e-01
5.694036e-01
5.690492e-01
5.689252e-01
5.690548e-01
5.694145e-01
5.699392e-01
5.705673e-01
5.712284e-01
5.719377e-01
5.719904e-01
0.000000e+00
1.000000e+00
5.722856e-01
5.717762e-01
5.710291e-01
5.702950e-01
5.695989e-01
5.690148e-01
5.686222e-01
5.684855e-01
5.686300e-01
5.690263e-01
5.696085e-01
5.703036e-01
5.710356e-01
5.718224e-01
5.718965e-01
0.000000e+00
1.000000e+00
5.721811e-01
5.716849e-01
5.708739e-01
5.700823e-01
5.693319e-01
5.687022e-01
5.682791e-01
5.681326e-01
5.682884e-01
5.687144e-01
5.693424e-01
5.700916e-01
5.708809e-01
5.717288e-01
5.719069e-01
0.000000e+00
1.000000e+00
5.720799e-01
5.716220e-01
5.707606e-01
5.699270e-01
5.691371e-01
5.684742e-01
5.680291e-01
5.678759e-01
5.680380e-01
5.684886e-01
5.691484e-01
5.699369e-01
5.707681e-01
5.716745e-01
5.717942e-01
0.000000e+00
1.000000e+00
5.720222e-01
5.715713e-01
5.706900e-01
5.698306e-01
5.690160e-01
5.683325e-01
5.678742e-01
5.677169e-01
5.678826e-01
5.683473e-01
5.690300e-01
5.698423e-01
5.706985e-01
5.716529e-01
5.718164e-01
0.000000e+00
1.000000e+00
5.718895e-01
5.715445e-01
5.706627e-01
5.697924e-01
5.689674e-01
5.682754e-01
5.678120e-01
5.676528e-01
5.678180e-01
5.682898e-01
5.689845e-01
5.698077e-01
5.706750e-01
5.717717e-01
5.711145e-01
0.000000e+00
1.000000e+00
5.730783e-01
5.730067e-01
5.730304e-01
5.730340e-01
5.730355e-01
5.730364e-01
5.730374e-01
5.730379e-01
5.730370e-01
5.730346e-01
5.730313e-01
5.730283e-01
5.730256e-01
5.730077e-01
5.727702e-01
0.000000e+00
1.000000e+00
5.732483e-01
5.729527e-01
5.729888e-01
5.729774e-01
5.729657e-01
5.729554e-01
5.729485e-01
5.729455e-01
5.729471e-01
5.729527e-01
5.729622e-01
5.729728e-01
5.729818e-01
5.729280e-01
5.722728e-01
0.000000e+00
1.000000e+00
5.732621e-01
5.728847e-01
5.729091e-01
5.728686e-01
5.728292e-01
5.727959e-01
5.727733e-01
5.727649e-01
5.727721e-01
5.727947e-01
5.728291e-01
5.728704e-01
5.729109e-01
5.729640e-01
5.727519e-01
0.000000e+00
1.000000e+00
5.732118e-01
5.728087e-01
5.727845e-01
5.726985e-01
5.726161e-01
5.725467e-01
5.724999e-01
5.724831e-01
5.725000e-01
5.725485e-01
5.726199e-01
5.726995e-01
5.727835e-01
5.728796e-01
5.727349e-01
0.000000e+00
1.000000e+00
5.731535e-01
5.727056e-01
5.726166e-01
5.724682e-01
5.723270e-01
5.722085e-01
5.721287e-01
5.721003e-01
5.721292e-01
5.722113e-01
5.723301e-01
5.724690e-01
5.726167e-01
5.727833e-01
5.724972e-01
0.000000e+00
1.000000e+00
5.730482e-01
5.725896e-01
5.724067e-01
5.721804e-01
5.719657e-01
5.717854e-01
5.716643e-01
5.716215e-01
5.716650e-01
5.717893e-01
5.719693e-01
5.721822e-01
5.724063e-01
5.726605e-01
5.723848e-01
0.000000e+00
1.000000e+00
5.729058e-01
5.724520e-01
5.721612e-01
5.718441e-01
5.715434e-01
5.712909e-01
5.711214e-01
5.710619e-01
5.711227e-01
5.712954e-01
5.715469e-01
5.718462e-01
5.721612e-01
5.725158e-01
5.722497e-01
0.000000e+00
1.000000e+00
5.727661e-01
5.722948e-01
5.718905e-01
5.714735e-01
5.710781e-01
5.707462e-01
5.705232e-01
5.704453e-01
5.705259e-01
5.707511e-01
5.710821e-01
5.714763e-01
5.718916e-01
5.723462e-01
5.722354e-01
0.000000e+00
1.000000e+00
5.726183e-01
5.721278e-01
5.716080e-01
5.710870e-01
5.705930e-01
5.701782e-01
5.698996e-01
5.698020e-01
5.699036e-01
5.701841e-01
5.705976e-01
5.710909e-01
5.716103e-01
5.721699e-01
5.720971e-01
0.000000e+00
1.000000e+00
5.724715e-01
5.719565e-01
5.713291e-01
5.707054e-01
5.701139e-01
5.696173e-01
5.692837e-01
5.691664e-01
5.692889e-01
5.696245e-01
5.701191e-01
5.707101e-01
5.713324e-01
5.719914e-01
5.720471e-01
0.000000e+00
1.000000e+00
5.723387e-01
5.717956e-01
5.710688e-01
5.703491e-01
5.696666e-01
5.690938e-01
5.687087e-01
5.685733e-01
5.687143e-01
5.691032e-01
5.696723e-01
5.703547e-01
5.710729e-01
5.718306e-01
5.719019e-01
0.000000e+00
1.000000e+00
5.722060e-01
5.716584e-01
5.708404e-01
5.700365e-01
5.692741e-01
5.686343e-01
5.682042e-01
5.680537e-01
5.682094e-01
5.686458e-01
5.692808e-01
5.700426e-01
5.708451e-01
5.716852e-01
5.718781e-01
0.000000e+00
1.000000e+00
5.721008e-01
5.715388e-01
5.706541e-01
5.697815e-01
5.689540e-01
5.682596e-01
5.677928e-01
5.676306e-01
5.677990e-01
5.682724e-01
5.689619e-01
5.697881e-01
5.706592e-01
5.715718e-01
5.717591e-01
0.000000e+00
1.000000e+00
5.719967e-01
5.714599e-01
5.705164e-01
5.695929e-01
5.687173e-01
5.679825e-01
5.674888e-01
5.673183e-01
5.674966e-01
5.679948e-01
5.687273e-01
5.696001e-01
5.705220e-01
5.714852e-01
5.717637e-01
0.000000e+00
1.000000e+00
5.719096e-01
5.714138e-01
5.704298e-01
5.694741e-01
5.685682e-01
5.678081e-01
5.672979e-01
5.671221e-01
5.673057e-01
5.678216e-01
5.685801e-01
5.694823e-01
5.704357e-01
5.714426e-01
5.716693e-01
0.000000e+00
1.000000e+00
5.718629e-01
5.713856e-01
5.703933e-01
5.694238e-01
5.685052e-01
5.677344e-01
5.672175e-01
5.670390e-01
5.672245e-01
5.677484e-01
5.685174e-01
5.694331e-01
5.703993e-01
5.714677e-01
5.716992e-01
0.000000e+00
1.000000e+00
5.719384e-01
5.713608e-01
5.704021e-01
5.694362e-01
5.685210e-01
5.677532e-01
5.672390e-01
5.670605e-01
5.672443e-01
5.677681e-01
5.685393e-01
5.694528e-01
5.704185e-01
5.717979e-01
5.707036e-01
0.000000e+00
1.000000e+00
5.730758e-01
5.730479e-01
5.730697e-01
5.730830e-01
5.730975e-01
5.731091e-01
5.731167e-01
5.731183e-01
5.731136e-01
5.731033e-01
5.730910e-01
5.730810e-01
5.730658e-01
5.730339e-01
5.733338e-01
0.000000e+00
1.000000e+00
5.731359e-01
5.729892e-01
5.729926e-01
5.729836e-01
5.729739e-01
5.729650e-01
5.729590e-01
5.729567e-01
5.729585e-01
5.729631e-01
5.729692e-01
5.729771e-01
5.729855e-01
5.729815e-01
5.732003e-01
0.000000e+00
1.000000e+00
5.731535e-01
5.729046e-01
5.728724e-01
5.728173e-01
5.727641e-01
5.727190e-01
5.726885e-01
5.726773e-01
5.726864e-01
5.727135e-01
5.727570e-01
5.728150e-01
5.728735e-01
5.729284e-01
5.730227e-01
0.000000e+00
1.000000e+00
5.731018e-01
5.727938e-01
5.727023e-01
5.725842e-01
5.724716e-01
5.723766e-01
5.723125e-01
5.722895e-01
5.723102e-01
5.723720e-01
5.724714e-01
5.725842e-01
5.726983e-01
5.728145e-01
5.727332e-01
0.000000e+00
1.000000e+00
5.730148e-01
5.726624e-01
5.724845e-01
5.722862e-01
5.720977e-01
5.719392e-01
5.718324e-01
5.717946e-01
5.718310e-01
5.719381e-01
5.720991e-01
5.722844e-01
5.724819e-01
5.726920e-01
5.725045e-01
0.000000e+00
1.000000e+00
5.728840e-01
5.725078e-01
5.722240e-01
5.719298e-01
5.716504e-01
5.714157e-01
5.712577e-01
5.712022e-01
5.712576e-01
5.714173e-01
5.716519e-01
5.719295e-01
5.722231e-01
5.725383e-01
5.724110e-01
0.000000e+00
1.000000e+00
5.727439e-01
5.723311e-01
5.719299e-01
5.715272e-01
5.711451e-01
5.708242e-01
5.706083e-01
5.705328e-01
5.706097e-01
5.708268e-01
5.711471e-01
5.715286e-01
5.719303e-01
5.723630e-01
5.722425e-01
0.000000e+00
1.000000e+00
5.725941e-01
5.721405e-01
5.716153e-01
5.710966e-01
5.706047e-01
5.701915e-01
5.699137e-01
5.698163e-01
5.699167e-01
5.701951e-01
5.706077e-01
5.710994e-01
5.716168e-01
5.721677e-01
5.721238e-01
0.000000e+00
1.000000e+00
5.724420e-01
5.719448e-01
5.712965e-01
5.706604e-01
5.700570e-01
5.695505e-01
5.692098e-01
5.690902e-01
5.692145e-01
5.695557e-01
5.700611e-01
5.706642e-01
5.712991e-01
5.719697e-01
5.719863e-01
0.000000e+00
1.000000e+00
5.722966e-01
5.717531e-01
5.709912e-01
5.702426e-01
5.695326e-01
5.689365e-01
5.685357e-01
5.683948e-01
5.685413e-01
5.689438e-01
5.695376e-01
5.702473e-01
5.709947e-01
5.717760e-01
5.719122e-01
0.000000e+00
1.000000e+00
5.721645e-01
5.715821e-01
5.707164e-01
5.698663e-01
5.690603e-01
5.683837e-01
5.679288e-01
5.677687e-01
5.679341e-01
5.683935e-01
5.690663e-01
5.698719e-01
5.707206e-01
5.716042e-01
5.718099e-01
0.000000e+00
1.000000e+00
5.720446e-01
5.714375e-01
5.704862e-01
5.695511e-01
5.686646e-01
5.679204e-01
5.674203e-01
5.672448e-01
5.674242e-01
5.679322e-01
5.686719e-01
5.695572e-01
5.704908e-01
5.714558e-01
5.717887e-01
0.000000e+00
1.000000e+00
5.719533e-01
5.713223e-01
5.703103e-01
5.693103e-01
5.683624e-01
5.675668e-01
5.670321e-01
5.668457e-01
5.670351e-01
5.675798e-01
5.683713e-01
5.693169e-01
5.703153e-01
5.713477e-01
5.716915e-01
0.000000e+00
1.000000e+00
5.718528e-01
5.712540e-01
5.701939e-01
5.691509e-01
5.681624e-01
5.673328e-01
5.667755e-01
5.665824e-01
5.667786e-01
5.673461e-01
5.681729e-01
5.691580e-01
5.701994e-01
5.712755e-01
5.716821e-01
0.000000e+00
1.000000e+00
5.717838e-01
5.712226e-01
5.701373e-01
5.690735e-01
5.680654e-01
5.672193e-01
5.666514e-01
5.664548e-01
5.666553e-01
5.672333e-01
5.680778e-01
5.690812e-01
5.701434e-01
5.712537e-01
5.715920e-01
0.000000e+00
1.000000e+00
5.717568e-01
5.712214e-01
5.701371e-01
5.690733e-01
5.680652e-01
5.672193e-01
5.666517e-01
5.664545e-01
5.666570e-01
5.672341e-01
5.680790e-01
5.690815e-01
5.701431e-01
5.713152e-01
5.716104e-01
0.000000e+00
1.000000e+00
5.718830e-01
5.712265e-01
5.701860e-01
5.691408e-01
5.681504e-01
5.673196e-01
5.667628e-01
5.665679e-01
5.667682e-01
5.673356e-01
5.681696e-01
5.691561e-01
5.702006e-01
5.716665e-01
5.707939e-01
0.000000e+00
1.000000e+00
5.730733e-01
5.731002e-01
5.731410e-01
5.731805e-01
5.732249e-01
5.732616e-01
5.732854e-01
5.732926e-01
5.732824e-01
5.732587e-01
5.732249e-01
5.731839e-01
5.731395e-01
5.731043e-01
5.729118e-01
0.000000e+00
1.000000e+00
5.730826e-01
5.730193e-01
5.730366e-01
5.730376e-01
5.730389e-01
5.730412e-01
5.730428e-01
5.730431e-01
5.730416e-01
5.730388e-01
5.730341e-01
5.730247e-01
5.730203e-01
5.730203e-01
5.730859e-01
0.000000e+00
1.000000e+00
5.730553e-01
5.729157e-01
5.728712e-01
5.728160e-01
5.727632e-01
5.727188e-01
5.726892e-01
5.726788e-01
5.726892e-01
5.727176e-01
5.727589e-01
5.728161e-01
5.728757e-01
5.729163e-01
5.728982e-01
0.000000e+00
1.000000e+00
5.729989e-01
5.727837e-01
5.726566e-01
5.725216e-01
5.723930e-01
5.722848e-01
5.722120e-01
5.721858e-01
5.722105e-01
5.722794e-01
5.723904e-01
5.725220e-01
5.726523e-01
5.727863e-01
5.725639e-01
0.000000e+00
1.000000e+00
5.728922e-01
5.726224e-01
5.723899e-01
5.721565e-01
5.719347e-01
5.717483e-01
5.716228e-01
5.715781e-01
5.716213e-01
5.717459e-01
5.719340e-01
5.721535e-01
5.723853e-01
5.726378e-01
5.723999e-01
0.000000e+00
1.000000e+00
5.727549e-01
5.724336e-01
5.720791e-01
5.717312e-01
5.714010e-01
5.711235e-01
5.709367e-01
5.708707e-01
5.709357e-01
5.711241e-01
5.714001e-01
5.717292e-01
5.720770e-01
5.724525e-01
5.722592e-01
0.000000e+00
1.000000e+00
5.725976e-01
5.722211e-01
5.717363e-01
5.712622e-01
5.708123e-01
5.704343e-01
5.701800e-01
5.700906e-01
5.701802e-01
5.704366e-01
5.708126e-01
5.712621e-01
5.717357e-01
5.722429e-01
5.721277e-01
0.000000e+00
1.000000e+00
5.724401e-01
5.720010e-01
5.713779e-01
5.707718e-01
5.701967e-01
5.697137e-01
5.693888e-01
5.692747e-01
5.693905e-01
5.697175e-01
5.701986e-01
5.707730e-01
5.713787e-01
5.720187e-01
5.720265e-01
0.000000e+00
1.000000e+00
5.722805e-01
5.717777e-01
5.710234e-01
5.702867e-01
5.695878e-01
5.690009e-01
5.686062e-01
5.684677e-01
5.686091e-01
5.690066e-01
5.695915e-01
5.702892e-01
5.710253e-01
5.717964e-01
5.719084e-01
0.000000e+00
1.000000e+00
5.721378e-01
5.715673e-01
5.706934e-01
5.698349e-01
5.690206e-01
5.683370e-01
5.678773e-01
5.677158e-01
5.678810e-01
5.683444e-01
5.690260e-01
5.698384e-01
5.706961e-01
5.715875e-01
5.718035e-01
0.000000e+00
1.000000e+00
5.720097e-01
5.713862e-01
5.704064e-01
5.694419e-01
5.685273e-01
5.677596e-01
5.672434e-01
5.670619e-01
5.672471e-01
5.677688e-01
5.685342e-01
5.694463e-01
5.704097e-01
5.714071e-01
5.717141e-01
0.000000e+00
1.000000e+00
5.718942e-01
5.712420e-01
5.701772e-01
5.691279e-01
5.681332e-01
5.672983e-01
5.667371e-01
5.665395e-01
5.667397e-01
5.673089e-01
5.681418e-01
5.691329e-01
5.701808e-01
5.712622e-01
5.716357e-01
0.000000e+00
1.000000e+00
5.718010e-01
5.711383e-01
5.700147e-01
5.689055e-01
5.678542e-01
5.669717e-01
5.663787e-01
5.661701e-01
5.663800e-01
5.669835e-01
5.678646e-01
5.689113e-01
5.700188e-01
5.711645e-01
5.715358e-01
0.000000e+00
1.000000e+00
5.717364e-01
5.710765e-01
5.699225e-01
5.687794e-01
5.676959e-01
5.667867e-01
5.661756e-01
5.659612e-01
5.661769e-01
5.667997e-01
5.677085e-01
5.687860e-01
5.699273e-01
5.711088e-01
5.715234e-01
0.000000e+00
1.000000e+00
5.716870e-01
5.710636e-01
5.698985e-01
5.687467e-01
5.676551e-01
5.667389e-01
5.661234e-01
5.659085e-01
5.661262e-01
5.667536e-01
5.676695e-01
5.687544e-01
5.699041e-01
5.711078e-01
5.714719e-01
0.000000e+00
1.000000e+00
5.716846e-01
5.710896e-01
5.699367e-01
5.687992e-01
5.677211e-01
5.668163e-01
5.662088e-01
5.659975e-01
5.662136e-01
5.668316e-01
5.677363e-01
5.688077e-01
5.699430e-01
5.711921e-01
5.714837e-01
0.000000e+00
1.000000e+00
5.718180e-01
5.711219e-01
5.700274e-01
5.689239e-01
5.678781e-01
5.670007e-01
5.664122e-01
5.662062e-01
5.664173e-01
5.670166e-01
5.678962e-01
5.689365e-01
5.700393e-01
5.715187e-01
5.707585e-01
0.000000e+00
1.000000e+00
5.730933e-01
5.731703e-01
5.732637e-01
5.733562e-01
5.734440e-01
5.735150e-01
5.735613e-01
5.735755e-01
5.735578e-01
5.735119e-01
5.734444e-01
5.733569e-01
5.732630e-01
5.732166e-01
5.725883e-01
0.000000e+00
1.000000e+00
5.730771e-01
5.730741e-01
5.731244e-01
5.731625e-01
5.731962e-01
5.732237e-01
5.732415e-01
5.732461e-01
5.732367e-01
5.732145e-01
5.731825e-01
5.731461e-01
5.731158e-01
5.730773e-01
5.729018e-01
0.000000e+00
1.000000e+00
5.730198e-01
5.729472e-01
5.729176e-01
5.728797e-01
5.728429e-01
5.728118e-01
5.727910e-01
5.727840e-01
5.727917e-01
5.728133e-01
5.728424e-01
5.728780e-01
5.729183e-01
5.729568e-01
5.727301e-01
0.000000e+00
1.000000e+00
5.729320e-01
5.727915e-01
5.726568e-01
5.725221e-01
5.723940e-01
5.722862e-01
5.722138e-01
5.721882e-01
5.722141e-01
5.722841e-01
5.723918e-01
5.725220e-01
5.726532e-01
5.728050e-01
5.724687e-01
0.000000e+00
1.000000e+00
5.728002e-01
5.726008e-01
5.723426e-01
5.720919e-01
5.718538e-01
5.716537e-01
5.715191e-01
5.714714e-01
5.715197e-01
5.716537e-01
5.718509e-01
5.720880e-01
5.723375e-01
5.726188e-01
5.723864e-01
0.000000e+00
1.000000e+00
5.726428e-01
5.723816e-01
5.719834e-01
5.716003e-01
5.712366e-01
5.709311e-01
5.707256e-01
5.706529e-01
5.707267e-01
5.709346e-01
5.712342e-01
5.715972e-01
5.719805e-01
5.723980e-01
5.722573e-01
0.000000e+00
1.000000e+00
5.724735e-01
5.721380e-01
5.715940e-01
5.710673e-01
5.705676e-01
5.701478e-01
5.698655e-01
5.697659e-01
5.698668e-01
5.701533e-01
5.705676e-01
5.710661e-01
5.715923e-01
5.721597e-01
5.720739e-01
0.000000e+00
1.000000e+00
5.722964e-01
5.718869e-01
5.711941e-01
5.705200e-01
5.698805e-01
5.693435e-01
5.689823e-01
5.688553e-01
5.689839e-01
5.693506e-01
5.698831e-01
5.705203e-01
5.711936e-01
5.719115e-01
5.719195e-01
0.000000e+00
1.000000e+00
5.721339e-01
5.716376e-01
5.708065e-01
5.699896e-01
5.692147e-01
5.685640e-01
5.681265e-01
5.679728e-01
5.681280e-01
5.685722e-01
5.692194e-01
5.699913e-01
5.708072e-01
5.716677e-01
5.717843e-01
0.000000e+00
1.000000e+00
5.719930e-01
5.714116e-01
5.704545e-01
5.695076e-01
5.686096e-01
5.678557e-01
5.673488e-01
5.671709e-01
5.673501e-01
5.678643e-01
5.686162e-01
5.695104e-01
5.704560e-01
5.714429e-01
5.716966e-01
0.000000e+00
1.000000e+00
5.718604e-01
5.712257e-01
5.701582e-01
5.691018e-01
5.681003e-01
5.672595e-01
5.666943e-01
5.664958e-01
5.666955e-01
5.672683e-01
5.681085e-01
5.691057e-01
5.701603e-01
5.712533e-01
5.716119e-01
0.000000e+00
1.000000e+00
5.717551e-01
5.710800e-01
5.699325e-01
5.687928e-01
5.677125e-01
5.668056e-01
5.661961e-01
5.659814e-01
5.661975e-01
5.668148e-01
5.677226e-01
5.687977e-01
5.699352e-01
5.711073e-01
5.715858e-01
0.000000e+00
1.000000e+00
5.716840e-01
5.709838e-01
5.697857e-01
5.685919e-01
5.674605e-01
5.665109e-01
5.658726e-01
5.656469e-01
5.658744e-01
5.665207e-01
5.674729e-01
5.685982e-01
5.697892e-01
5.710171e-01
5.715189e-01
0.000000e+00
1.000000e+00
5.716394e-01
5.709430e-01
5.697193e-01
5.685012e-01
5.673468e-01
5.663780e-01
5.657267e-01
5.654969e-01
5.657297e-01
5.663887e-01
5.673617e-01
5.685091e-01
5.697239e-01
5.709770e-01
5.715273e-01
0.000000e+00
1.000000e+00
5.716110e-01
5.709526e-01
5.697293e-01
5.685148e-01
5.673638e-01
5.663979e-01
5.657488e-01
5.655209e-01
5.657530e-01
5.664102e-01
5.673807e-01
5.685241e-01
5.697345e-01
5.709968e-01
5.714733e-01
0.000000e+00
1.000000e+00
5.716376e-01
5.709992e-01
5.698057e-01
5.686197e-01
5.674957e-01
5.665524e-01
5.659187e-01
5.656973e-01
5.659237e-01
5.665664e-01
5.675141e-01
5.686311e-01
5.698125e-01
5.710980e-01
5.715079e-01
0.000000e+00
1.000000e+00
5.718084e-01
5.710581e-01
5.699366e-01
5.687997e-01
5.677222e-01
5.668181e-01
5.662112e-01
5.659991e-01
5.662160e-01
5.668336e-01
5.677426e-01
5.688143e-01
5.699482e-01
5.713895e-01
5.708307e-01
0.000000e+00
1.000000e+00
5.731507e-01
5.732756e-01
5.734297e-01
5.735767e-01
5.737167e-01
5.738362e-01
5.739167e-01
5.739453e-01
5.739219e-01
5.738495e-01
5.737345e-01
5.735890e-01
5.734326e-01
5.733534e-01
5.725122e-01
0.000000e+00
1.000000e+00
5.731184e-01
5.731646e-01
5.732487e-01
5.733306e-01
5.734105e-01
5.734778e-01
5.735224e-01
5.735361e-01
5.735184e-01
5.734704e-01
5.734034e-01
5.733238e-01
5.732383e-01
5.731982e-01
5.727409e-01
0.000000e+00
1.000000e+00
5.730370e-01
5.730108e-01
5.730080e-01
5.730022e-01
5.729976e-01
5.729937e-01
5.729910e-01
5.729894e-01
5.729892e-01
5.729916e-01
5.729907e-01
5.729899e-01
5.729968e-01
5.730485e-01
5.726284e-01
0.000000e+00
1.000000e+00
5.728980e-01
5.728294e-01
5.727076e-01
5.725918e-01
5.724819e-01
5.723894e-01
5.723273e-01
5.723056e-01
5.723286e-01
5.723924e-01
5.724856e-01
5.725937e-01
5.727072e-01
5.728603e-01
5.724091e-01
0.000000e+00
1.000000e+00
5.727425e-01
5.726097e-01
5.723498e-01
5.721018e-01
5.718664e-01
5.716686e-01
5.715356e-01
5.714887e-01
5.715372e-01
5.716691e-01
5.718665e-01
5.720975e-01
5.723449e-01
5.726431e-01
5.722916e-01
0.000000e+00
1.000000e+00
5.725625e-01
5.723599e-01
5.719462e-01
5.715492e-01
5.711726e-01
5.708562e-01
5.706434e-01
5.705684e-01
5.706460e-01
5.708579e-01
5.711746e-01
5.715469e-01
5.719428e-01
5.723918e-01
5.721482e-01
0.000000e+00
1.000000e+00
5.723665e-01
5.720877e-01
5.715144e-01
5.709582e-01
5.704307e-01
5.699875e-01
5.696895e-01
5.695847e-01
5.696927e-01
5.699907e-01
5.704350e-01
5.709583e-01
5.715122e-01
5.721219e-01
5.720087e-01
0.000000e+00
1.000000e+00
5.721811e-01
5.718050e-01
5.710776e-01
5.703603e-01
5.696799e-01
5.691086e-01
5.687245e-01
5.685896e-01
5.687278e-01
5.691135e-01
5.696863e-01
5.703619e-01
5.710765e-01
5.718437e-01
5.719148e-01
0.000000e+00
1.000000e+00
5.720126e-01
5.715347e-01
5.706614e-01
5.697905e-01
5.689647e-01
5.682713e-01
5.678052e-01
5.676416e-01
5.678080e-01
5.682779e-01
5.689727e-01
5.697936e-01
5.706613e-01
5.715753e-01
5.718145e-01
0.000000e+00
1.000000e+00
5.718590e-01
5.712952e-01
5.702914e-01
5.692838e-01
5.683286e-01
5.675267e-01
5.669878e-01
5.667987e-01
5.669898e-01
5.675347e-01
5.683380e-01
5.692881e-01
5.702920e-01
5.713372e-01
5.717103e-01
0.000000e+00
1.000000e+00
5.717167e-01
5.711019e-01
5.699890e-01
5.688698e-01
5.678089e-01
5.669185e-01
5.663201e-01
5.661100e-01
5.663213e-01
5.669273e-01
5.678197e-01
5.688755e-01
5.699903e-01
5.711478e-01
5.715695e-01
0.000000e+00
1.000000e+00
5.716375e-01
5.709594e-01
5.697692e-01
5.685692e-01
5.674317e-01
5.664771e-01
5.658356e-01
5.656099e-01
5.658371e-01
5.664861e-01
5.674438e-01
5.685764e-01
5.697715e-01
5.710117e-01
5.714821e-01
0.000000e+00
1.000000e+00
5.715825e-01
5.708795e-01
5.696395e-01
5.683918e-01
5.672093e-01
5.662169e-01
5.655500e-01
5.653151e-01
5.655533e-01
5.662264e-01
5.672225e-01
5.684010e-01
5.696431e-01
5.709361e-01
5.713857e-01
0.000000e+00
1.000000e+00
5.715137e-01
5.708631e-01
5.695997e-01
5.683372e-01
5.671409e-01
5.661369e-01
5.654621e-01
5.652245e-01
5.654665e-01
5.661466e-01
5.671547e-01
5.683479e-01
5.696042e-01
5.709121e-01
5.714084e-01
0.000000e+00
1.000000e+00
5.715411e-01
5.708908e-01
5.696418e-01
5.683949e-01
5.672134e-01
5.662221e-01
5.655559e-01
5.653218e-01
5.655610e-01
5.662324e-01
5.672286e-01
5.684073e-01
5.696476e-01
5.709478e-01
5.714007e-01
0.000000e+00
1.000000e+00
5.716274e-01
5.709628e-01
5.697543e-01
5.685490e-01
5.674071e-01
5.664488e-01
5.658050e-01
5.655794e-01
5.658108e-01
5.664602e-01
5.674241e-01
5.685638e-01
5.697624e-01
5.710556e-01
5.714525e-01
0.000000e+00
1.000000e+00
5.717962e-01
5.710488e-01
5.699226e-01
5.687801e-01
5.676977e-01
5.667894e-01
5.661794e-01
5.659661e-01
5.661845e-01
5.668012e-01
5.677166e-01
5.687974e-01
5.699347e-01
5.712893e-01
5.710830e-01
0.000000e+00
1.000000e+00
5.732308e-01
5.733987e-01
5.736175e-01
5.738334e-01
5.740412e-01
5.742206e-01
5.743459e-01
5.743947e-01
5.743611e-01
5.742567e-01
5.740882e-01
5.738760e-01
5.736441e-01
5.734893e-01
5.726234e-01
0.000000e+00
1.000000e+00
5.731728e-01
5.732822e-01
5.734244e-01
5.735768e-01
5.737167e-01
5.738302e-01
5.739029e-01
5.739237e-01
5.738900e-01
5.738115e-01
5.737043e-01
5.735728e-01
5.734236e-01
5.733668e-01
5.728043e-01
0.000000e+00
1.000000e+00
5.730858e-01
5.731083e-01
5.731544e-01
5.732035e-01
5.732476e-01
5.732839e-01
5.733080e-01
5.733152e-01
5.733038e-01
5.732754e-01
5.732321e-01
5.731873e-01
5.731423e-01
5.731604e-01
5.727686e-01
0.000000e+00
1.000000e+00
5.728866e-01
5.729014e-01
5.728119e-01
5.727342e-01
5.726601e-01
5.725978e-01
5.725559e-01
5.725409e-01
5.725557e-01
5.725974e-01
5.726586e-01
5.727349e-01
5.728096e-01
5.729334e-01
5.724568e-01
0.000000e+00
1.000000e+00
5.727154e-01
5.726584e-01
5.724139e-01
5.721899e-01
5.719773e-01
5.717986e-01
5.716784e-01
5.716361e-01
5.716801e-01
5.717984e-01
5.719784e-01
5.721914e-01
5.724113e-01
5.727021e-01
5.723069e-01
0.000000e+00
1.000000e+00
5.725052e-01
5.723798e-01
5.719723e-01
5.715852e-01
5.712179e-01
5.709094e-01
5.707019e-01
5.706290e-01
5.707049e-01
5.709095e-01
5.712203e-01
5.715894e-01
5.719717e-01
5.724327e-01
5.721545e-01
0.000000e+00
1.000000e+00
5.722925e-01
5.720742e-01
5.715053e-01
5.709458e-01
5.704150e-01
5.699691e-01
5.696695e-01
5.695644e-01
5.696735e-01
5.699710e-01
5.704192e-01
5.709516e-01
5.715053e-01
5.721431e-01
5.719767e-01
0.000000e+00
1.000000e+00
5.720925e-01
5.717658e-01
5.710384e-01
5.703063e-01
5.696120e-01
5.690290e-01
5.686375e-01
5.685004e-01
5.686423e-01
5.690328e-01
5.696190e-01
5.703136e-01
5.710389e-01
5.718482e-01
5.717885e-01
0.000000e+00
1.000000e+00
5.719031e-01
5.714733e-01
5.705999e-01
5.697056e-01
5.688578e-01
5.681463e-01
5.676685e-01
5.675013e-01
5.676737e-01
5.681514e-01
5.688676e-01
5.697140e-01
5.706010e-01
5.715636e-01
5.716524e-01
0.000000e+00
1.000000e+00
5.717465e-01
5.712168e-01
5.702169e-01
5.691813e-01
5.681996e-01
5.673760e-01
5.668229e-01
5.666293e-01
5.668280e-01
5.673821e-01
5.682112e-01
5.691905e-01
5.702188e-01
5.713126e-01
5.715524e-01
0.000000e+00
1.000000e+00
5.716298e-01
5.710167e-01
5.699121e-01
5.687641e-01
5.676762e-01
5.667635e-01
5.661506e-01
5.659359e-01
5.661551e-01
5.667715e-01
5.676889e-01
5.687744e-01
5.699151e-01
5.711133e-01
5.715073e-01
0.000000e+00
1.000000e+00
5.715635e-01
5.708875e-01
5.697004e-01
5.684748e-01
5.673134e-01
5.663390e-01
5.656847e-01
5.654551e-01
5.656890e-01
5.663486e-01
5.673270e-01
5.684863e-01
5.697052e-01
5.709738e-01
5.715043e-01
0.000000e+00
1.000000e+00
5.714930e-01
5.708315e-01
5.695883e-01
5.683217e-01
5.671214e-01
5.661145e-01
5.654383e-01
5.652008e-01
5.654431e-01
5.661249e-01
5.671353e-01
5.683339e-01
5.695948e-01
5.709015e-01
5.715196e-01
0.000000e+00
1.000000e+00
5.715226e-01
5.708236e-01
5.695726e-01
5.683005e-01
5.670951e-01
5.660838e-01
5.654045e-01
5.651663e-01
5.654104e-01
5.660953e-01
5.671093e-01
5.683132e-01
5.695808e-01
5.708952e-01
5.715012e-01
0.000000e+00
1.000000e+00
5.714917e-01
5.708745e-01
5.696444e-01
5.683987e-01
5.672183e-01
5.662281e-01
5.655630e-01
5.653298e-01
5.655692e-01
5.662398e-01
5.672328e-01
5.684116e-01
5.696534e-01
5.709486e-01
5.715023e-01
0.000000e+00
1.000000e+00
5.715645e-01
5.709856e-01
5.697888e-01
5.685962e-01
5.674663e-01
5.665185e-01
5.658819e-01
5.656589e-01
5.658883e-01
5.665298e-01
5.674811e-01
5.686103e-01
5.697987e-01
5.710634e-01
5.715075e-01
0.000000e+00
1.000000e+00
5.717657e-01
5.710980e-01
5.699895e-01
5.688714e-01
5.678120e-01
5.669233e-01
5.663263e-01
5.661173e-01
5.663323e-01
5.669328e-01
5.678256e-01
5.688863e-01
5.700007e-01
5.712435e-01
5.714597e-01
0.000000e+00
1.000000e+00
5.733059e-01
5.735355e-01
5.738356e-01
5.741337e-01
5.744215e-01
5.746676e-01
5.748413e-01
5.749132e-01
5.748722e-01
5.747357e-01
5.745066e-01
5.742109e-01
5.738903e-01
5.736742e-01
5.726250e-01
0.000000e+00
1.000000e+00
5.732424e-01
5.734080e-01
5.736274e-01
5.738478e-01
5.740585e-01
5.742335e-01
5.743499e-01
5.743895e-01
5.743456e-01
5.742324e-01
5.740659e-01
5.738581e-01
5.736341e-01
5.735747e-01
5.726631e-01
0.000000e+00
1.000000e+00
5.731535e-01
5.732252e-01
5.733270e-01
5.734393e-01
5.735470e-01
5.736368e-01
5.736965e-01
5.737167e-01
5.736926e-01
5.736296e-01
5.735375e-01
5.734328e-01
5.733305e-01
5.734845e-01
5.723223e-01
0.000000e+00
1.000000e+00
5.729044e-01
5.730036e-01
5.729588e-01
5.729369e-01
5.729162e-01
5.728988e-01
5.728871e-01
5.728831e-01
5.728878e-01
5.728998e-01
5.729130e-01
5.729363e-01
5.729640e-01
5.733107e-01
5.717384e-01
0.000000e+00
1.000000e+00
5.726760e-01
5.727449e-01
5.725349e-01
5.723554e-01
5.721851e-01
5.720418e-01
5.719455e-01
5.719118e-01
5.719470e-01
5.720430e-01
5.721802e-01
5.723556e-01
5.725440e-01
5.732202e-01
5.712905e-01
0.000000e+00
1.000000e+00
5.724535e-01
5.724388e-01
5.720636e-01
5.717101e-01
5.713746e-01
5.710926e-01
5.709032e-01
5.708367e-01
5.709057e-01
5.710960e-01
5.713719e-01
5.717123e-01
5.720774e-01
5.730454e-01
5.712044e-01
0.000000e+00
1.000000e+00
5.722524e-01
5.721046e-01
5.715692e-01
5.710333e-01
5.705247e-01
5.700976e-01
5.698110e-01
5.697108e-01
5.698153e-01
5.701044e-01
5.705267e-01
5.710380e-01
5.715831e-01
5.726545e-01
5.713831e-01
0.000000e+00
1.000000e+00
5.720477e-01
5.717705e-01
5.710806e-01
5.703637e-01
5.696838e-01
5.691134e-01
5.687308e-01
5.685974e-01
5.687369e-01
5.691226e-01
5.696900e-01
5.703715e-01
5.710935e-01
5.721859e-01
5.715374e-01
0.000000e+00
1.000000e+00
5.718658e-01
5.714555e-01
5.706273e-01
5.697423e-01
5.689037e-01
5.682006e-01
5.677291e-01
5.675649e-01
5.677365e-01
5.682113e-01
5.689136e-01
5.697526e-01
5.706389e-01
5.717554e-01
5.715401e-01
0.000000e+00
1.000000e+00
5.717353e-01
5.711879e-01
5.702374e-01
5.692084e-01
5.682338e-01
5.674169e-01
5.668690e-01
5.666780e-01
5.668770e-01
5.674281e-01
5.682469e-01
5.692208e-01
5.702484e-01
5.714309e-01
5.715082e-01
0.000000e+00
1.000000e+00
5.716752e-01
5.709944e-01
5.699342e-01
5.687937e-01
5.677138e-01
5.668085e-01
5.662012e-01
5.659893e-01
5.662092e-01
5.668202e-01
5.677292e-01
5.688078e-01
5.699462e-01
5.712282e-01
5.713583e-01
0.000000e+00
1.000000e+00
5.715507e-01
5.708790e-01
5.697325e-01
5.685185e-01
5.673686e-01
5.664045e-01
5.657576e-01
5.655315e-01
5.657656e-01
5.664174e-01
5.673850e-01
5.685334e-01
5.697469e-01
5.711559e-01
5.710913e-01
0.000000e+00
1.000000e+00
5.714771e-01
5.708398e-01
5.696375e-01
5.683887e-01
5.672058e-01
5.662138e-01
5.655481e-01
5.653152e-01
5.655558e-01
5.662275e-01
5.672230e-01
5.684038e-01
5.696538e-01
5.711847e-01
5.708418e-01
0.000000e+00
1.000000e+00
5.715133e-01
5.708486e-01
5.696436e-01
5.683973e-01
5.672169e-01
5.662269e-01
5.655625e-01
5.653304e-01
5.655707e-01
5.662412e-01
5.672349e-01
5.684126e-01
5.696604e-01
5.712336e-01
5.707947e-01
0.000000e+00
1.000000e+00
5.714918e-01
5.709156e-01
5.697397e-01
5.685293e-01
5.673824e-01
5.664205e-01
5.657750e-01
5.655495e-01
5.657831e-01
5.664348e-01
5.674002e-01
5.685441e-01
5.697547e-01
5.712297e-01
5.710133e-01
0.000000e+00
1.000000e+00
5.715409e-01
5.710511e-01
5.699097e-01
5.687621e-01
5.676746e-01
5.667624e-01
5.661502e-01