<?xml version="1.0"?>
<VTKFile type="StructuredGrid" version="0.1">
  <StructuredGrid WholeExtent="0 16 0 16 0 16">
    <Piece Extent="0 16 0 16 0 16">
      <PointData Scalars="temperature" Vectors="velocity">
        <DataArray type="Float32" Name="temperature" format="ascii">
1.000000e+00
5.730836e-01
5.729255e-01
5.729113e-01
5.728703e-01
5.728321e-01
5.727975e-01
5.727772e-01
5.727680e-01
5.727741e-01
5.727949e-01
5.728269e-01
5.728657e-01
5.729066e-01
5.730246e-01
5.724748e-01
0.000000e+00
1.000000e+00
5.729938e-01
5.727636e-01
5.726502e-01
5.725128e-01
5.723826e-01
5.722714e-01
5.721986e-01
5.721702e-01
5.721954e-01
5.722683e-01
5.723772e-01
5.725073e-01
5.726443e-01
5.728551e-01
5.723504e-01
0.000000e+00
1.000000e+00
5.728990e-01
5.725724e-01
5.723488e-01
5.720998e-01
5.718636e-01
5.716637e-01
5.715299e-01
5.714804e-01
5.715269e-01
5.716597e-01
5.718573e-01
5.720932e-01
5.723419e-01
5.726578e-01
5.722757e-01
0.000000e+00
1.000000e+00
5.727937e-01
5.723565e-01
5.720130e-01
5.716402e-01
5.712863e-01
5.709875e-01
5.707863e-01
5.707137e-01
5.707837e-01
5.709830e-01
5.712795e-01
5.716330e-01
5.720057e-01
5.724440e-01
5.721616e-01
0.000000e+00
1.000000e+00
5.726876e-01
5.721254e-01
5.716536e-01
5.711484e-01
5.706686e-01
5.702646e-01
5.699918e-01
5.698941e-01
5.699891e-01
5.702595e-01
5.706617e-01
5.711410e-01
5.716464e-01
5.722119e-01
5.720654e-01
0.000000e+00
1.000000e+00
5.725902e-01
5.718876e-01
5.712852e-01
5.706442e-01
5.700353e-01
5.695228e-01
5.691778e-01
5.690541e-01
5.691747e-01
5.695181e-01
5.700286e-01
5.706369e-01
5.712782e-01
5.719733e-01
5.719570e-01
0.000000e+00
1.000000e+00
5.724966e-01
5.716534e-01
5.709252e-01
5.701511e-01
5.694162e-01
5.687983e-01
5.683814e-01
5.682325e-01
5.683787e-01
5.687934e-01
5.694099e-01
5.701441e-01
5.709183e-01
5.717402e-01
5.718691e-01
0.000000e+00
1.000000e+00
5.724072e-01
5.714370e-01
5.705923e-01
5.696951e-01
5.688436e-01
5.681273e-01
5.676447e-01
5.674726e-01
5.676426e-01
5.681235e-01
5.688379e-01
5.696886e-01
5.705857e-01
5.715266e-01
5.717676e-01
0.000000e+00
1.000000e+00
5.723257e-01
5.712512e-01
5.703049e-01
5.693016e-01
5.683496e-01
5.675484e-01
5.670105e-01
5.668179e-01
5.670075e-01
5.675457e-01
5.683446e-01
5.692958e-01
5.702989e-01
5.713416e-01
5.716851e-01
0.000000e+00
1.000000e+00
5.722831e-01
5.711009e-01
5.700792e-01
5.689928e-01
5.679618e-01
5.670944e-01
5.665129e-01
5.663048e-01
5.665092e-01
5.670925e-01
5.679577e-01
5.689879e-01
5.700740e-01
5.711972e-01
5.716107e-01
0.000000e+00
1.000000e+00
5.722535e-01
5.710005e-01
5.699275e-01
5.687854e-01
5.677015e-01
5.667899e-01
5.661779e-01
5.659602e-01
5.661749e-01
5.667882e-01
5.676982e-01
5.687813e-01
5.699233e-01
5.710997e-01
5.715681e-01
0.000000e+00
1.000000e+00
5.722502e-01
5.709532e-01
5.698564e-01
5.686884e-01
5.675797e-01
5.666478e-01
5.660216e-01
5.658003e-01
5.660196e-01
5.666464e-01
5.675774e-01
5.686852e-01
5.698532e-01
5.710537e-01
5.715278e-01
0.000000e+00
1.000000e+00
5.722975e-01
5.709510e-01
5.698669e-01
5.687030e-01
5.675985e-01
5.666702e-01
5.660461e-01
5.658260e-01
5.660448e-01
5.666689e-01
5.675968e-01
5.687008e-01
5.698647e-01
5.710579e-01
5.715518e-01
0.000000e+00
1.000000e+00
5.723635e-01
5.710018e-01
5.699549e-01
5.688237e-01
5.677503e-01
5.668483e-01
5.662415e-01
5.660275e-01
5.662409e-01
5.668468e-01
5.677489e-01
5.688221e-01
5.699533e-01
5.711123e-01
5.715789e-01
0.000000e+00
1.000000e+00
5.724378e-01
5.710977e-01
5.701118e-01
5.690385e-01
5.680202e-01
5.671646e-01
5.665889e-01
5.663857e-01
5.665890e-01
5.671634e-01
5.680190e-01
5.690374e-01
5.701106e-01
5.712070e-01
5.716467e-01
0.000000e+00
1.000000e+00
5.725215e-01
5.712297e-01
5.703262e-01
5.693319e-01
5.683888e-01
5.675964e-01
5.670631e-01
5.668749e-01
5.670633e-01
5.675950e-01
5.683869e-01
5.693304e-01
5.703244e-01
5.713426e-01
5.717512e-01
0.000000e+00
1.000000e+00
5.726078e-01
5.713897e-01
5.705876e-01
5.696887e-01
5.688357e-01
5.681188e-01
5.676363e-01
5.674661e-01
5.676368e-01
5.681179e-01
5.688334e-01
5.696860e-01
5.705839e-01
5.714984e-01
5.717057e-01
0.000000e+00
1.000000e+00
5.730210e-01
5.727966e-01
5.727091e-01
5.725939e-01
5.724847e-01
5.723906e-01
5.723294e-01
5.723046e-01
5.723256e-01
5.723868e-01
5.724783e-01
5.725878e-01
5.727030e-01
5.728797e-01
5.724402e-01
0.000000e+00
1.000000e+00
5.729531e-01
5.726262e-01
5.724416e-01
5.722272e-01
5.720240e-01
5.718525e-01
5.717363e-01
5.716933e-01
5.717332e-01
5.718476e-01
5.720178e-01
5.722210e-01
5.724352e-01
5.727165e-01
5.723290e-01
0.000000e+00
1.000000e+00
5.728514e-01
5.724293e-01
5.721334e-01
5.718049e-01
5.714928e-01
5.712306e-01
5.710524e-01
5.709883e-01
5.710497e-01
5.712253e-01
5.714864e-01
5.717978e-01
5.721261e-01
5.725194e-01
5.722265e-01
0.000000e+00
1.000000e+00
5.727588e-01
5.722071e-01
5.717903e-01
5.713354e-01
5.709030e-01
5.705402e-01
5.702933e-01
5.702056e-01
5.702907e-01
5.705343e-01
5.708964e-01
5.713280e-01
5.717830e-01
5.723023e-01
5.721072e-01
0.000000e+00
1.000000e+00
5.726543e-01
5.719693e-01
5.714246e-01
5.708348e-01
5.702744e-01
5.698037e-01
5.694848e-01
5.693713e-01
5.694817e-01
5.697977e-01
5.702675e-01
5.708271e-01
5.714172e-01
5.720677e-01
5.719990e-01
0.000000e+00
1.000000e+00
5.725443e-01
5.717295e-01
5.710517e-01
5.703241e-01
5.696333e-01
5.690522e-01
5.686603e-01
5.685203e-01
5.686570e-01
5.690468e-01
5.696264e-01
5.703166e-01
5.710443e-01
5.718266e-01
5.718860e-01
0.000000e+00
1.000000e+00
5.724544e-01
5.714928e-01
5.706902e-01
5.698293e-01
5.690121e-01
5.683241e-01
5.678611e-01
5.676953e-01
5.678581e-01
5.683195e-01
5.690053e-01
5.698220e-01
5.706831e-01
5.715909e-01
5.718082e-01
0.000000e+00
1.000000e+00
5.723598e-01
5.712789e-01
5.703609e-01
5.693783e-01
5.684460e-01
5.676607e-01
5.671330e-01
5.669444e-01
5.671299e-01
5.676569e-01
5.684395e-01
5.693714e-01
5.703540e-01
5.713790e-01
5.717050e-01
0.000000e+00
1.000000e+00
5.722878e-01
5.710985e-01
5.700835e-01
5.689984e-01
5.679691e-01
5.671024e-01
5.665203e-01
5.663122e-01
5.665164e-01
5.670989e-01
5.679631e-01
5.689921e-01
5.700770e-01
5.711996e-01
5.716263e-01
0.000000e+00
1.000000e+00
5.722440e-01
5.709591e-01
5.698749e-01
5.687132e-01
5.676107e-01
5.666831e-01
5.660596e-01
5.658375e-01
5.660558e-01
5.666798e-01
5.676055e-01
5.687074e-01
5.698692e-01
5.710652e-01
5.715612e-01
0.000000e+00
1.000000e+00
5.722122e-01
5.708772e-01
5.697477e-01
5.685390e-01
5.673919e-01
5.664272e-01
5.657781e-01
5.655482e-01
5.657755e-01
5.664241e-01
5.673874e-01
5.685338e-01
5.697425e-01
5.709813e-01
5.715353e-01
0.000000e+00
1.000000e+00
5.722174e-01
5.708498e-01
5.697075e-01
5.684842e-01
5.673230e-01
5.663468e-01
5.656895e-01
5.654575e-01
5.656877e-01
5.663438e-01
5.673192e-01
5.684796e-01
5.697030e-01
5.709542e-01
5.715327e-01
0.000000e+00
1.000000e+00
5.722736e-01
5.708704e-01
5.697540e-01
5.685479e-01
5.674031e-01
5.664407e-01
5.657925e-01
5.655637e-01
5.657915e-01
5.664379e-01
5.673997e-01
5.685439e-01
5.697500e-01
5.709823e-01
5.715544e-01
0.000000e+00
1.000000e+00
5.723442e-01
5.709437e-01
5.698811e-01
5.687216e-01
5.676213e-01
5.666963e-01
5.660732e-01
5.658532e-01
5.660729e-01
5.666939e-01
5.676183e-01
5.687182e-01
5.698773e-01
5.710615e-01
5.715811e-01
0.000000e+00
1.000000e+00
5.724521e-01
5.710571e-01
5.700776e-01
5.689907e-01
5.679592e-01
5.670921e-01
5.665081e-01
5.663016e-01
5.665080e-01
5.670901e-01
5.679562e-01
5.689877e-01
5.700742e-01
5.711801e-01
5.716705e-01
0.000000e+00
1.000000e+00
5.725741e-01
5.712021e-01
5.703302e-01
5.693368e-01
5.683939e-01
5.676014e-01
5.670675e-01
5.668787e-01
5.670673e-01
5.675994e-01
5.683907e-01
5.693340e-01
5.703271e-01
5.713331e-01
5.717680e-01
0.000000e+00
1.000000e+00
5.726670e-01
5.713946e-01
5.706247e-01
5.697403e-01
5.689009e-01
5.681954e-01
5.677201e-01
5.675519e-01
5.677197e-01
5.681935e-01
5.688976e-01
5.697377e-01
5.706221e-01
5.714947e-01
5.717975e-01
0.000000e+00
1.000000e+00
5.729956e-01
5.726870e-01
5.725418e-01
5.723648e-01
5.721959e-01
5.720544e-01
5.719575e-01
5.719228e-01
5.719551e-01
5.720496e-01
5.721904e-01
5.723585e-01
5.725355e-01
5.727653e-01
5.724144e-01
0.000000e+00
1.000000e+00
5.729280e-01
5.725114e-01
5.722709e-01
5.719936e-01
5.717299e-01
5.715088e-01
5.713573e-01
5.713049e-01
5.713558e-01
5.715039e-01
5.717244e-01
5.719874e-01
5.722645e-01
5.726072e-01
5.722766e-01
0.000000e+00
1.000000e+00
5.728234e-01
5.723110e-01
5.719589e-01
5.715662e-01
5.711927e-01
5.708795e-01
5.706652e-01
5.705913e-01
5.706637e-01
5.708739e-01
5.711865e-01
5.715590e-01
5.719518e-01
5.724082e-01
5.721692e-01
0.000000e+00
1.000000e+00
5.727287e-01
5.720858e-01
5.716119e-01
5.710912e-01
5.705963e-01
5.701799e-01
5.698981e-01
5.697997e-01
5.698959e-01
5.701748e-01
5.705896e-01
5.710837e-01
5.716046e-01
5.721896e-01
5.720637e-01
0.000000e+00
1.000000e+00
5.726329e-01
5.718430e-01
5.712429e-01
5.705860e-01
5.699621e-01
5.694357e-01
5.690825e-01
5.689574e-01
5.690796e-01
5.694315e-01
5.699549e-01
5.705783e-01
5.712355e-01
5.719561e-01
5.719287e-01
0.000000e+00
1.000000e+00
5.725189e-01
5.716025e-01
5.708684e-01
5.700732e-01
5.693183e-01
5.686813e-01
5.682547e-01
5.681024e-01
5.682514e-01
5.686774e-01
5.693110e-01
5.700655e-01
5.708610e-01
5.717159e-01
5.717879e-01
0.000000e+00
1.000000e+00
5.724180e-01
5.713696e-01
5.705083e-01
5.695804e-01
5.686996e-01
5.679569e-01
5.674594e-01
5.672818e-01
5.674555e-01
5.679532e-01
5.686925e-01
5.695730e-01
5.705013e-01
5.714807e-01
5.717139e-01
0.000000e+00
1.000000e+00
5.723304e-01
5.711577e-01
5.701849e-01
5.691376e-01
5.681436e-01
5.673064e-01
5.667449e-01
5.665448e-01
5.667402e-01
5.673025e-01
5.681370e-01
5.691306e-01
5.701782e-01
5.712720e-01
5.716263e-01
0.000000e+00
1.000000e+00
5.722533e-01
5.709880e-01
5.699194e-01
5.687739e-01
5.676869e-01
5.667719e-01
5.661572e-01
5.659393e-01
5.661532e-01
5.667680e-01
5.676808e-01
5.687674e-01
5.699130e-01
5.710989e-01
5.715557e-01
0.000000e+00
1.000000e+00
5.722098e-01
5.708646e-01
5.697291e-01
5.685135e-01
5.673597e-01
5.663893e-01
5.657364e-01
5.655060e-01
5.657337e-01
5.663853e-01
5.673544e-01
5.685075e-01
5.697232e-01
5.709741e-01
5.714906e-01
0.000000e+00
1.000000e+00
5.721969e-01
5.707939e-01
5.696265e-01
5.683729e-01
5.671832e-01
5.661831e-01
5.655094e-01
5.652719e-01
5.655076e-01
5.661789e-01
5.671785e-01
5.683675e-01
5.696210e-01
5.709022e-01
5.714871e-01
0.000000e+00
1.000000e+00
5.722186e-01
5.707848e-01
5.696163e-01
5.683590e-01
5.671661e-01
5.661631e-01
5.654872e-01
5.652487e-01
5.654863e-01
5.661593e-01
5.671617e-01
5.683543e-01
5.696114e-01
5.708921e-01
5.714934e-01
0.000000e+00
1.000000e+00
5.722855e-01
5.708284e-01
5.696968e-01
5.684695e-01
5.673048e-01
5.663254e-01
5.656654e-01
5.654321e-01
5.656651e-01
5.663222e-01
5.673004e-01
5.684651e-01
5.696923e-01
5.709404e-01
5.715244e-01
0.000000e+00
1.000000e+00
5.723899e-01
5.709137e-01
5.698598e-01
5.686925e-01
5.675848e-01
5.666535e-01
5.660257e-01
5.658036e-01
5.660254e-01
5.666506e-01
5.675805e-01
5.686887e-01
5.698557e-01
5.710404e-01
5.715522e-01
0.000000e+00
1.000000e+00
5.724742e-01
5.710592e-01
5.700923e-01
5.690108e-01
5.679845e-01
5.671217e-01
5.665401e-01
5.663341e-01
5.665394e-01
5.671190e-01
5.679802e-01
5.690072e-01
5.700886e-01
5.711778e-01
5.716690e-01
0.000000e+00
1.000000e+00
5.725732e-01
5.712417e-01
5.703789e-01
5.694034e-01
5.684777e-01
5.676995e-01
5.671750e-01
5.669891e-01
5.671740e-01
5.676970e-01
5.684734e-01
5.693996e-01
5.703756e-01
5.713421e-01
5.717747e-01
0.000000e+00
1.000000e+00
5.727036e-01
5.714433e-01
5.707036e-01
5.698486e-01
5.690371e-01
5.683551e-01
5.678955e-01
5.677327e-01
5.678948e-01
5.683530e-01
5.690333e-01
5.698450e-01
5.707012e-01
5.715176e-01
5.721211e-01
0.000000e+00
1.000000e+00
5.729751e-01
5.726069e-01
5.724223e-01
5.722010e-01
5.719902e-01
5.718152e-01
5.716931e-01
5.716504e-01
5.716902e-01
5.718082e-01
5.719842e-01
5.721943e-01
5.724157e-01
5.726864e-01
5.723621e-01
0.000000e+00
1.000000e+00
5.729059e-01
5.724313e-01
5.721518e-01
5.718306e-01
5.715251e-01
5.712711e-01
5.710948e-01
5.710342e-01
5.710926e-01
5.712640e-01
5.715196e-01
5.718244e-01
5.721456e-01
5.725292e-01
5.722389e-01
0.000000e+00
1.000000e+00
5.728186e-01
5.722284e-01
5.718404e-01
5.714040e-01
5.709890e-01
5.706424e-01
5.704042e-01
5.703217e-01
5.704018e-01
5.706350e-01
5.709826e-01
5.713968e-01
5.718334e-01
5.723318e-01
5.721384e-01
0.000000e+00
1.000000e+00
5.727302e-01
5.720005e-01
5.714939e-01
5.709297e-01
5.703934e-01
5.699431e-01
5.696382e-01
5.695308e-01
5.696353e-01
5.699368e-01
5.703865e-01
5.709221e-01
5.714866e-01
5.721152e-01
5.719981e-01
0.000000e+00
1.000000e+00
5.726335e-01
5.717566e-01
5.711259e-01
5.704259e-01
5.697609e-01
5.692005e-01
5.688239e-01
5.686912e-01
5.688215e-01
5.691955e-01
5.697534e-01
5.704179e-01
5.711185e-01
5.718810e-01
5.718931e-01
0.000000e+00
1.000000e+00
5.725027e-01
5.715220e-01
5.707539e-01
5.699163e-01
5.691212e-01
5.684507e-01
5.680004e-01
5.678430e-01
5.679983e-01
5.684464e-01
5.691135e-01
5.699084e-01
5.707463e-01
5.716435e-01
5.717585e-01
0.000000e+00
1.000000e+00
5.723916e-01
5.712974e-01
5.703987e-01
5.694302e-01
5.685109e-01
5.677359e-01
5.672148e-01
5.670340e-01
5.672131e-01
5.677318e-01
5.685034e-01
5.694224e-01
5.703915e-01
5.714125e-01
5.716719e-01
0.000000e+00
1.000000e+00
5.723171e-01
5.710891e-01
5.700837e-01
5.689991e-01
5.679695e-01
5.671022e-01
5.665184e-01
5.663160e-01
5.665176e-01
5.670980e-01
5.679626e-01
5.689917e-01
5.700769e-01
5.712104e-01
5.715481e-01
0.000000e+00
1.000000e+00
5.722481e-01
5.709268e-01
5.698314e-01
5.686534e-01
5.675353e-01
5.665943e-01
5.659608e-01
5.657401e-01
5.659607e-01
5.665898e-01
5.675290e-01
5.686465e-01
5.698248e-01
5.710445e-01
5.714770e-01
0.000000e+00
1.000000e+00
5.722125e-01
5.708134e-01
5.696595e-01
5.684180e-01
5.672396e-01
5.662488e-01
5.655814e-01
5.653474e-01
5.655816e-01
5.662444e-01
5.672339e-01
5.684118e-01
5.696533e-01
5.709282e-01
5.714146e-01
0.000000e+00
1.000000e+00
5.722239e-01
5.707534e-01
5.695800e-01
5.683092e-01
5.671034e-01
5.660897e-01
5.654063e-01
5.651656e-01
5.654070e-01
5.660857e-01
5.670977e-01
5.683036e-01
5.695743e-01
5.708650e-01
5.714499e-01
0.000000e+00
1.000000e+00
5.722470e-01
5.707644e-01
5.695973e-01
5.683331e-01
5.671336e-01
5.661249e-01
5.654448e-01
5.652046e-01
5.654455e-01
5.661215e-01
5.671277e-01
5.683279e-01
5.695920e-01
5.708678e-01
5.715200e-01
0.000000e+00
1.000000e+00
5.723039e-01
5.708330e-01
5.697080e-01
5.684846e-01
5.673236e-01
5.663474e-01
5.656894e-01
5.654564e-01
5.656895e-01
5.663447e-01
5.673181e-01
5.684795e-01
5.697029e-01
5.709316e-01
5.716041e-01
0.000000e+00
1.000000e+00
5.724084e-01
5.709439e-01
5.699016e-01
5.687496e-01
5.676565e-01
5.667373e-01
5.661177e-01
5.658981e-01
5.661172e-01
5.667350e-01
5.676515e-01
5.687446e-01
5.698970e-01
5.710490e-01
5.716621e-01
0.000000e+00
1.000000e+00
5.725011e-01
5.711060e-01
5.701637e-01
5.691086e-01
5.681073e-01
5.672654e-01
5.666979e-01
5.664966e-01
5.666968e-01
5.672629e-01
5.681024e-01
5.691033e-01
5.701595e-01
5.712033e-01
5.718242e-01
0.000000e+00
1.000000e+00
5.726107e-01
5.713029e-01
5.704774e-01
5.695384e-01
5.686472e-01
5.678980e-01
5.673930e-01
5.672139e-01
5.673919e-01
5.678953e-01
5.686425e-01
5.695330e-01
5.704729e-01
5.713896e-01
5.720115e-01
0.000000e+00
1.000000e+00
5.727456e-01
5.715212e-01
5.708257e-01
5.700158e-01
5.692471e-01
5.686010e-01
5.681658e-01
5.680115e-01
5.681651e-01
5.685991e-01
5.692434e-01
5.700110e-01
5.708212e-01
5.716120e-01
5.724730e-01
0.000000e+00
1.000000e+00
5.729753e-01
5.725644e-01
5.723619e-01
5.721181e-01
5.718861e-01
5.716918e-01
5.715618e-01
5.715105e-01
5.715573e-01
5.716859e-01
5.718796e-01
5.721110e-01
5.723548e-01
5.726455e-01
5.723283e-01
0.000000e+00
1.000000e+00
5.729163e-01
5.723906e-01
5.720972e-01
5.717559e-01
5.714314e-01
5.711597e-01
5.709773e-01
5.709078e-01
5.709732e-01
5.711538e-01
5.714253e-01
5.717494e-01
5.720909e-01
5.724901e-01
5.721790e-01
0.000000e+00
1.000000e+00
5.728369e-01
5.721904e-01
5.717920e-01
5.713376e-01
5.709058e-01
5.705430e-01
5.702994e-01
5.702087e-01
5.702962e-01
5.705369e-01
5.708987e-01
5.713302e-01
5.717848e-01
5.722947e-01
5.721163e-01
0.000000e+00
1.000000e+00
5.727456e-01
5.719657e-01
5.714516e-01
5.708717e-01
5.703206e-01
5.698569e-01
5.695453e-01
5.694321e-01
5.695435e-01
5.698513e-01
5.703129e-01
5.708636e-01
5.714440e-01
5.720817e-01
5.719933e-01
0.000000e+00
1.000000e+00
5.726407e-01
5.717300e-01
5.710901e-01
5.703765e-01
5.696989e-01
5.691282e-01
5.687432e-01
5.686081e-01
5.687432e-01
5.691233e-01
5.696908e-01
5.703680e-01
5.710821e-01
5.718483e-01
5.718843e-01
0.000000e+00
1.000000e+00
5.725223e-01
5.714980e-01
5.707252e-01
5.698769e-01
5.690715e-01
5.683932e-01
5.679331e-01
5.677761e-01
5.679365e-01
5.683888e-01
5.690634e-01
5.698681e-01
5.707169e-01
5.716126e-01
5.717644e-01
0.000000e+00
1.000000e+00
5.724200e-01
5.712757e-01
5.703786e-01
5.694027e-01
5.684761e-01
5.676957e-01
5.671663e-01
5.669862e-01
5.671718e-01
5.676911e-01
5.684683e-01
5.693940e-01
5.703705e-01
5.713841e-01
5.716949e-01
0.000000e+00
1.000000e+00
5.723423e-01
5.710764e-01
5.700748e-01
5.689867e-01
5.679538e-01
5.670839e-01
5.664955e-01
5.662929e-01
5.665012e-01
5.670799e-01
5.679460e-01
5.689784e-01
5.700668e-01
5.711852e-01
5.716271e-01
0.000000e+00
1.000000e+00
5.722737e-01
5.709245e-01
5.698364e-01
5.686601e-01
5.675436e-01
5.666036e-01
5.659696e-01
5.657480e-01
5.659742e-01
5.666009e-01
5.675358e-01
5.686523e-01
5.698287e-01
5.710264e-01
5.715692e-01
0.000000e+00
1.000000e+00
5.722481e-01
5.708213e-01
5.696816e-01
5.684482e-01
5.672773e-01
5.662928e-01
5.656290e-01
5.653950e-01
5.656322e-01
5.662910e-01
5.672703e-01
5.684408e-01
5.696744e-01
5.709187e-01
5.715238e-01
0.000000e+00
1.000000e+00
5.722522e-01
5.707795e-01
5.696221e-01
5.683669e-01
5.671759e-01
5.661745e-01
5.654990e-01
5.652600e-01
5.655006e-01
5.661728e-01
5.671694e-01
5.683598e-01
5.696155e-01
5.708687e-01
5.716062e-01
0.000000e+00
1.000000e+00
5.722785e-01
5.708067e-01
5.696620e-01
5.684216e-01
5.672447e-01
5.662549e-01
5.655873e-01
5.653506e-01
5.655876e-01
5.662533e-01
5.672386e-01
5.684142e-01
5.696555e-01
5.708902e-01
5.716626e-01
0.000000e+00
1.000000e+00
5.723443e-01
5.708882e-01
5.697961e-01
5.686049e-01
5.674747e-01
5.665243e-01
5.658834e-01
5.656560e-01
5.658827e-01
5.665225e-01
5.674693e-01
5.685979e-01
5.697897e-01
5.709717e-01
5.717346e-01
0.000000e+00
1.000000e+00
5.724393e-01
5.710200e-01
5.700122e-01
5.689011e-01
5.678466e-01
5.669600e-01
5.663622e-01
5.661500e-01
5.663609e-01
5.669575e-01
5.678418e-01
5.688946e-01
5.700061e-01
5.711059e-01
5.718190e-01
0.000000e+00
1.000000e+00
5.725610e-01
5.711889e-01
5.702951e-01
5.692886e-01
5.683333e-01
5.675302e-01
5.669887e-01
5.667964e-01
5.669871e-01
5.675272e-01
5.683287e-01
5.692825e-01
5.702889e-01
5.712795e-01
5.719827e-01
0.000000e+00
1.000000e+00
5.726677e-01
5.713974e-01
5.706267e-01
5.697429e-01
5.689041e-01
5.681989e-01
5.677235e-01
5.675548e-01
5.677222e-01
5.681960e-01
5.688996e-01
5.697372e-01
5.706206e-01
5.714889e-01
5.721721e-01
0.000000e+00
1.000000e+00
5.727830e-01
5.716324e-01
5.709892e-01
5.702399e-01
5.695286e-01
5.689307e-01
5.685279e-01
5.683852e-01
5.685273e-01
5.689290e-01
5.695253e-01
5.702357e-01
5.709842e-01
5.717238e-01
5.723356e-01
0.000000e+00
1.000000e+00
5.730054e-01
5.725663e-01
5.723702e-01
5.721294e-01
5.719004e-01
5.717079e-01
5.715810e-01
5.715303e-01
5.715752e-01
5.717028e-01
5.718931e-01
5.721215e-01
5.723623e-01
5.726387e-01
5.724529e-01
0.000000e+00
1.000000e+00
5.729520e-01
5.723986e-01
5.721174e-01
5.717836e-01
5.714663e-01
5.712000e-01
5.710233e-01
5.709550e-01
5.710175e-01
5.711955e-01
5.714596e-01
5.717765e-01
5.721106e-01
5.724871e-01
5.722089e-01
0.000000e+00
1.000000e+00
5.728659e-01
5.722085e-01
5.718248e-01
5.713826e-01
5.709623e-01
5.706090e-01
5.703731e-01
5.702846e-01
5.703673e-01
5.706043e-01
5.709545e-01
5.713743e-01
5.718172e-01
5.722923e-01
5.722229e-01
0.000000e+00
1.000000e+00
5.727870e-01
5.719911e-01
5.714970e-01
5.709338e-01
5.703987e-01
5.699484e-01
5.696456e-01
5.695359e-01
5.696422e-01
5.699443e-01
5.703906e-01
5.709249e-01
5.714886e-01
5.720875e-01
5.720603e-01
0.000000e+00
1.000000e+00
5.726914e-01
5.717606e-01
5.711479e-01
5.704557e-01
5.697984e-01
5.692450e-01
5.688708e-01
5.687383e-01
5.688703e-01
5.692407e-01
5.697906e-01
5.704465e-01
5.711390e-01
5.718541e-01
5.719973e-01
0.000000e+00
1.000000e+00
5.725773e-01
5.715374e-01
5.707955e-01
5.699731e-01
5.691924e-01
5.685352e-01
5.680895e-01
5.679321e-01
5.680917e-01
5.685312e-01
5.691848e-01
5.699639e-01
5.707861e-01
5.716222e-01
5.719345e-01
0.000000e+00
1.000000e+00
5.724846e-01
5.713214e-01
5.704617e-01
5.695163e-01
5.686188e-01
5.678633e-01
5.673510e-01
5.671683e-01
5.673543e-01
5.678604e-01
5.686107e-01
5.695073e-01
5.704523e-01
5.714022e-01
5.718733e-01
0.000000e+00
1.000000e+00
5.724009e-01
5.711322e-01
5.701710e-01
5.691184e-01
5.681191e-01
5.672779e-01
5.667081e-01
5.665051e-01
5.667117e-01
5.672771e-01
5.681113e-01
5.691092e-01
5.701618e-01
5.712143e-01
5.717839e-01
0.000000e+00
1.000000e+00
5.723318e-01
5.709908e-01
5.699464e-01
5.688107e-01
5.677326e-01
5.668251e-01
5.662119e-01
5.659941e-01
5.662140e-01
5.668258e-01
5.677263e-01
5.688012e-01
5.699374e-01
5.710680e-01
5.717031e-01
0.000000e+00
1.000000e+00
5.723002e-01
5.708994e-01
5.698061e-01
5.686186e-01
5.674913e-01
5.665431e-01
5.659035e-01
5.656762e-01
5.659038e-01
5.665443e-01
5.674870e-01
5.686098e-01
5.697973e-01
5.709737e-01
5.716888e-01
0.000000e+00
1.000000e+00
5.723039e-01
5.708708e-01
5.697615e-01
5.685577e-01
5.674156e-01
5.664553e-01
5.658074e-01
5.655768e-01
5.658062e-01
5.664548e-01
5.674121e-01
5.685503e-01
5.697529e-01
5.709401e-01
5.717474e-01
0.000000e+00
1.000000e+00
5.723489e-01
5.709027e-01
5.698165e-01
5.686333e-01
5.675104e-01
5.665661e-01
5.659290e-01
5.657024e-01
5.659271e-01
5.665640e-01
5.675067e-01
5.686261e-01
5.698079e-01
5.709757e-01
5.717603e-01
0.000000e+00
1.000000e+00
5.724139e-01
5.709939e-01
5.699648e-01
5.688359e-01
5.677647e-01
5.668639e-01
5.662564e-01
5.660403e-01
5.662543e-01
5.668610e-01
5.677608e-01
5.688295e-01
5.699566e-01
5.710685e-01
5.718255e-01
0.000000e+00
1.000000e+00
5.724915e-01
5.711392e-01
5.701932e-01
5.691488e-01
5.681577e-01
5.673244e-01
5.667624e-01
5.665626e-01
5.667604e-01
5.673210e-01
5.681533e-01
5.691432e-01
5.701860e-01
5.712142e-01
5.718995e-01
0.000000e+00
1.000000e+00
5.725969e-01
5.713225e-01
5.704858e-01
5.695497e-01
5.686612e-01
5.679142e-01
5.674105e-01
5.672315e-01
5.674087e-01
5.679107e-01
5.686565e-01
5.695444e-01
5.704794e-01
5.713984e-01
5.720256e-01
0.000000e+00
1.000000e+00
5.726971e-01
5.715373e-01
5.708241e-01
5.700132e-01
5.692435e-01
5.685964e-01
5.681602e-01
5.680054e-01
5.681589e-01
5.685936e-01
5.692392e-01
5.700083e-01
5.708185e-01
5.716143e-01
5.721435e-01
0.000000e+00
1.000000e+00
5.728221e-01
5.717725e-01
5.711901e-01
5.705149e-01
5.698740e-01
5.693352e-01
5.689723e-01
5.688437e-01
5.689718e-01
5.693339e-01
5.698713e-01
5.705114e-01
5.711861e-01
5.718356e-01
5.721953e-01
0.000000e+00
1.000000e+00
5.730332e-01
5.726221e-01
5.724530e-01
5.722430e-01
5.720430e-01
5.718746e-01
5.717622e-01
5.717230e-01
5.717586e-01
5.718698e-01
5.720361e-01
5.722343e-01
5.724443e-01
5.726835e-01
5.727259e-01
0.000000e+00
1.000000e+00
5.729720e-01
5.724689e-01
5.722188e-01
5.719224e-01
5.716408e-01
5.714039e-01
5.712457e-01
5.711902e-01
5.712413e-01
5.713999e-01
5.716350e-01
5.719148e-01
5.722111e-01
5.725290e-01
5.722276e-01
0.000000e+00
1.000000e+00
5.729046e-01
5.722895e-01
5.719456e-01
5.715479e-01
5.711701e-01
5.708521e-01
5.706385e-01
5.705634e-01
5.706334e-01
5.708464e-01
5.711633e-01
5.715392e-01
5.719369e-01
5.723327e-01
5.723747e-01
0.000000e+00
1.000000e+00
5.728390e-01
5.720838e-01
5.716370e-01
5.711254e-01
5.706395e-01
5.702304e-01
5.699547e-01
5.698571e-01
5.699504e-01
5.702247e-01
5.706324e-01
5.711167e-01
5.716276e-01
5.721399e-01
5.721908e-01
0.000000e+00
1.000000e+00
5.727577e-01
5.718641e-01
5.713066e-01
5.706731e-01
5.700714e-01
5.695648e-01
5.692228e-01
5.691002e-01
5.692196e-01
5.695591e-01
5.700632e-01
5.706648e-01
5.712974e-01
5.719160e-01
5.721117e-01
0.000000e+00
1.000000e+00
5.726385e-01
5.716531e-01
5.709719e-01
5.702147e-01
5.694958e-01
5.688907e-01
5.684817e-01
5.683339e-01
5.684781e-01
5.688851e-01
5.694874e-01
5.702061e-01
5.709630e-01
5.716959e-01
5.720426e-01
0.000000e+00
1.000000e+00
5.725475e-01
5.714500e-01
5.706546e-01
5.697802e-01
5.689503e-01
5.682517e-01
5.677795e-01
5.676083e-01
5.677734e-01
5.682465e-01
5.689427e-01
5.697706e-01
5.706459e-01
5.714873e-01
5.719193e-01
0.000000e+00
1.000000e+00
5.724774e-01
5.712684e-01
5.703784e-01
5.694023e-01
5.684756e-01
5.676958e-01
5.671685e-01
5.669780e-01
5.671615e-01
5.676909e-01
5.684698e-01
5.693938e-01
5.703695e-01
5.713104e-01
5.718214e-01
0.000000e+00
1.000000e+00
5.724109e-01
5.711330e-01
5.701665e-01
5.691119e-01
5.681110e-01
5.672686e-01
5.666991e-01
5.664947e-01
5.666932e-01
5.672633e-01
5.681070e-01
5.691060e-01
5.701577e-01
5.711780e-01
5.717382e-01
0.000000e+00
1.000000e+00
5.723784e-01
5.710482e-01
5.700367e-01
5.689342e-01
5.678876e-01
5.670070e-01
5.664126e-01
5.662005e-01
5.664086e-01
5.670028e-01
5.678854e-01
5.689303e-01
5.700294e-01
5.710996e-01
5.717494e-01
0.000000e+00
1.000000e+00
5.723730e-01
5.710268e-01
5.700000e-01
5.688842e-01
5.678254e-01
5.669350e-01
5.663345e-01
5.661205e-01
5.663311e-01
5.669310e-01
5.678232e-01
5.688821e-01
5.699945e-01
5.710755e-01
5.717877e-01
0.000000e+00
1.000000e+00
5.724231e-01
5.710635e-01
5.700604e-01
5.689673e-01
5.679301e-01
5.670577e-01
5.664692e-01
5.662595e-01
5.664659e-01
5.670529e-01
5.679263e-01
5.689649e-01
5.700555e-01
5.711169e-01
5.718052e-01
0.000000e+00
1.000000e+00
5.724850e-01
5.711577e-01
5.702119e-01
5.691743e-01
5.681896e-01
5.673616e-01
5.668031e-01
5.666043e-01
5.668003e-01
5.673570e-01
5.681849e-01
5.691707e-01
5.702068e-01
5.712144e-01
5.718602e-01
0.000000e+00
1.000000e+00
5.725569e-01
5.713030e-01
5.704405e-01
5.694873e-01
5.685828e-01
5.678222e-01
5.673093e-01
5.671268e-01
5.673070e-01
5.678181e-01
5.685777e-01
5.694830e-01
5.704358e-01
5.713640e-01
5.719420e-01
0.000000e+00
1.000000e+00
5.726427e-01
5.714885e-01
5.707302e-01
5.698842e-01
5.690813e-01
5.684062e-01
5.679510e-01
5.677892e-01
5.679492e-01
5.684027e-01
5.690765e-01
5.698795e-01
5.707255e-01
5.715481e-01
5.720581e-01
0.000000e+00
1.000000e+00
5.727632e-01
5.716954e-01
5.710628e-01
5.703399e-01
5.696539e-01
5.690770e-01
5.686882e-01
5.685502e-01
5.686870e-01
5.690745e-01
5.696500e-01
5.703356e-01
5.710582e-01
5.717567e-01
5.721196e-01
0.000000e+00
1.000000e+00
5.728953e-01
5.719216e-01
5.714207e-01
5.708305e-01
5.702703e-01
5.697994e-01
5.694822e-01
5.693698e-01
5.694818e-01
5.697984e-01
5.702682e-01
5.708277e-01
5.714171e-01
5.719579e-01
5.719872e-01
0.000000e+00
1.000000e+00
5.730430e-01
5.727293e-01
5.726134e-01
5.724622e-01
5.723179e-01
5.721961e-01
5.721141e-01
5.720864e-01
5.721142e-01
5.721911e-01
5.723091e-01
5.724535e-01
5.726035e-01
5.727958e-01
5.730524e-01
0.000000e+00
1.000000e+00
5.730205e-01
5.725923e-01
5.724020e-01
5.721735e-01
5.719560e-01
5.717728e-01
5.716496e-01
5.716078e-01
5.716506e-01
5.717693e-01
5.719498e-01
5.721679e-01
5.723951e-01
5.726124e-01
5.721451e-01
0.000000e+00
1.000000e+00
5.729647e-01
5.724278e-01
5.721544e-01
5.718339e-01
5.715293e-01
5.712727e-01
5.710998e-01
5.710394e-01
5.710994e-01
5.712666e-01
5.715212e-01
5.718268e-01
5.721458e-01
5.724243e-01
5.724297e-01
0.000000e+00
1.000000e+00
5.728953e-01
5.722418e-01
5.718714e-01
5.714463e-01
5.710425e-01
5.707024e-01
5.704729e-01
5.703915e-01
5.704715e-01
5.706958e-01
5.710336e-01
5.714379e-01
5.718628e-01
5.722545e-01
5.721850e-01
0.000000e+00
1.000000e+00
5.728102e-01
5.720431e-01
5.715653e-01
5.710272e-01
5.705162e-01
5.700860e-01
5.697953e-01
5.696915e-01
5.697923e-01
5.700799e-01
5.705068e-01
5.710167e-01
5.715581e-01
5.720506e-01
5.721232e-01
0.000000e+00
1.000000e+00
5.727199e-01
5.718410e-01
5.712528e-01
5.705993e-01
5.699789e-01
5.694566e-01
5.691037e-01
5.689774e-01
5.690991e-01
5.694496e-01
5.699693e-01
5.705880e-01
5.712432e-01
5.718418e-01
5.720793e-01
0.000000e+00
1.000000e+00
5.726343e-01
5.716488e-01
5.709545e-01
5.701910e-01
5.694661e-01
5.688560e-01
5.684439e-01
5.682962e-01
5.684379e-01
5.688464e-01
5.694569e-01
5.701810e-01
5.709422e-01
5.716370e-01
5.719286e-01
0.000000e+00
1.000000e+00
5.725659e-01
5.714793e-01
5.706935e-01
5.698336e-01
5.690173e-01
5.683304e-01
5.678664e-01
5.677000e-01
5.678596e-01
5.683189e-01
5.690065e-01
5.698239e-01
5.706824e-01
5.714496e-01
5.718121e-01
0.000000e+00
1.000000e+00
5.725104e-01
5.713478e-01
5.704917e-01
5.695574e-01
5.686704e-01
5.679241e-01
5.674200e-01
5.672391e-01
5.674132e-01
5.679121e-01
5.686574e-01
5.695481e-01
5.704833e-01
5.713055e-01
5.717387e-01
0.000000e+00
1.000000e+00
5.724836e-01
5.712634e-01
5.703671e-01
5.693868e-01
5.684562e-01
5.676731e-01
5.671442e-01
5.669549e-01
5.671384e-01
5.676624e-01
5.684438e-01
5.693782e-01
5.703600e-01
5.712262e-01
5.717266e-01
0.000000e+00
1.000000e+00
5.724700e-01
5.712405e-01
5.703306e-01
5.693368e-01
5.683936e-01
5.676001e-01
5.670647e-01
5.668736e-01
5.670604e-01
5.675923e-01
5.683840e-01
5.693298e-01
5.703267e-01
5.712144e-01
5.717452e-01
0.000000e+00
1.000000e+00
5.724971e-01
5.712793e-01
5.703854e-01
5.694123e-01
5.684889e-01
5.677124e-01
5.671887e-01
5.670022e-01
5.671855e-01
5.677066e-01
5.684817e-01
5.694071e-01
5.703832e-01
5.712727e-01
5.717723e-01
0.000000e+00
1.000000e+00
5.725564e-01
5.713706e-01
5.705279e-01
5.696072e-01
5.687335e-01
5.679987e-01
5.675030e-01
5.673266e-01
5.675003e-01
5.679935e-01
5.687268e-01
5.696018e-01
5.705249e-01
5.713974e-01
5.719365e-01
0.000000e+00
1.000000e+00
5.726309e-01
5.715062e-01
5.707439e-01
5.699028e-01
5.691046e-01
5.684333e-01
5.679807e-01
5.678196e-01
5.679785e-01
5.684293e-01
5.690990e-01
5.698976e-01
5.707400e-01
5.715526e-01
5.720487e-01
0.000000e+00
1.000000e+00
5.727267e-01
5.716763e-01
5.710177e-01
5.702778e-01
5.695756e-01
5.689852e-01
5.685871e-01
5.684456e-01
5.685855e-01
5.689821e-01
5.695712e-01
5.702733e-01
5.710134e-01
5.717237e-01
5.721342e-01
0.000000e+00
1.000000e+00
5.728277e-01
5.718728e-01
5.713322e-01
5.707087e-01
5.701169e-01
5.696194e-01
5.692841e-01