<?xml version="1.0"?>
<VTKFile type="StructuredGrid" version="0.1">
  <StructuredGrid WholeExtent="0 16 0 16 0 16">
    <Piece Extent="0 16 0 16 0 16">
      <PointData Scalars="temperature" Vectors="velocity">
        <DataArray type="Float32" Name="temperature" format="ascii">
1.000000e+00
5.813628e-01
5.882218e-01
5.972551e-01
6.062126e-01
6.147151e-01
6.218731e-01
6.267179e-01
6.284746e-01
6.268434e-01
6.221177e-01
6.150941e-01
6.065563e-01
5.975714e-01
5.887801e-01
5.796242e-01
0.000000e+00
1.000000e+00
5.803935e-01
5.864998e-01
5.944661e-01
6.023908e-01
6.099121e-01
6.162421e-01
6.205224e-01
6.220687e-01
6.206210e-01
6.164500e-01
6.102369e-01
6.026908e-01
5.947785e-01
5.870072e-01
5.789507e-01
0.000000e+00
1.000000e+00
5.792605e-01
5.845336e-01
5.912842e-01
5.980316e-01
6.044347e-01
6.098216e-01
6.134603e-01
6.147677e-01
6.135254e-01
6.099848e-01
6.046878e-01
5.982746e-01
5.915715e-01
5.849677e-01
5.779304e-01
0.000000e+00
1.000000e+00
5.780448e-01
5.823495e-01
5.877857e-01
5.932409e-01
5.984168e-01
6.027697e-01
6.057071e-01
6.067563e-01
6.057416e-01
6.028794e-01
5.986044e-01
5.934485e-01
5.880690e-01
5.827274e-01
5.770297e-01
0.000000e+00
1.000000e+00
5.767756e-01
5.800267e-01
5.840863e-01
5.881760e-01
5.920558e-01
5.953176e-01
5.975165e-01
5.982977e-01
5.975290e-01
5.953738e-01
5.921789e-01
5.883487e-01
5.843597e-01
5.803561e-01
5.759066e-01
0.000000e+00
1.000000e+00
5.754881e-01
5.776622e-01
5.803350e-01
5.830398e-01
5.856055e-01
5.877623e-01
5.892158e-01
5.897295e-01
5.892149e-01
5.877777e-01
5.856657e-01
5.831696e-01
5.805942e-01
5.779561e-01
5.747694e-01
0.000000e+00
1.000000e+00
5.742512e-01
5.753625e-01
5.767061e-01
5.780712e-01
5.793672e-01
5.804578e-01
5.811927e-01
5.814495e-01
5.811826e-01
5.804458e-01
5.793792e-01
5.781503e-01
5.769236e-01
5.756209e-01
5.737290e-01
0.000000e+00
1.000000e+00
5.731568e-01
5.732422e-01
5.733812e-01
5.735187e-01
5.736508e-01
5.737632e-01
5.738389e-01
5.738623e-01
5.738281e-01
5.737435e-01
5.736518e-01
5.735801e-01
5.735421e-01
5.734551e-01
5.726592e-01
0.000000e+00
1.000000e+00
5.724195e-01
5.714322e-01
5.705309e-01
5.696169e-01
5.687526e-01
5.680289e-01
5.675433e-01
5.673713e-01
5.675426e-01
5.680308e-01
5.687860e-01
5.696819e-01
5.706712e-01
5.716296e-01
5.713645e-01
0.000000e+00
1.000000e+00
5.718355e-01
5.700171e-01
5.683030e-01
5.665667e-01
5.649231e-01
5.635454e-01
5.626210e-01
5.622981e-01
5.626341e-01
5.635747e-01
5.649821e-01
5.666443e-01
5.684349e-01
5.702203e-01
5.703648e-01
0.000000e+00
1.000000e+00
5.711305e-01
5.690328e-01
5.667936e-01
5.645000e-01
5.623284e-01
5.605078e-01
5.592857e-01
5.588597e-01
5.593063e-01
5.605509e-01
5.623995e-01
5.645909e-01
5.669127e-01
5.692582e-01
5.697552e-01
0.000000e+00
1.000000e+00
5.708242e-01
5.685513e-01
5.660433e-01
5.634735e-01
5.610403e-01
5.590006e-01
5.576325e-01
5.571574e-01
5.576602e-01
5.590528e-01
5.611136e-01
5.635742e-01
5.661578e-01
5.688194e-01
5.691895e-01
0.000000e+00
1.000000e+00
5.708016e-01
5.685565e-01
5.660414e-01
5.634708e-01
5.610369e-01
5.589968e-01
5.576290e-01
5.571553e-01
5.576613e-01
5.590598e-01
5.611145e-01
5.635804e-01
5.661570e-01
5.688484e-01
5.693227e-01
0.000000e+00
1.000000e+00
5.710004e-01
5.690015e-01
5.667287e-01
5.644112e-01
5.622167e-01
5.603774e-01
5.591444e-01
5.587178e-01
5.591754e-01
5.604411e-01
5.623000e-01
5.645295e-01
5.668505e-01
5.693059e-01
5.697239e-01
0.000000e+00
1.000000e+00
5.713943e-01
5.698233e-01
5.680078e-01
5.661619e-01
5.644139e-01
5.629487e-01
5.619663e-01
5.616260e-01
5.619905e-01
5.630016e-01
5.644948e-01
5.662994e-01
5.681433e-01
5.700788e-01
5.708852e-01
0.000000e+00
1.000000e+00
5.719517e-01
5.709463e-01
5.697608e-01
5.685619e-01
5.674264e-01
5.664746e-01
5.658360e-01
5.656135e-01
5.658478e-01
5.665039e-01
5.674843e-01
5.687283e-01
5.699254e-01
5.713610e-01
5.718645e-01
0.000000e+00
1.000000e+00
5.726444e-01
5.722889e-01
5.718634e-01
5.714406e-01
5.710405e-01
5.707055e-01
5.704803e-01
5.704000e-01
5.704780e-01
5.707043e-01
5.710519e-01
5.716106e-01
5.720491e-01
5.733835e-01
5.681868e-01
0.000000e+00
1.000000e+00
5.823038e-01
5.898354e-01
5.998333e-01
6.097433e-01
6.191512e-01
6.270748e-01
6.324434e-01
6.344011e-01
6.326072e-01
6.273500e-01
6.195934e-01
6.101459e-01
6.001557e-01
5.903950e-01
5.808100e-01
0.000000e+00
1.000000e+00
5.813512e-01
5.882428e-01
5.972382e-01
6.061845e-01
6.146764e-01
6.218258e-01
6.266653e-01
6.284266e-01
6.268096e-01
6.220585e-01
6.150805e-01
6.065558e-01
5.975700e-01
5.887489e-01
5.799245e-01
0.000000e+00
1.000000e+00
5.802624e-01
5.863665e-01
5.941999e-01
6.020220e-01
6.094450e-01
6.156916e-01
6.199151e-01
6.214436e-01
6.200220e-01
6.158855e-01
6.097772e-01
6.023213e-01
5.944968e-01
5.868023e-01
5.789822e-01
0.000000e+00
1.000000e+00
5.790653e-01
5.842392e-01
5.907872e-01
5.973491e-01
6.035748e-01
6.088117e-01
6.123484e-01
6.136196e-01
6.124165e-01
6.089594e-01
6.038304e-01
5.975966e-01
5.910696e-01
5.846190e-01
5.780283e-01
0.000000e+00
1.000000e+00
5.778024e-01
5.819353e-01
5.871136e-01
5.923200e-01
5.972588e-01
6.014116e-01
6.042136e-01
6.052145e-01
6.042484e-01
6.015078e-01
5.974430e-01
5.925247e-01
5.873798e-01
5.822660e-01
5.769040e-01
0.000000e+00
1.000000e+00
5.765084e-01
5.795548e-01
5.833324e-01
5.871434e-01
5.907582e-01
5.937968e-01
5.958452e-01
5.965734e-01
5.958582e-01
5.938462e-01
5.908748e-01
5.873069e-01
5.835816e-01
5.798437e-01
5.757584e-01
0.000000e+00
1.000000e+00
5.752423e-01
5.772131e-01
5.796268e-01
5.820698e-01
5.843873e-01
5.863353e-01
5.876478e-01
5.881118e-01
5.876471e-01
5.863482e-01
5.844407e-01
5.821845e-01
5.798529e-01
5.774702e-01
5.746278e-01
0.000000e+00
1.000000e+00
5.740950e-01
5.750309e-01
5.761918e-01
5.773669e-01
5.784820e-01
5.794191e-01
5.800495e-01
5.802694e-01
5.800404e-01
5.794070e-01
5.784913e-01
5.774296e-01
5.763654e-01
5.752482e-01
5.736806e-01
0.000000e+00
1.000000e+00
5.731862e-01
5.731402e-01
5.732187e-01
5.732957e-01
5.733698e-01
5.734323e-01
5.734741e-01
5.734857e-01
5.734639e-01
5.734154e-01
5.733737e-01
5.733346e-01
5.733347e-01
5.733064e-01
5.728215e-01
0.000000e+00
1.000000e+00
5.725975e-01
5.716487e-01
5.708666e-01
5.700759e-01
5.693275e-01
5.686998e-01
5.682779e-01
5.681284e-01
5.682763e-01
5.686999e-01
5.693521e-01
5.701163e-01
5.709609e-01
5.717811e-01
5.720459e-01
0.000000e+00
1.000000e+00
5.719182e-01
5.706017e-01
5.692478e-01
5.678588e-01
5.665436e-01
5.654406e-01
5.646999e-01
5.644412e-01
5.647099e-01
5.654610e-01
5.665863e-01
5.679144e-01
5.693343e-01
5.707241e-01
5.716654e-01
0.000000e+00
1.000000e+00
5.715757e-01
5.700642e-01
5.684111e-01
5.667144e-01
5.651076e-01
5.637601e-01
5.628556e-01
5.625408e-01
5.628716e-01
5.637910e-01
5.651562e-01
5.667846e-01
5.684960e-01
5.702231e-01
5.711206e-01
0.000000e+00
1.000000e+00
5.715257e-01
5.700289e-01
5.683470e-01
5.666270e-01
5.649984e-01
5.636330e-01
5.627171e-01
5.623997e-01
5.627384e-01
5.636754e-01
5.650529e-01
5.667113e-01
5.684388e-01
5.702577e-01
5.709517e-01
0.000000e+00
1.000000e+00
5.717194e-01
5.704481e-01
5.689943e-01
5.675128e-01
5.661100e-01
5.649339e-01
5.641451e-01
5.638718e-01
5.641642e-01
5.649756e-01
5.661694e-01
5.676127e-01
5.691026e-01
5.707563e-01
5.708214e-01
0.000000e+00
1.000000e+00
5.721141e-01
5.712540e-01
5.702499e-01
5.692315e-01
5.682670e-01
5.674585e-01
5.669159e-01
5.667270e-01
5.669267e-01
5.674850e-01
5.683166e-01
5.693539e-01
5.703753e-01
5.715800e-01
5.715937e-01
0.000000e+00
1.000000e+00
5.726768e-01
5.723661e-01
5.719883e-01
5.716113e-01
5.712545e-01
5.709556e-01
5.707546e-01
5.706831e-01
5.707534e-01
5.709568e-01
5.712702e-01
5.717486e-01
5.721332e-01
5.729384e-01
5.718774e-01
0.000000e+00
1.000000e+00
5.733718e-01
5.736988e-01
5.740780e-01
5.744725e-01
5.748468e-01
5.751613e-01
5.753722e-01
5.754436e-01
5.753611e-01
5.751404e-01
5.748229e-01
5.745758e-01
5.742233e-01
5.746067e-01
5.681141e-01
0.000000e+00
1.000000e+00
5.830023e-01
5.912083e-01
6.019681e-01
6.126631e-01
6.228185e-01
6.313755e-01
6.371803e-01
6.393099e-01
6.373841e-01
6.316949e-01
6.233224e-01
6.131242e-01
6.022798e-01
5.917432e-01
5.814230e-01
0.000000e+00
1.000000e+00
5.821156e-01
5.897355e-01
5.995762e-01
6.093837e-01
6.186943e-01
6.265370e-01
6.318533e-01
6.338011e-01
6.320351e-01
6.268083e-01
6.191678e-01
6.098141e-01
5.998979e-01
5.902339e-01
5.805434e-01
0.000000e+00
1.000000e+00
5.811073e-01
5.879480e-01
5.966964e-01
6.054387e-01
6.137357e-01
6.207210e-01
6.254505e-01
6.271748e-01
6.255951e-01
6.209548e-01
6.141396e-01
6.057817e-01
5.969803e-01
5.883833e-01
5.796568e-01
0.000000e+00
1.000000e+00
5.799496e-01
5.858840e-01
5.933890e-01
6.009103e-01
6.080465e-01
6.140514e-01
6.181115e-01
6.195815e-01
6.182150e-01
6.142408e-01
6.083654e-01
6.011871e-01
5.936554e-01
5.862669e-01
5.787343e-01
0.000000e+00
1.000000e+00
5.787018e-01
5.836091e-01
5.897622e-01
5.959454e-01
6.018109e-01
6.067442e-01
6.100757e-01
6.112731e-01
6.101394e-01
6.068832e-01
6.020498e-01
5.961701e-01
5.900123e-01
5.839420e-01
5.776263e-01
0.000000e+00
1.000000e+00
5.774078e-01
5.812223e-01
5.859705e-01
5.907549e-01
5.952928e-01
5.991081e-01
6.016820e-01
6.026012e-01
6.017128e-01
5.991936e-01
5.954599e-01
5.909336e-01
5.861978e-01
5.815121e-01
5.764634e-01
0.000000e+00
1.000000e+00
5.761253e-01
5.788450e-01
5.822049e-01
5.855998e-01
5.888196e-01
5.915260e-01
5.933502e-01
5.939981e-01
5.933591e-01
5.915628e-01
5.889208e-01
5.857345e-01
5.824084e-01
5.790944e-01
5.753257e-01
0.000000e+00
1.000000e+00
5.749303e-01
5.766055e-01
5.786741e-01
5.807655e-01
5.827491e-01
5.844158e-01
5.855383e-01
5.859347e-01
5.855370e-01
5.844239e-01
5.827921e-01
5.808493e-01
5.788489e-01
5.768318e-01
5.742477e-01
0.000000e+00
1.000000e+00
5.739249e-01
5.746439e-01
5.755880e-01
5.765390e-01
5.774408e-01
5.781982e-01
5.787073e-01
5.788845e-01
5.786989e-01
5.781888e-01
5.774447e-01
5.765693e-01
5.757031e-01
5.748343e-01
5.732963e-01
0.000000e+00
1.000000e+00
5.732408e-01
5.730793e-01
5.731193e-01
5.731595e-01
5.731980e-01
5.732301e-01
5.732508e-01
5.732550e-01
5.732409e-01
5.732158e-01
5.731951e-01
5.731698e-01
5.731859e-01
5.732371e-01
5.724827e-01
0.000000e+00
1.000000e+00
5.726231e-01
5.719748e-01
5.713972e-01
5.708008e-01
5.702358e-01
5.697616e-01
5.694426e-01
5.693297e-01
5.694413e-01
5.697603e-01
5.702478e-01
5.708188e-01
5.714458e-01
5.721229e-01
5.720629e-01
0.000000e+00
1.000000e+00
5.722653e-01
5.713824e-01
5.704748e-01
5.695386e-01
5.686519e-01
5.679079e-01
5.674079e-01
5.672332e-01
5.674146e-01
5.679212e-01
5.686764e-01
5.695776e-01
5.705245e-01
5.715998e-01
5.713669e-01
0.000000e+00
1.000000e+00
5.721682e-01
5.713065e-01
5.703504e-01
5.693689e-01
5.684394e-01
5.676599e-01
5.671368e-01
5.669550e-01
5.671475e-01
5.676821e-01
5.684697e-01
5.694250e-01
5.704086e-01
5.716572e-01
5.709329e-01
0.000000e+00
1.000000e+00
5.723472e-01
5.716990e-01
5.709561e-01
5.701983e-01
5.694808e-01
5.688793e-01
5.684757e-01
5.683356e-01
5.684849e-01
5.689010e-01
5.695160e-01
5.702746e-01
5.710305e-01
5.721462e-01
5.709046e-01
0.000000e+00
1.000000e+00
5.727420e-01
5.724879e-01
5.721858e-01
5.718817e-01
5.715940e-01
5.713529e-01
5.711909e-01
5.711338e-01
5.711919e-01
5.713586e-01
5.716140e-01
5.719731e-01
5.722777e-01
5.729139e-01
5.717230e-01
0.000000e+00
1.000000e+00
5.733060e-01
5.735878e-01
5.739070e-01
5.742382e-01
5.745523e-01
5.748162e-01
5.749931e-01
5.750533e-01
5.749848e-01
5.748015e-01
5.745417e-01
5.743209e-01
5.740130e-01
5.741388e-01
5.715752e-01
0.000000e+00
1.000000e+00
5.740021e-01
5.749095e-01
5.759817e-01
5.770789e-01
5.781190e-01
5.789923e-01
5.795791e-01
5.797828e-01
5.795661e-01
5.789685e-01
5.780924e-01
5.771261e-01
5.760958e-01
5.755430e-01
5.694068e-01
0.000000e+00
1.000000e+00
5.835112e-01
5.922206e-01
6.035362e-01
6.148047e-01
6.255026e-01
6.345208e-01
6.406458e-01
6.429027e-01
6.408802e-01
6.348948e-01
6.260547e-01
6.153183e-01
6.038434e-01
5.927225e-01
5.818688e-01
0.000000e+00
1.000000e+00
5.826894e-01
5.908747e-01
6.013439e-01
6.118011e-01
6.217272e-01
6.300917e-01
6.357685e-01
6.378568e-01
6.359744e-01
6.304129e-01
6.222538e-01
6.122951e-01
6.016737e-01
5.913415e-01
5.810550e-01
0.000000e+00
1.000000e+00
5.817202e-01
5.891851e-01
5.986245e-01
6.080769e-01
6.170477e-01
6.246027e-01
6.297237e-01
6.315992e-01
6.298910e-01
6.248837e-01
6.175128e-01
6.084745e-01
5.989124e-01
5.895953e-01
5.802051e-01
0.000000e+00
1.000000e+00
5.806123e-01
5.871855e-01
5.954297e-01
6.037034e-01
6.115533e-01
6.181604e-01
6.226323e-01
6.242595e-01
6.227556e-01
6.183944e-01
6.119300e-01
6.040161e-01
5.956916e-01
5.875533e-01
5.793164e-01
0.000000e+00
1.000000e+00
5.793930e-01
5.849436e-01
5.918612e-01
5.988186e-01
6.054183e-01
6.109702e-01
6.147227e-01
6.160782e-01
6.148029e-01
6.111505e-01
6.057064e-01
5.990649e-01
5.921053e-01
5.852646e-01
5.782190e-01
0.000000e+00
1.000000e+00
5.781069e-01
5.825560e-01
5.880730e-01
5.936331e-01
5.989066e-01
6.033410e-01
6.063345e-01
6.074080e-01
6.063783e-01
6.034628e-01
5.991138e-01
5.938261e-01
5.882901e-01
5.828373e-01
5.770568e-01
0.000000e+00
1.000000e+00
5.768201e-01
5.801448e-01
5.842614e-01
5.884159e-01
5.923561e-01
5.956681e-01
5.979014e-01
5.986967e-01
5.979184e-01
5.957326e-01
5.924950e-01
5.885640e-01
5.844511e-01
5.803876e-01
5.758930e-01
0.000000e+00
1.000000e+00
5.756050e-01
5.778554e-01
5.806490e-01
5.834696e-01
5.861446e-01
5.883927e-01
5.899077e-01
5.904454e-01
5.899127e-01
5.884161e-01
5.862254e-01
5.835771e-01
5.808083e-01
5.780662e-01
5.747933e-01
0.000000e+00
1.000000e+00
5.745460e-01
5.758339e-01
5.774615e-01
5.791040e-01
5.806615e-01
5.819699e-01
5.828508e-01
5.831615e-01
5.828487e-01
5.819710e-01
5.806864e-01
5.791572e-01
5.775826e-01
5.760093e-01
5.738429e-01
0.000000e+00
1.000000e+00
5.737783e-01
5.742026e-01
5.748865e-01
5.755784e-01
5.762345e-01
5.767853e-01
5.771553e-01
5.772839e-01
5.771491e-01
5.767779e-01
5.762309e-01
5.755859e-01
5.749454e-01
5.743397e-01
5.729660e-01
0.000000e+00
1.000000e+00
5.731800e-01
5.730435e-01
5.730712e-01
5.730927e-01
5.731131e-01
5.731299e-01
5.731405e-01
5.731421e-01
5.731335e-01
5.731191e-01
5.731051e-01
5.730861e-01
5.730916e-01
5.731549e-01
5.725364e-01
0.000000e+00
1.000000e+00
5.727840e-01
5.724044e-01
5.720742e-01
5.717275e-01
5.713991e-01
5.711233e-01
5.709379e-01
5.708729e-01
5.709389e-01
5.711247e-01
5.714038e-01
5.717366e-01
5.720885e-01
5.726160e-01
5.715950e-01
0.000000e+00
1.000000e+00
5.726932e-01
5.722916e-01
5.718947e-01
5.714823e-01
5.710918e-01
5.707641e-01
5.705441e-01
5.704674e-01
5.705479e-01
5.707721e-01
5.711041e-01
5.715101e-01
5.719187e-01
5.727361e-01
5.708572e-01
0.000000e+00
1.000000e+00
5.728436e-01
5.726604e-01
5.724662e-01
5.722651e-01
5.720748e-01
5.719154e-01
5.718086e-01
5.717714e-01
5.718112e-01
5.719230e-01
5.720897e-01
5.723094e-01
5.725050e-01
5.732437e-01
5.707947e-01
0.000000e+00
1.000000e+00
5.732326e-01
5.734353e-01
5.736747e-01
5.739199e-01
5.741525e-01
5.743479e-01
5.744792e-01
5.745244e-01
5.744751e-01
5.743423e-01
5.741536e-01
5.739696e-01
5.737323e-01
5.739285e-01
5.717065e-01
0.000000e+00
1.000000e+00
5.737972e-01
5.745263e-01
5.753834e-01
5.762593e-01
5.770898e-01
5.777871e-01
5.782556e-01
5.784184e-01
5.782457e-01
5.777693e-01
5.770728e-01
5.762926e-01
5.754613e-01
5.749802e-01
5.715396e-01
0.000000e+00
1.000000e+00
5.744922e-01
5.758408e-01
5.774484e-01
5.790870e-01
5.806403e-01
5.819447e-01
5.828218e-01
5.831290e-01
5.828118e-01
5.819289e-01
5.806279e-01
5.791141e-01
5.775550e-01
5.762186e-01
5.713072e-01
0.000000e+00
1.000000e+00
5.838119e-01
5.927711e-01
6.044106e-01
6.160071e-01
6.270135e-01
6.362894e-01
6.425901e-01
6.449165e-01
6.428365e-01
6.367082e-01
6.275830e-01
6.165705e-01
6.047290e-01
5.932635e-01
5.821314e-01
0.000000e+00
1.000000e+00
5.830331e-01
5.915437e-01
6.024023e-01
6.132570e-01
6.235563e-01
6.322323e-01
6.381226e-01
6.402925e-01
6.383329e-01
6.325954e-01
6.240999e-01
6.138096e-01
6.027458e-01
5.920096e-01
5.813999e-01
0.000000e+00
1.000000e+00
5.821236e-01
5.899523e-01
5.998368e-01
6.097402e-01
6.191347e-01
6.270456e-01
6.324108e-01
6.343794e-01
6.325837e-01
6.273649e-01
6.196300e-01
6.101929e-01
6.001311e-01
5.903571e-01
5.805816e-01
0.000000e+00
1.000000e+00
5.810544e-01
5.880247e-01
5.967511e-01
6.055138e-01
6.138252e-01
6.208207e-01
6.255582e-01
6.272858e-01
6.256868e-01
6.210874e-01
6.142398e-01
6.058659e-01
5.970098e-01
5.883845e-01
5.797166e-01
0.000000e+00
1.000000e+00
5.798514e-01
5.858189e-01
5.932420e-01
6.007101e-01
6.077928e-01
6.137511e-01
6.177803e-01
6.192393e-01
6.178652e-01
6.139585e-01
6.081186e-01
6.009810e-01
5.934822e-01
5.861337e-01
5.786379e-01
0.000000e+00
1.000000e+00
5.785727e-01
5.834332e-01
5.894622e-01
5.955371e-01
6.012986e-01
6.061430e-01
6.094141e-01
6.105897e-01
6.094617e-01
6.062866e-01
6.015369e-01
5.957453e-01
5.896742e-01
5.837120e-01
5.774757e-01
0.000000e+00
1.000000e+00
5.772845e-01
5.809989e-01
5.856148e-01
5.902698e-01
5.946850e-01
5.983966e-01
6.009001e-01
6.017943e-01
6.009227e-01
5.984822e-01
5.948521e-01
5.904312e-01
5.858019e-01
5.812385e-01
5.763109e-01
0.000000e+00
1.000000e+00
5.760469e-01
5.786709e-01
5.819350e-01
5.852304e-01
5.883559e-01
5.909831e-01
5.927543e-01
5.933844e-01
5.927620e-01
5.910207e-01
5.884639e-01
5.853550e-01
5.820869e-01
5.788714e-01
5.751755e-01
0.000000e+00
1.000000e+00
5.749520e-01
5.765981e-01
5.786611e-01
5.807466e-01
5.827242e-01
5.843860e-01
5.855054e-01
5.859016e-01
5.855048e-01
5.843906e-01
5.827684e-01
5.808226e-01
5.787790e-01
5.767588e-01
5.742136e-01
0.000000e+00
1.000000e+00
5.741082e-01
5.749091e-01
5.759962e-01
5.770976e-01
5.781418e-01
5.790188e-01
5.796090e-01
5.798168e-01
5.796062e-01
5.790153e-01
5.781453e-01
5.771169e-01
5.760561e-01
5.750342e-01
5.733344e-01
0.000000e+00
1.000000e+00
5.735119e-01
5.737010e-01
5.740995e-01
5.745005e-01
5.748806e-01
5.751992e-01
5.754127e-01
5.754858e-01
5.754056e-01
5.751883e-01
5.748678e-01
5.744880e-01
5.741090e-01
5.737901e-01
5.729492e-01
0.000000e+00
1.000000e+00
5.731026e-01
5.730258e-01
5.730451e-01
5.730564e-01
5.730670e-01
5.730758e-01
5.730815e-01
5.730829e-01
5.730790e-01
5.730707e-01
5.730597e-01
5.730438e-01
5.730338e-01
5.732324e-01
5.718041e-01
0.000000e+00
1.000000e+00
5.730100e-01
5.728862e-01
5.728245e-01
5.727551e-01
5.726893e-01
5.726342e-01
5.725973e-01
5.725848e-01
5.725989e-01
5.726369e-01
5.726926e-01
5.727596e-01
5.728223e-01
5.734466e-01
5.705940e-01
0.000000e+00
1.000000e+00
5.731577e-01
5.732399e-01
5.733756e-01
5.735097e-01
5.736369e-01
5.737438e-01
5.738159e-01
5.738413e-01
5.738160e-01
5.737452e-01
5.736405e-01
5.735261e-01
5.733869e-01
5.739692e-01
5.705491e-01
0.000000e+00
1.000000e+00
5.735353e-01
5.740091e-01
5.745772e-01
5.751550e-01
5.757029e-01
5.761629e-01
5.764721e-01
5.765798e-01
5.764667e-01
5.761541e-01
5.756956e-01
5.751719e-01
5.746124e-01
5.745507e-01
5.712569e-01
0.000000e+00
1.000000e+00
5.740995e-01
5.751000e-01
5.762865e-01
5.774957e-01
5.786419e-01
5.796044e-01
5.802514e-01
5.804777e-01
5.802427e-01
5.795894e-01
5.786268e-01
5.775066e-01
5.763535e-01
5.755727e-01
5.711630e-01
0.000000e+00
1.000000e+00
5.748002e-01
5.764161e-01
5.783555e-01
5.803289e-01
5.821998e-01
5.837711e-01
5.848283e-01
5.852004e-01
5.848222e-01
5.837635e-01
5.821965e-01
5.803571e-01
5.784594e-01
5.766678e-01
5.724662e-01
0.000000e+00
1.000000e+00
5.838274e-01
5.928563e-01
6.045127e-01
6.161438e-01
6.271885e-01
6.364987e-01
6.428226e-01
6.451563e-01
6.430774e-01
6.369451e-01
6.277504e-01
6.167436e-01
6.048329e-01
5.933092e-01
5.821418e-01
0.000000e+00
1.000000e+00
5.831167e-01
5.917141e-01
6.026511e-01
6.135982e-01
6.239911e-01
6.327476e-01
6.386899e-01
6.408746e-01
6.389010e-01
6.331344e-01
6.245306e-01
6.141929e-01
6.030041e-01
5.921592e-01
5.814730e-01
0.000000e+00
1.000000e+00
5.822495e-01
5.901930e-01
6.002073e-01
6.102533e-01
6.197870e-01
6.278137e-01
6.332542e-01
6.352457e-01
6.334239e-01
6.281504e-01
6.202872e-01
6.107584e-01
6.005219e-01
5.905902e-01
5.806824e-01
0.000000e+00
1.000000e+00
5.812085e-01
5.883178e-01
5.972119e-01
6.061513e-01
6.146323e-01
6.217689e-01
6.266000e-01
6.283578e-01
6.267237e-01
6.220463e-01
6.150616e-01
6.065442e-01
5.974808e-01
5.886737e-01
5.798367e-01
0.000000e+00
1.000000e+00
5.800261e-01
5.861422e-01
5.937530e-01
6.014148e-01
6.086828e-01
6.147965e-01
6.189297e-01
6.204235e-01
6.190108e-01
6.150106e-01
6.090313e-01
6.017173e-01
5.940037e-01
5.864574e-01
5.787752e-01
0.000000e+00
1.000000e+00
5.787538e-01
5.837634e-01
5.899821e-01
5.962509e-01
6.021979e-01
6.071990e-01
6.105766e-01
6.117896e-01
6.106246e-01
6.073506e-01
6.024641e-01
5.964859e-01
5.902046e-01
5.840415e-01
5.776156e-01
0.000000e+00
1.000000e+00
5.774570e-01
5.813151e-01
5.861080e-01
5.909448e-01
5.955333e-01
5.993915e-01
6.019955e-01
6.029261e-01
6.020205e-01
5.994848e-01
5.957251e-01
5.911280e-01
5.863042e-01
5.815508e-01
5.764312e-01
0.000000e+00
1.000000e+00
5.762014e-01
5.789550e-01
5.823746e-01
5.858322e-01
5.891117e-01
5.918684e-01
5.937272e-01
5.943879e-01
5.937339e-01
5.919071e-01
5.892318e-01
5.859760e-01
5.825354e-01
5.791478e-01
5.752807e-01
0.000000e+00
1.000000e+00
5.750748e-01
5.768385e-01
5.790312e-01
5.812535e-01
5.833610e-01
5.851317e-01
5.863244e-01
5.867456e-01
5.863204e-01
5.851314e-01
5.834057e-01
5.813471e-01
5.791601e-01
5.769902e-01
5.742944e-01
0.000000e+00
1.000000e+00
5.741840e-01
5.751027e-01
5.762966e-01
5.775090e-01
5.786584e-01
5.796237e-01
5.802732e-01
5.805013e-01
5.802672e-01
5.796133e-01
5.786552e-01
5.775332e-01
5.763657e-01
5.752224e-01
5.733777e-01
0.000000e+00
1.000000e+00
5.735700e-01
5.738560e-01
5.743384e-01
5.748276e-01
5.752911e-01
5.756798e-01
5.759403e-01
5.760297e-01
5.759322e-01
5.756654e-01
5.752717e-01
5.748135e-01
5.743523e-01
5.739455e-01
5.729630e-01
0.000000e+00
1.000000e+00
5.731744e-01
5.731564e-01
5.732448e-01
5.733296e-01
5.734096e-01
5.734763e-01
5.735202e-01
5.735338e-01
5.735134e-01
5.734628e-01
5.733895e-01
5.733050e-01
5.732295e-01
5.733824e-01
5.717162e-01
0.000000e+00
1.000000e+00
5.730556e-01
5.730051e-01
5.730067e-01
5.730041e-01
5.730013e-01
5.729989e-01
5.729971e-01
5.729961e-01
5.729958e-01
5.729952e-01
5.729933e-01
5.729909e-01
5.729990e-01
5.736997e-01
5.701431e-01
0.000000e+00
1.000000e+00
5.732350e-01
5.733569e-01
5.735562e-01
5.737569e-01
5.739471e-01
5.741067e-01
5.742141e-01
5.742516e-01
5.742128e-01
5.741043e-01
5.739421e-01
5.737544e-01
5.735657e-01
5.742144e-01
5.701418e-01
0.000000e+00
1.000000e+00
5.736093e-01
5.741336e-01
5.747723e-01
5.754218e-01
5.760375e-01
5.765544e-01
5.769018e-01
5.770229e-01
5.768960e-01
5.765440e-01
5.760242e-01
5.754200e-01
5.748090e-01
5.747784e-01
5.708665e-01
0.000000e+00
1.000000e+00
5.741781e-01
5.752378e-01
5.765036e-01
5.777926e-01
5.790145e-01
5.800405e-01
5.807304e-01
5.809719e-01
5.807220e-01
5.800263e-01
5.789978e-01
5.777926e-01
5.765670e-01
5.757722e-01
5.707916e-01
0.000000e+00
1.000000e+00
5.748814e-01
5.765700e-01
5.785979e-01
5.806608e-01
5.826165e-01
5.842592e-01
5.853647e-01
5.857544e-01
5.853599e-01
5.842529e-01
5.826121e-01
5.806867e-01
5.787093e-01
5.767402e-01
5.727798e-01
0.000000e+00
1.000000e+00
5.835524e-01
5.924399e-01
6.038059e-01
6.151722e-01
6.259634e-01
6.350596e-01
6.412390e-01
6.435161e-01
6.414978e-01
6.355111e-01
6.265005e-01
6.157866e-01
6.041191e-01
5.928342e-01
5.819025e-01
0.000000e+00
1.000000e+00
5.828959e-01
5.913518e-01
6.020434e-01
6.127633e-01
6.229399e-01
6.315151e-01
6.373338e-01
6.394652e-01
6.375436e-01
6.319091e-01
6.234645e-01
6.133625e-01
6.023873e-01
5.917623e-01
5.812888e-01
0.000000e+00
1.000000e+00
5.820623e-01
5.898767e-01
5.996794e-01
6.095274e-01
6.188747e-01
6.267477e-01
6.320843e-01
6.340284e-01
6.322489e-01
6.270919e-01
6.193722e-01
6.100550e-01
6.000041e-01
5.902535e-01
5.805262e-01
0.000000e+00
1.000000e+00
5.810427e-01
5.880323e-01
5.967390e-01
6.055016e-01
6.138177e-01
6.208187e-01
6.255587e-01
6.272761e-01
6.256757e-01
6.210982e-01
6.142561e-01
6.059234e-01
5.970191e-01
5.883725e-01
5.796845e-01
0.000000e+00
1.000000e+00
5.798747e-01
5.858714e-01
5.933082e-01
6.008042e-01
6.079172e-01
6.139028e-01
6.179508e-01
6.194097e-01
6.180263e-01
6.141132e-01
6.082823e-01
6.011372e-01
5.935732e-01
5.861769e-01
5.786287e-01
0.000000e+00
1.000000e+00
5.786050e-01
5.834915e-01
5.895379e-01
5.956413e-01
6.014324e-01
6.063037e-01
6.095948e-01
6.107752e-01
6.096388e-01
6.064463e-01
6.017147e-01
5.959047e-01
5.897765e-01
5.837614e-01
5.774694e-01
0.000000e+00
1.000000e+00
5.772983e-01
5.810272e-01
5.856391e-01
5.903024e-01
5.947262e-01
5.984462e-01
6.009566e-01
6.018522e-01
6.009760e-01
5.985239e-01
5.949234e-01
5.905091e-01
5.858538e-01
5.812542e-01
5.762800e-01
0.000000e+00
1.000000e+00
5.760232e-01
5.786385e-01
5.818625e-01
5.851309e-01
5.882309e-01
5.908365e-01
5.925926e-01
5.932147e-01
5.925922e-01
5.908553e-01
5.883352e-01
5.852908e-01
5.820457e-01
5.788238e-01
5.751153e-01
0.000000e+00
1.000000e+00
5.748790e-01
5.764858e-01
5.784671e-01
5.804813e-01
5.823913e-01
5.839957e-01
5.850755e-01
5.854547e-01
5.850648e-01
5.839790e-01
5.824056e-01
5.805686e-01
5.786198e-01
5.766379e-01
5.741149e-01
0.000000e+00
1.000000e+00
5.739650e-01
5.747168e-01
5.756850e-01
5.766715e-01
5.776066e-01
5.783914e-01
5.789186e-01
5.791014e-01
5.789061e-01
5.783671e-01
5.775771e-01
5.766808e-01
5.757681e-01
5.748405e-01
5.732037e-01
0.000000e+00
1.000000e+00
5.733341e-01
5.734460e-01
5.736910e-01
5.739411e-01
5.741777e-01
5.743755e-01
5.745071e-01
5.745500e-01
5.744956e-01
5.743531e-01
5.741443e-01
5.739300e-01
5.737230e-01
5.735497e-01
5.726906e-01
0.000000e+00
1.000000e+00
5.729617e-01
5.727357e-01
5.725799e-01
5.724192e-01
5.722662e-01
5.721369e-01
5.720483e-01
5.720139e-01
5.720384e-01
5.721175e-01
5.722390e-01
5.724036e-01
5.725883e-01
5.729949e-01
5.714561e-01
0.000000e+00
1.000000e+00
5.728383e-01
5.725889e-01
5.723497e-01
5.721038e-01
5.718703e-01
5.716735e-01
5.715401e-01
5.714913e-01
5.715346e-01
5.716617e-01
5.718528e-01
5.720933e-01
5.723671e-01
5.733710e-01
5.699407e-01
0.000000e+00
1.000000e+00
5.730148e-01
5.729567e-01
5.729238e-01
5.728907e-01
5.728589e-01
5.728317e-01
5.728128e-01
5.728047e-01
5.728084e-01
5.728227e-01
5.728448e-01
5.728899e-01
5.729606e-01
5.738640e-01
5.698667e-01
0.000000e+00
1.000000e+00
5.734287e-01
5.737572e-01
5.741785e-01
5.746089e-01
5.750167e-01
5.753587e-01
5.755880e-01
5.756668e-01
5.755804e-01
5.753440e-01
5.749948e-01
5.746086e-01
5.742376e-01
5.744619e-01
5.706118e-01
0.000000e+00
1.000000e+00
5.740043e-01
5.748912e-01
5.759576e-01
5.770448e-01
5.780753e-01
5.789403e-01
5.795214e-01
5.797239e-01
5.795110e-01
5.789209e-01
5.780476e-01
5.770345e-01
5.760327e-01
5.753738e-01
5.705341e-01
0.000000e+00
1.000000e+00
5.747204e-01
5.762567e-01
5.781039e-01
5.799841e-01
5.817666e-01
5.832636e-01
5.842707e-01
5.846248e-01
5.842633e-01
5.832517e-01
5.817513e-01
5.799867e-01
5.782274e-01
5.763757e-01
5.729815e-01
0.000000e+00
1.000000e+00
5.829981e-01
5.915147e-01
6.022952e-01
6.131024e-01
6.233594e-01
6.320011e-01
6.378667e-01
6.400234e-01
6.381069e-01
6.324272e-01
6.238633e-01
6.136874e-01
6.025837e-01
5.918531e-01
5.814215e-01
0.000000e+00
1.000000e+00
5.823723e-01
5.904471e-01
6.005756e-01
6.107520e-01
6.204103e-01
6.285455e-01
6.340612e-01
6.360760e-01
6.342514e-01
6.289186e-01
6.209106e-01
6.113162e-01
6.008970e-01
5.908145e-01
5.808318e-01
0.000000e+00
1.000000e+00
5.815588e-01
5.889871e-01
5.982435e-01
6.075596e-01
6.164011e-01
6.238457e-01
6.288878e-01
6.307192e-01
6.290329e-01
6.241685e-01
6.168822e-01
6.080731e-01
5.985691e-01
5.893373e-01
5.800817e-01
0.000000e+00
1.000000e+00
5.805527e-01
5.871494e-01
5.953205e-01
6.035578e-01
6.113747e-01
6.179543e-01
6.224061e-01
6.240142e-01
6.225052e-01
6.182072e-01
6.118034e-01
6.039811e-01
5.956082e-01
5.874682e-01
5.792331e-01
0.000000e+00
1.000000e+00
5.793902e-01
5.849865e-01
5.918909e-01
5.988622e-01
6.054770e-01
6.110429e-01
6.148049e-01
6.161570e-01
6.148653e-01
6.112205e-01
6.058340e-01
5.992082e-01
5.921690e-01
5.852759e-01
5.781744e-01
0.000000e+00
1.000000e+00
5.781193e-01
5.825953e-01
5.881064e-01
5.936805e-01
5.989690e-01
6.034170e-01
6.064204e-01
6.074942e-01
6.064510e-01
6.035225e-01
5.992364e-01
5.939623e-01
5.883659e-01
5.828548e-01
5.770273e-01
0.000000e+00
1.000000e+00
5.768012e-01
5.801117e-01
5.841807e-01
5.883054e-01
5.922182e-01
5.955080e-01
5.977269e-01
5.985152e-01
5.977335e-01
5.955466e-01
5.923809e-01
5.885300e-01
5.844223e-01
5.803334e-01
5.758320e-01
0.000000e+00
1.000000e+00
5.755121e-01
5.776979e-01
5.803699e-01
5.830873e-01
5.856646e-01
5.878304e-01
5.892888e-01
5.898026e-01
5.892792e-01
5.878184e-01
5.857120e-01
5.832379e-01
5.805878e-01
5.778847e-01
5.746578e-01
0.000000e+00
1.000000e+00
5.743609e-01
5.755197e-01
5.769406e-01
5.783911e-01
5.797663e-01
5.809209e-01
5.816966e-01
5.819660e-01
5.816793e-01
5.808865e-01
5.797303e-01
5.784351e-01
5.771087e-01
5.756760e-01
5.736367e-01
0.000000e+00
1.000000e+00
5.734399e-01
5.737317e-01
5.741338e-01
5.745475e-01
5.749392e-01
5.752673e-01
5.754861e-01
5.755585e-01
5.754695e-01
5.752335e-01
5.748887e-01
5.745705e-01
5.742345e-01
5.738656e-01
5.726778e-01
0.000000e+00
1.000000e+00
5.728061e-01
5.724527e-01
5.721304e-01
5.718041e-01
5.714943e-01
5.712329e-01
5.710552e-01
5.709886e-01
5.710440e-01
5.712113e-01
5.714644e-01
5.718379e-01
5.721971e-01
5.725757e-01
5.720270e-01
0.000000e+00
1.000000e+00
5.724532e-01
5.717475e-01
5.710276e-01
5.702939e-01
5.695977e-01
5.690118e-01
5.686160e-01
5.684733e-01
5.686088e-01
5.689990e-01
5.695846e-01
5.703226e-01
5.710843e-01
5.720400e-01
5.708102e-01
0.000000e+00
1.000000e+00
5.723522e-01
5.716199e-01
5.708280e-01
5.700202e-01
5.692538e-01
5.686091e-01
5.681740e-01
5.680183e-01
5.681695e-01
5.686012e-01
5.692492e-01
5.700450e-01
5.708975e-01
5.724477e-01
5.694431e-01
0.000000e+00
1.000000e+00
5.725253e-01
5.720207e-01
5.714526e-01
5.708757e-01
5.703282e-01
5.698675e-01
5.695562e-01
5.694445e-01
5.695516e-01
5.698589e-01
5.703212e-01
5.709064e-01
5.715335e-01
5.729603e-01
5.694380e-01
0.000000e+00
1.000000e+00
5.729607e-01
5.728627e-01
5.727710e-01
5.726815e-01
5.725962e-01
5.725238e-01
5.724737e-01
5.724534e-01
5.724657e-01
5.725084e-01
5.725746e-01
5.727165e-01
5.728640e-01
5.735975e-01
5.703714e-01
0.000000e+00
1.000000e+00
5.735717e-01
5.740434e-01
5.746236e-01
5.752183e-01
5.757817e-01
5.762543e-01
5.765707e-01