<?xml version="1.0"?>
<VTKFile type="StructuredGrid" version="0.1">
  <StructuredGrid WholeExtent="0 16 0 16 0 16">
    <Piece Extent="0 16 0 16 0 16">
      <PointData Scalars="temperature" Vectors="velocity">
        <DataArray type="Float32" Name="temperature" format="ascii">
1.000000e+00
5.733378e-01
5.730229e-01
5.730530e-01
5.730670e-01
5.730802e-01
5.730912e-01
5.730985e-01
5.731010e-01
5.730982e-01
5.730908e-01
5.730796e-01
5.730663e-01
5.730508e-01
5.730920e-01
5.724537e-01
0.000000e+00
1.000000e+00
5.732868e-01
5.730131e-01
5.730417e-01
5.730505e-01
5.730588e-01
5.730656e-01
5.730700e-01
5.730712e-01
5.730691e-01
5.730642e-01
5.730567e-01
5.730530e-01
5.730446e-01
5.730763e-01
5.723720e-01
0.000000e+00
1.000000e+00
5.731701e-01
5.727709e-01
5.726519e-01
5.725181e-01
5.723911e-01
5.722844e-01
5.722122e-01
5.721863e-01
5.722110e-01
5.722822e-01
5.723875e-01
5.725292e-01
5.726685e-01
5.728560e-01
5.725247e-01
0.000000e+00
1.000000e+00
5.728850e-01
5.722627e-01
5.718540e-01
5.714251e-01
5.710184e-01
5.706766e-01
5.704462e-01
5.703642e-01
5.704451e-01
5.706755e-01
5.710159e-01
5.714541e-01
5.718924e-01
5.723252e-01
5.724066e-01
0.000000e+00
1.000000e+00
5.724821e-01
5.714814e-01
5.706284e-01
5.697465e-01
5.689105e-01
5.682083e-01
5.677355e-01
5.675685e-01
5.677372e-01
5.682138e-01
5.689170e-01
5.698067e-01
5.706992e-01
5.715699e-01
5.718920e-01
0.000000e+00
1.000000e+00
5.719409e-01
5.704372e-01
5.689881e-01
5.675005e-01
5.660906e-01
5.649068e-01
5.641105e-01
5.638307e-01
5.641183e-01
5.649247e-01
5.661124e-01
5.675960e-01
5.690961e-01
5.705644e-01
5.713010e-01
0.000000e+00
1.000000e+00
5.712859e-01
5.691591e-01
5.669799e-01
5.647513e-01
5.626392e-01
5.608664e-01
5.596748e-01
5.592579e-01
5.596915e-01
5.609005e-01
5.626805e-01
5.648814e-01
5.671213e-01
5.693088e-01
5.706905e-01
0.000000e+00
1.000000e+00
5.705480e-01
5.676961e-01
5.646835e-01
5.616078e-01
5.586934e-01
5.562480e-01
5.546056e-01
5.540324e-01
5.546324e-01
5.563003e-01
5.587563e-01
5.617711e-01
5.648565e-01
5.678631e-01
5.700077e-01
0.000000e+00
1.000000e+00
5.697556e-01
5.661173e-01
5.622072e-01
5.582182e-01
5.544389e-01
5.512686e-01
5.491407e-01
5.484000e-01
5.491797e-01
5.513410e-01
5.545250e-01
5.584152e-01
5.624076e-01
5.662971e-01
5.692702e-01
0.000000e+00
1.000000e+00
5.689460e-01
5.645044e-01
5.596782e-01
5.547568e-01
5.500947e-01
5.461846e-01
5.435607e-01
5.426493e-01
5.436125e-01
5.462775e-01
5.502036e-01
5.549848e-01
5.599035e-01
5.646983e-01
5.685130e-01
0.000000e+00
1.000000e+00
5.681688e-01
5.629424e-01
5.572299e-01
5.514059e-01
5.458894e-01
5.412629e-01
5.381592e-01
5.370822e-01
5.382228e-01
5.413753e-01
5.460183e-01
5.516635e-01
5.574747e-01
5.631439e-01
5.677818e-01
0.000000e+00
1.000000e+00
5.674646e-01
5.615107e-01
5.549864e-01
5.483353e-01
5.420356e-01
5.367528e-01
5.332094e-01
5.319808e-01
5.332832e-01
5.368825e-01
5.421820e-01
5.486157e-01
5.552476e-01
5.617205e-01
5.671102e-01
0.000000e+00
1.000000e+00
5.668549e-01
5.602747e-01
5.530503e-01
5.456855e-01
5.387102e-01
5.328612e-01
5.289386e-01
5.275783e-01
5.290192e-01
5.330044e-01
5.388703e-01
5.459858e-01
5.533213e-01
5.604873e-01
5.665304e-01
0.000000e+00
1.000000e+00
5.663805e-01
5.592807e-01
5.514950e-01
5.435570e-01
5.360392e-01
5.297358e-01
5.255073e-01
5.240395e-01
5.255923e-01
5.298879e-01
5.362099e-01
5.438682e-01
5.517736e-01
5.595048e-01
5.660728e-01
0.000000e+00
1.000000e+00
5.660467e-01
5.585551e-01
5.503618e-01
5.420059e-01
5.340919e-01
5.274556e-01
5.230041e-01
5.214588e-01
5.230930e-01
5.276148e-01
5.342728e-01
5.423225e-01
5.506381e-01
5.587841e-01
5.657158e-01
0.000000e+00
1.000000e+00
5.658132e-01
5.581038e-01
5.496568e-01
5.410412e-01
5.328817e-01
5.260396e-01
5.214499e-01
5.198564e-01
5.215412e-01
5.262037e-01
5.330777e-01
5.413543e-01
5.499337e-01
5.583551e-01
5.655662e-01
0.000000e+00
1.000000e+00
5.656653e-01
5.579056e-01
5.493598e-01
5.406369e-01
5.323773e-01
5.254529e-01
5.208100e-01
5.192011e-01
5.209102e-01
5.256334e-01
5.326046e-01
5.409479e-01
5.496648e-01
5.583072e-01
5.648924e-01
0.000000e+00
1.000000e+00
5.732065e-01
5.730203e-01
5.730701e-01
5.730887e-01
5.731062e-01
5.731207e-01
5.731304e-01
5.731335e-01
5.731297e-01
5.731197e-01
5.731050e-01
5.730856e-01
5.730617e-01
5.730247e-01
5.729672e-01
0.000000e+00
1.000000e+00
5.730846e-01
5.727871e-01
5.726975e-01
5.725784e-01
5.724653e-01
5.723701e-01
5.723058e-01
5.722827e-01
5.723048e-01
5.723682e-01
5.724635e-01
5.725798e-01
5.726946e-01
5.728085e-01
5.723216e-01
0.000000e+00
1.000000e+00
5.727870e-01
5.722899e-01
5.719095e-01
5.714993e-01
5.711100e-01
5.707826e-01
5.705617e-01
5.704829e-01
5.705598e-01
5.707794e-01
5.711081e-01
5.715145e-01
5.719213e-01
5.723635e-01
5.724519e-01
0.000000e+00
1.000000e+00
5.723957e-01
5.715082e-01
5.706739e-01
5.698076e-01
5.689859e-01
5.682952e-01
5.678295e-01
5.676642e-01
5.678286e-01
5.682958e-01
5.689912e-01
5.698449e-01
5.707095e-01
5.715778e-01
5.720418e-01
0.000000e+00
1.000000e+00
5.718714e-01
5.704366e-01
5.689867e-01
5.674974e-01
5.660852e-01
5.648987e-01
5.640998e-01
5.638178e-01
5.641039e-01
5.649100e-01
5.661055e-01
5.675603e-01
5.690467e-01
5.705219e-01
5.714421e-01
0.000000e+00
1.000000e+00
5.711990e-01
5.690944e-01
5.668763e-01
5.646079e-01
5.624575e-01
5.606517e-01
5.594369e-01
5.590106e-01
5.594497e-01
5.606786e-01
5.624974e-01
5.647007e-01
5.669666e-01
5.692056e-01
5.707509e-01
0.000000e+00
1.000000e+00
5.704083e-01
5.675238e-01
5.644101e-01
5.612317e-01
5.582190e-01
5.556902e-01
5.539908e-01
5.533967e-01
5.540149e-01
5.557365e-01
5.582815e-01
5.613585e-01
5.645327e-01
5.676552e-01
5.699735e-01
0.000000e+00
1.000000e+00
5.695462e-01
5.657919e-01
5.616932e-01
5.575124e-01
5.535505e-01
5.502259e-01
5.479933e-01
5.472151e-01
5.480305e-01
5.502939e-01
5.536379e-01
5.576740e-01
5.618481e-01
5.659428e-01
5.691528e-01
0.000000e+00
1.000000e+00
5.686510e-01
5.639852e-01
5.588604e-01
5.536348e-01
5.486836e-01
5.445299e-01
5.417419e-01
5.407723e-01
5.417929e-01
5.446207e-01
5.487963e-01
5.538335e-01
5.590455e-01
5.641483e-01
5.682933e-01
0.000000e+00
1.000000e+00
5.677612e-01
5.622001e-01
5.560630e-01
5.498061e-01
5.438785e-01
5.389067e-01
5.355706e-01
5.344121e-01
5.356352e-01
5.390199e-01
5.440158e-01
5.500395e-01
5.562763e-01
5.623780e-01
5.674514e-01
0.000000e+00
1.000000e+00
5.669349e-01
5.605338e-01
5.534523e-01
5.462333e-01
5.393949e-01
5.336598e-01
5.298127e-01
5.284775e-01
5.298894e-01
5.337939e-01
5.395533e-01
5.465000e-01
5.536886e-01
5.607156e-01
5.666641e-01
0.000000e+00
1.000000e+00
5.662160e-01
5.590719e-01
5.511623e-01
5.430995e-01
5.354623e-01
5.290581e-01
5.247624e-01
5.232721e-01
5.248494e-01
5.292103e-01
5.356380e-01
5.433929e-01
5.514198e-01
5.592605e-01
5.659715e-01
0.000000e+00
1.000000e+00
5.656252e-01
5.578801e-01
5.492956e-01
5.405450e-01
5.322570e-01
5.253072e-01
5.206462e-01
5.190294e-01
5.207408e-01
5.254736e-01
5.324453e-01
5.408602e-01
5.495678e-01
5.580662e-01
5.654060e-01
0.000000e+00
1.000000e+00
5.652026e-01
5.569995e-01
5.479165e-01
5.386579e-01
5.298891e-01
5.225366e-01
5.176050e-01
5.158933e-01
5.177034e-01
5.227114e-01
5.300870e-01
5.389827e-01
5.481990e-01
5.571879e-01
5.649958e-01
0.000000e+00
1.000000e+00
5.649563e-01
5.564434e-01
5.470492e-01
5.374709e-01
5.283991e-01
5.207921e-01
5.156893e-01
5.139183e-01
5.157909e-01
5.209727e-01
5.286070e-01
5.377985e-01
5.473265e-01
5.566324e-01
5.647337e-01
0.000000e+00
1.000000e+00
5.648329e-01
5.562063e-01
5.466797e-01
5.369658e-01
5.277662e-01
5.200523e-01
5.148777e-01
5.130816e-01
5.149808e-01
5.202370e-01
5.279895e-01
5.372827e-01
5.469461e-01
5.564456e-01
5.646360e-01
0.000000e+00
1.000000e+00
5.650275e-01
5.562528e-01
5.467791e-01
5.371035e-01
5.279407e-01
5.202579e-01
5.151042e-01
5.133152e-01
5.152066e-01
5.204422e-01
5.281776e-01
5.373947e-01
5.470888e-01
5.568762e-01
5.636121e-01
0.000000e+00
1.000000e+00
5.733961e-01
5.732693e-01
5.734573e-01
5.736178e-01
5.737700e-01
5.738978e-01
5.739838e-01
5.740140e-01
5.739825e-01
5.738945e-01
5.737634e-01
5.736091e-01
5.734542e-01
5.732891e-01
5.734877e-01
0.000000e+00
1.000000e+00
5.731438e-01
5.728037e-01
5.727140e-01
5.725998e-01
5.724915e-01
5.724003e-01
5.723388e-01
5.723166e-01
5.723370e-01
5.723960e-01
5.724874e-01
5.725987e-01
5.727141e-01
5.728150e-01
5.731517e-01
0.000000e+00
1.000000e+00
5.727212e-01
5.720396e-01
5.715093e-01
5.709497e-01
5.704190e-01
5.699729e-01
5.696724e-01
5.695658e-01
5.696714e-01
5.699715e-01
5.704236e-01
5.709686e-01
5.715201e-01
5.720628e-01
5.726457e-01
0.000000e+00
1.000000e+00
5.721615e-01
5.709618e-01
5.698149e-01
5.686299e-01
5.675064e-01
5.665624e-01
5.659268e-01
5.657026e-01
5.659300e-01
5.665717e-01
5.675271e-01
5.686785e-01
5.698531e-01
5.710069e-01
5.719307e-01
0.000000e+00
1.000000e+00
5.714556e-01
5.695778e-01
5.676404e-01
5.656530e-01
5.637689e-01
5.621866e-01
5.611222e-01
5.607485e-01
5.611333e-01
5.622119e-01
5.638083e-01
5.657286e-01
5.677033e-01
5.696507e-01
5.711719e-01
0.000000e+00
1.000000e+00
5.706151e-01
5.679175e-01
5.650339e-01
5.620847e-01
5.592892e-01
5.569425e-01
5.553653e-01
5.548139e-01
5.553875e-01
5.569876e-01
5.593522e-01
5.621900e-01
5.651257e-01
5.680171e-01
5.703117e-01
0.000000e+00
1.000000e+00
5.696738e-01
5.660387e-01
5.620872e-01
5.580507e-01
5.542253e-01
5.510151e-01
5.488594e-01
5.481080e-01
5.488953e-01
5.510832e-01
5.543159e-01
5.581921e-01
5.622099e-01
5.661627e-01
5.693769e-01
0.000000e+00
1.000000e+00
5.686782e-01
5.640272e-01
5.589338e-01
5.537339e-01
5.488069e-01
5.446735e-01
5.418993e-01
5.409346e-01
5.419504e-01
5.447661e-01
5.489262e-01
5.539149e-01
5.590869e-01
5.641731e-01
5.683940e-01
0.000000e+00
1.000000e+00
5.676705e-01
5.619879e-01
5.557381e-01
5.493595e-01
5.433165e-01
5.382482e-01
5.348480e-01
5.336672e-01
5.349144e-01
5.383661e-01
5.434636e-01
5.495823e-01
5.559206e-01
5.621478e-01
5.674122e-01
0.000000e+00
1.000000e+00
5.667065e-01
5.600339e-01
5.526774e-01
5.451704e-01
5.380595e-01
5.320964e-01
5.280969e-01
5.267091e-01
5.281777e-01
5.322381e-01
5.382320e-01
5.454329e-01
5.528887e-01
5.602067e-01
5.664781e-01
0.000000e+00
1.000000e+00
5.658442e-01
5.582744e-01
5.499218e-01
5.413993e-01
5.333271e-01
5.265588e-01
5.220198e-01
5.204455e-01
5.221130e-01
5.267215e-01
5.335206e-01
5.416993e-01
5.501615e-01
5.584522e-01
5.656393e-01
0.000000e+00
1.000000e+00
5.651222e-01
5.568005e-01
5.476131e-01
5.382401e-01
5.293630e-01
5.219202e-01
5.169290e-01
5.151981e-01
5.170316e-01
5.221002e-01
5.295727e-01
5.385673e-01
5.478821e-01
5.569836e-01
5.649325e-01
0.000000e+00
1.000000e+00
5.645653e-01
5.556756e-01
5.458507e-01
5.358289e-01
5.263375e-01
5.183798e-01
5.130433e-01
5.111925e-01
5.131527e-01
5.185734e-01
5.265588e-01
5.361731e-01
5.461446e-01
5.558534e-01
5.643947e-01
0.000000e+00
1.000000e+00
5.642007e-01
5.549326e-01
5.446855e-01
5.342347e-01
5.243375e-01
5.160397e-01
5.104750e-01
5.085443e-01
5.105874e-01
5.162411e-01
5.245678e-01
5.345825e-01
5.449961e-01
5.551083e-01
5.640306e-01
0.000000e+00
1.000000e+00
5.640486e-01
5.545704e-01
5.441216e-01
5.334632e-01
5.233690e-01
5.149053e-01
5.092288e-01
5.072595e-01
5.093436e-01
5.151109e-01
5.236088e-01
5.338085e-01
5.444201e-01
5.547464e-01
5.638725e-01
0.000000e+00
1.000000e+00
5.640435e-01
5.545716e-01
5.441219e-01
5.334643e-01
5.233711e-01
5.149080e-01
5.092316e-01
5.072619e-01
5.093460e-01
5.151138e-01
5.236216e-01
5.337926e-01
5.444112e-01
5.548282e-01
5.638419e-01
0.000000e+00
1.000000e+00
5.643722e-01
5.548818e-01
5.446298e-01
5.341613e-01
5.242478e-01
5.159355e-01
5.103599e-01
5.084247e-01
5.104713e-01
5.161372e-01
5.245050e-01
5.344638e-01
5.449579e-01
5.555796e-01
5.628979e-01
0.000000e+00
1.000000e+00
5.736765e-01
5.737775e-01
5.742515e-01
5.747053e-01
5.751356e-01
5.754970e-01
5.757401e-01
5.758248e-01
5.757351e-01
5.754877e-01
5.751240e-01
5.746971e-01
5.742649e-01
5.738225e-01
5.732392e-01
0.000000e+00
1.000000e+00
5.732925e-01
5.730749e-01
5.731352e-01
5.731769e-01
5.732165e-01
5.732499e-01
5.732722e-01
5.732792e-01
5.732684e-01
5.732414e-01
5.732085e-01
5.731779e-01
5.731566e-01
5.731067e-01
5.730993e-01
0.000000e+00
1.000000e+00
5.727705e-01
5.720431e-01
5.715086e-01
5.709503e-01
5.704211e-01
5.699765e-01
5.696770e-01
5.695707e-01
5.696755e-01
5.699743e-01
5.704305e-01
5.709732e-01
5.715372e-01
5.720600e-01
5.725672e-01
0.000000e+00
1.000000e+00
5.720615e-01
5.706694e-01
5.693528e-01
5.679983e-01
5.667143e-01
5.656361e-01
5.649108e-01
5.646560e-01
5.649174e-01
5.656522e-01
5.667503e-01
5.680527e-01
5.694008e-01
5.707225e-01
5.716344e-01
0.000000e+00
1.000000e+00
5.711889e-01
5.689690e-01
5.666864e-01
5.643473e-01
5.621303e-01
5.602693e-01
5.590187e-01
5.585814e-01
5.590368e-01
5.603082e-01
5.621901e-01
5.644388e-01
5.667651e-01
5.690585e-01
5.707445e-01
0.000000e+00
1.000000e+00
5.701823e-01
5.669854e-01
5.635778e-01
5.600912e-01
5.567870e-01
5.540145e-01
5.521528e-01
5.515041e-01
5.521849e-01
5.540786e-01
5.568721e-01
5.602138e-01
5.636824e-01
5.670962e-01
5.697621e-01
0.000000e+00
1.000000e+00
5.690852e-01
5.647949e-01
5.601462e-01
5.553932e-01
5.508897e-01
5.471120e-01
5.445769e-01
5.436957e-01
5.446251e-01
5.472040e-01
5.510057e-01
5.555534e-01
5.602774e-01
5.649293e-01
5.687019e-01
0.000000e+00
1.000000e+00
5.679500e-01
5.625034e-01
5.565568e-01
5.504794e-01
5.447221e-01
5.398939e-01
5.366553e-01
5.355314e-01
5.367207e-01
5.400146e-01
5.448726e-01
5.506842e-01
5.567155e-01
5.626601e-01
5.676113e-01
0.000000e+00
1.000000e+00
5.668283e-01
5.602358e-01
5.530053e-01
5.456182e-01
5.386212e-01
5.327545e-01
5.288206e-01
5.274565e-01
5.289025e-01
5.329029e-01
5.388043e-01
5.458714e-01
5.531915e-01
5.604042e-01
5.665330e-01
0.000000e+00
1.000000e+00
5.657911e-01
5.581231e-01
5.496969e-01
5.410901e-01
5.329387e-01
5.261052e-01
5.215236e-01
5.199355e-01
5.216204e-01
5.262780e-01
5.331493e-01
5.413903e-01
5.499150e-01
5.583083e-01
5.655289e-01
0.000000e+00
1.000000e+00
5.648950e-01
5.562864e-01
5.468196e-01
5.371523e-01
5.279973e-01
5.203229e-01
5.151776e-01
5.133944e-01
5.152866e-01
5.205157e-01
5.282284e-01
5.374931e-01
5.470696e-01
5.564792e-01
5.646460e-01
0.000000e+00
1.000000e+00
5.641785e-01
5.548199e-01
5.445210e-01
5.340070e-01
5.240505e-01
5.157044e-01
5.101085e-01
5.081689e-01
5.102260e-01
5.159125e-01
5.242965e-01
5.343726e-01
5.448067e-01
5.550152e-01
5.639360e-01
0.000000e+00
1.000000e+00
5.636637e-01
5.537824e-01
5.428939e-01
5.317809e-01
5.212576e-01
5.124360e-01
5.065208e-01
5.044697e-01
5.066438e-01
5.126561e-01
5.215144e-01
5.321525e-01
5.432168e-01
5.539695e-01
5.634382e-01
0.000000e+00
1.000000e+00
5.633675e-01
5.531943e-01
5.419716e-01
5.305199e-01
5.196758e-01
5.105855e-01
5.044900e-01
5.023754e-01
5.046150e-01
5.108123e-01
5.199419e-01
5.308796e-01
5.423250e-01
5.533786e-01
5.631520e-01
0.000000e+00
1.000000e+00
5.633125e-01
5.530421e-01
5.417356e-01
5.301972e-01
5.192704e-01
5.101098e-01
5.039671e-01
5.018370e-01
5.040941e-01
5.103396e-01
5.195453e-01
5.305469e-01
5.420702e-01
5.532271e-01
5.631100e-01
0.000000e+00
1.000000e+00
5.634298e-01
5.532911e-01
5.421226e-01
5.307275e-01
5.199362e-01
5.108887e-01
5.048212e-01
5.027169e-01
5.049463e-01
5.111152e-01
5.202145e-01
5.310597e-01
5.424452e-01
5.535686e-01
5.631836e-01
0.000000e+00
1.000000e+00
5.638800e-01
5.538689e-01
5.430461e-01
5.319938e-01
5.215278e-01
5.127530e-01
5.068679e-01
5.048265e-01
5.069888e-01
5.129728e-01
5.218019e-01
5.323123e-01
5.434048e-01
5.545543e-01
5.624490e-01
0.000000e+00
1.000000e+00
5.740857e-01
5.745531e-01
5.754667e-01
5.763704e-01
5.772276e-01
5.779477e-01
5.784323e-01
5.786025e-01
5.784283e-01
5.779431e-01
5.772285e-01
5.763805e-01
5.755139e-01
5.746407e-01
5.733311e-01
0.000000e+00
1.000000e+00
5.735833e-01
5.736267e-01
5.739977e-01
5.743588e-01
5.747013e-01
5.749887e-01
5.751816e-01
5.752477e-01
5.751739e-01
5.749748e-01
5.746904e-01
5.743664e-01
5.740461e-01
5.737010e-01
5.731567e-01
0.000000e+00
1.000000e+00
5.729172e-01
5.723357e-01
5.719657e-01
5.715759e-01
5.712065e-01
5.708965e-01
5.706877e-01
5.706129e-01
5.706845e-01
5.708908e-01
5.712149e-01
5.716049e-01
5.720266e-01
5.723870e-01
5.725336e-01
0.000000e+00
1.000000e+00
5.720949e-01
5.706753e-01
5.693590e-01
5.680074e-01
5.667266e-01
5.656517e-01
5.649292e-01
5.646758e-01
5.649372e-01
5.656705e-01
5.667728e-01
5.680685e-01
5.694297e-01
5.707545e-01
5.715226e-01
0.000000e+00
1.000000e+00
5.710739e-01
5.686683e-01
5.662138e-01
5.637013e-01
5.613204e-01
5.593229e-01
5.579817e-01
5.575145e-01
5.580057e-01
5.593732e-01
5.614014e-01
5.638026e-01
5.663109e-01
5.687879e-01
5.705783e-01
0.000000e+00
1.000000e+00
5.699233e-01
5.663722e-01
5.626187e-01
5.587788e-01
5.551407e-01
5.520893e-01
5.500421e-01
5.493310e-01
5.500835e-01
5.521711e-01
5.552513e-01
5.589214e-01
5.627425e-01
5.665106e-01
5.694755e-01
0.000000e+00
1.000000e+00
5.686859e-01
5.638811e-01
5.587201e-01
5.534413e-01
5.484408e-01
5.442479e-01
5.414361e-01
5.404614e-01
5.414962e-01
5.443624e-01
5.485833e-01
5.536242e-01
5.588698e-01
5.640382e-01
5.682557e-01
0.000000e+00
1.000000e+00
5.674161e-01
5.613216e-01
5.547153e-01
5.479588e-01
5.415600e-01
5.361958e-01
5.325999e-01
5.313542e-01
5.326785e-01
5.363439e-01
5.417390e-01
5.481870e-01
5.548914e-01
5.614963e-01
5.670164e-01
0.000000e+00
1.000000e+00
5.661922e-01
5.588399e-01
5.508326e-01
5.426443e-01
5.348906e-01
5.283919e-01
5.240359e-01
5.225275e-01
5.241321e-01
5.285708e-01
5.351061e-01
5.429239e-01
5.510370e-01
5.590260e-01
5.658384e-01
0.000000e+00
1.000000e+00
5.650878e-01
5.565858e-01
5.473040e-01
5.378148e-01
5.288303e-01
5.213005e-01
5.162535e-01
5.145059e-01
5.163648e-01
5.215047e-01
5.290783e-01
5.381441e-01
5.475388e-01
5.567873e-01
5.647784e-01
0.000000e+00
1.000000e+00
5.641605e-01
5.546904e-01
5.443339e-01
5.337500e-01
5.237294e-01
5.153313e-01
5.097022e-01
5.077526e-01
5.098250e-01
5.155543e-01
5.240018e-01
5.341197e-01
5.446010e-01
5.548920e-01
5.638841e-01
0.000000e+00
1.000000e+00
5.634461e-01
5.532489e-01
5.420733e-01
5.306567e-01
5.198476e-01
5.107884e-01
5.047155e-01
5.026114e-01
5.048459e-01
5.110238e-01
5.201363e-01
5.310457e-01
5.423807e-01
5.534560e-01
5.632003e-01
0.000000e+00
1.000000e+00
5.629705e-01
5.523146e-01
5.406055e-01
5.286490e-01
5.173282e-01
5.078391e-01
5.014770e-01
4.992723e-01
5.016128e-01
5.080844e-01
5.176281e-01
5.290327e-01
5.409562e-01
5.525256e-01
5.627561e-01
0.000000e+00
1.000000e+00
5.627720e-01
5.518923e-01
5.399441e-01
5.277452e-01
5.161947e-01
5.065127e-01
5.000207e-01
4.977698e-01
5.001574e-01
5.067628e-01
5.165033e-01
5.281052e-01
5.403235e-01
5.521319e-01
5.625325e-01
0.000000e+00
1.000000e+00
5.628088e-01
5.519550e-01
5.400431e-01
5.278805e-01
5.163641e-01
5.067108e-01
5.002387e-01
4.979957e-01
5.003765e-01
5.069630e-01
5.166799e-01
5.282255e-01
5.403872e-01
5.522002e-01
5.625792e-01
0.000000e+00
1.000000e+00
5.630498e-01
5.524514e-01
5.408153e-01
5.289377e-01
5.176902e-01
5.082614e-01
5.019394e-01
4.997483e-01
5.020737e-01
5.085063e-01
5.179974e-01
5.292656e-01
5.411566e-01
5.527736e-01
5.627829e-01
0.000000e+00
1.000000e+00
5.636050e-01
5.532901e-01
5.421431e-01
5.307579e-01
5.199769e-01
5.109391e-01
5.048788e-01
5.027780e-01
5.050073e-01
5.111742e-01
5.202665e-01
5.310919e-01
5.425334e-01
5.539453e-01
5.622104e-01
0.000000e+00
1.000000e+00
5.746184e-01
5.755872e-01
5.771029e-01
5.786105e-01
5.800402e-01
5.812415e-01
5.820507e-01
5.823367e-01
5.820500e-01
5.812454e-01
5.800623e-01
5.786512e-01
5.771934e-01
5.757188e-01
5.737009e-01
0.000000e+00
1.000000e+00
5.740150e-01
5.744564e-01
5.753045e-01
5.761479e-01
5.769479e-01
5.776202e-01
5.780726e-01
5.782309e-01
5.780663e-01
5.776097e-01
5.769467e-01
5.761748e-01
5.753951e-01
5.745780e-01
5.733860e-01
0.000000e+00
1.000000e+00
5.732280e-01
5.729333e-01
5.728970e-01
5.728521e-01
5.728100e-01
5.727748e-01
5.727511e-01
5.727413e-01
5.727461e-01
5.727659e-01
5.728158e-01
5.728914e-01
5.729952e-01
5.730251e-01
5.726815e-01
0.000000e+00
1.000000e+00
5.722404e-01
5.710078e-01
5.698770e-01
5.687170e-01
5.676180e-01
5.666963e-01
5.660773e-01
5.658605e-01
5.660846e-01
5.667128e-01
5.676679e-01
5.687901e-01
5.699878e-01
5.711142e-01
5.715668e-01
0.000000e+00
1.000000e+00
5.711111e-01
5.687182e-01
5.662904e-01
5.638063e-01
5.614530e-01
5.594797e-01
5.581561e-01
5.576963e-01
5.581836e-01
5.595369e-01
5.615498e-01
5.639149e-01
5.664168e-01
5.688584e-01
5.704616e-01
0.000000e+00
1.000000e+00
5.698399e-01
5.661366e-01
5.622484e-01
5.582724e-01
5.545062e-01
5.513487e-01
5.492323e-01
5.484995e-01
5.492814e-01
5.514450e-01
5.546421e-01
5.584237e-01
5.623926e-01
5.662952e-01
5.692636e-01
0.000000e+00
1.000000e+00
5.684871e-01
5.633738e-01
5.579253e-01
5.523539e-01
5.470777e-01
5.426552e-01
5.396917e-01
5.386668e-01
5.397615e-01
5.427885e-01
5.472497e-01
5.525540e-01
5.580963e-01
5.635520e-01
5.679731e-01
0.000000e+00
1.000000e+00
5.671171e-01
5.605750e-01
5.535491e-01
5.463633e-01
5.395599e-01
5.338586e-01
5.300385e-01
5.287174e-01
5.301280e-01
5.340282e-01
5.397701e-01
5.466119e-01
5.537434e-01
5.607716e-01
5.666738e-01
0.000000e+00
1.000000e+00
5.658159e-01
5.579074e-01
5.493784e-01
5.406549e-01
5.323971e-01
5.254779e-01
5.208415e-01
5.192376e-01
5.209487e-01
5.256805e-01
5.326449e-01
5.409563e-01
5.495996e-01
5.581161e-01
5.654322e-01
0.000000e+00
1.000000e+00
5.646508e-01
5.555363e-01
5.456695e-01
5.355789e-01
5.260280e-01
5.180253e-01
5.126624e-01
5.108066e-01
5.127844e-01
5.182547e-01
5.263095e-01
5.359284e-01
5.459205e-01
5.557521e-01
5.643019e-01
0.000000e+00
1.000000e+00
5.636888e-01
5.536016e-01
5.426405e-01
5.314336e-01
5.208262e-01
5.119378e-01
5.059806e-01
5.039182e-01
5.061135e-01
5.121855e-01
5.211351e-01
5.318193e-01
5.429242e-01
5.538173e-01
5.633537e-01
0.000000e+00
1.000000e+00
5.629796e-01
5.522001e-01
5.404431e-01
5.284269e-01
5.170523e-01
5.075203e-01
5.011311e-01
4.989182e-01
5.012712e-01
5.077793e-01
5.173827e-01
5.288295e-01
5.407640e-01
5.524297e-01
5.626551e-01
0.000000e+00
1.000000e+00
5.625416e-01
5.513780e-01
5.391487e-01
5.266557e-01
5.148286e-01
5.049165e-01
4.982722e-01
4.959713e-01
4.984183e-01
5.051848e-01
5.151741e-01
5.270556e-01
5.395012e-01
5.516259e-01
5.622406e-01
0.000000e+00
1.000000e+00
5.624534e-01
5.511242e-01
5.387509e-01
5.261119e-01
5.141457e-01
5.041163e-01
4.973925e-01
4.950632e-01
4.975391e-01
5.043874e-01
5.144965e-01
5.264884e-01
5.391012e-01
5.514128e-01
5.620820e-01
0.000000e+00
1.000000e+00
5.625713e-01
5.513941e-01
5.391729e-01
5.266896e-01
5.148713e-01
5.049661e-01
4.983264e-01
4.960267e-01
4.984722e-01
5.052364e-01
5.152221e-01
5.270475e-01
5.394967e-01
5.516972e-01
5.622216e-01
0.000000e+00
1.000000e+00
5.629337e-01
5.521237e-01
5.403072e-01
5.282410e-01
5.168165e-01
5.072408e-01
5.008216e-01
4.985983e-01
5.009623e-01
5.074998e-01
5.171463e-01
5.285801e-01
5.406522e-01
5.524696e-01
5.625380e-01
0.000000e+00
1.000000e+00
5.635731e-01
5.532021e-01
5.420061e-01
5.305695e-01
5.197408e-01
5.106641e-01
5.045791e-01
5.024715e-01
5.047127e-01
5.109100e-01
5.200437e-01
5.309259e-01
5.423579e-01
5.537419e-01
5.624508e-01
0.000000e+00
1.000000e+00
5.752933e-01
5.768595e-01
5.791110e-01
5.813610e-01
5.834948e-01
5.852878e-01
5.864954e-01
5.869225e-01
5.864975e-01
5.853062e-01
5.835466e-01
5.814427e-01
5.792386e-01
5.770271e-01
5.743643e-01
0.000000e+00
1.000000e+00
5.745675e-01
5.755451e-01
5.770281e-01
5.785078e-01
5.799113e-01
5.810906e-01
5.818846e-01
5.821640e-01
5.818784e-01
5.810843e-01
5.799276e-01
5.785678e-01
5.771691e-01
5.757099e-01
5.739521e-01
0.000000e+00
1.000000e+00
5.736504e-01
5.738212e-01
5.742923e-01
5.747619e-01
5.752076e-01
5.755825e-01
5.758351e-01
5.759230e-01
5.758294e-01
5.755719e-01
5.752116e-01
5.748163e-01
5.744318e-01
5.739588e-01
5.732064e-01
0.000000e+00
1.000000e+00
5.725614e-01
5.716690e-01
5.709093e-01
5.701305e-01
5.693934e-01
5.687762e-01
5.683629e-01
5.682186e-01
5.683686e-01
5.687876e-01
5.694420e-01
5.702196e-01
5.710598e-01
5.718136e-01
5.720227e-01
0.000000e+00
1.000000e+00
5.713091e-01
5.691363e-01
5.669420e-01
5.646987e-01
5.625746e-01
5.607945e-01
5.596017e-01
5.591885e-01
5.596297e-01
5.608519e-01
5.626800e-01
5.648215e-01
5.671166e-01
5.693219e-01
5.708206e-01
0.000000e+00
1.000000e+00
5.699288e-01
5.663110e-01
5.625195e-01
5.586435e-01
5.549731e-01
5.518976e-01
5.498379e-01
5.491271e-01
5.498917e-01
5.520024e-01
5.551275e-01
5.588004e-01
5.626976e-01
5.665120e-01
5.694906e-01
0.000000e+00
1.000000e+00
5.684826e-01
5.633205e-01
5.578397e-01
5.522373e-01
5.469331e-01
5.424890e-01
5.395129e-01
5.384864e-01
5.395899e-01
5.426356e-01
5.471311e-01
5.524364e-01
5.580311e-01
5.635317e-01
5.680093e-01
0.000000e+00
1.000000e+00
5.670603e-01
5.603288e-01
5.531590e-01
5.458308e-01
5.388946e-01
5.330836e-01
5.291914e-01
5.278473e-01
5.292881e-01
5.332678e-01
5.391346e-01
5.460831e-01
5.533706e-01
5.605456e-01
5.665145e-01
0.000000e+00
1.000000e+00
5.657152e-01
5.575171e-01
5.487619e-01
5.398136e-01
5.313455e-01
5.242512e-01
5.194981e-01
5.178552e-01
5.196120e-01
5.244682e-01
5.316252e-01
5.401204e-01
5.489948e-01
5.577416e-01
5.651611e-01
0.000000e+00
1.000000e+00
5.645100e-01
5.550608e-01
5.449242e-01
5.345627e-01
5.247576e-01
5.165424e-01
5.110372e-01
5.091330e-01
5.111654e-01
5.167860e-01
5.250717e-01
5.349180e-01
5.451789e-01
5.552905e-01
5.640177e-01
0.000000e+00
1.000000e+00
5.635215e-01
5.531081e-01
5.418743e-01
5.303893e-01
5.195202e-01
5.104127e-01
5.043087e-01
5.021960e-01
5.044475e-01
5.106751e-01
5.198611e-01
5.307791e-01
5.421508e-01
5.533443e-01
5.631475e-01
0.000000e+00
1.000000e+00
5.628145e-01
5.517594e-01
5.397621e-01
5.274978e-01
5.158900e-01
5.061628e-01
4.996428e-01
4.973853e-01
4.997886e-01
5.064369e-01
5.162525e-01
5.279031e-01
5.400575e-01
5.520090e-01
5.625754e-01
0.000000e+00
1.000000e+00
5.624261e-01
5.510481e-01
5.386434e-01
5.259665e-01
5.139672e-01
5.039117e-01
4.971717e-01
4.948381e-01
4.973224e-01
5.041936e-01
5.143440e-01
5.263702e-01
5.389464e-01
5.513275e-01
5.622714e-01
0.000000e+00
1.000000e+00
5.623957e-01
5.509527e-01
5.384921e-01
5.257592e-01
5.137058e-01
5.036047e-01
4.968341e-01
4.944902e-01
4.969865e-01
5.038899e-01
5.140839e-01
5.261507e-01
5.387918e-01
5.512937e-01
5.621905e-01
0.000000e+00
1.000000e+00
5.626086e-01
5.514124e-01
5.392088e-01
5.267394e-01
5.149357e-01
5.050442e-01
4.984146e-01
4.961200e-01
4.985648e-01
5.053251e-01
5.153040e-01
5.271197e-01
5.395098e-01
5.517792e-01
5.624568e-01
0.000000e+00
1.000000e+00
5.630683e-01
5.523474e-01
5.406602e-01
5.287238e-01
5.174237e-01
5.079536e-01
5.016064e-01
4.994098e-01
5.017502e-01
5.082202e-01
5.177643e-01
5.290845e-01
5.409698e-01
5.527298e-01
5.627892e-01
0.000000e+00
1.000000e+00
5.637794e-01
5.536323e-01
5.426776e-01
5.314875e-01
5.208933e-01
5.120143e-01
5.060632e-01
5.040039e-01
5.061990e-01
5.122652e-01
5.212049e-01
5.318539e-01
5.429819e-01
5.540520e-01
5.631062e-01
0.000000e+00
1.000000e+00
5.760516e-01
5.783196e-01
5.814155e-01
5.845160e-01
5.874567e-01
5.899282e-01
5.915934e-01
5.921841e-01
5.916025e-01
5.899701e-01
5.875400e-01
5.846331e-01
5.815716e-01
5.785428e-01
5.750384e-01
0.000000e+00
1.000000e+00
5.752482e-01
5.768552e-01
5.790930e-01
5.813363e-01
5.834640e-01
5.852522e-01
5.864566e-01
5.868820e-01
5.864532e-01
5.852600e-01
5.835114e-01
5.814417e-01
5.792760e-01
5.770767e-01
5.744730e-01
0.000000e+00
1.000000e+00
5.742200e-01
5.749618e-01
5.760913e-01
5.772252e-01
5.783008e-01
5.792049e-01
5.798139e-01
5.800277e-01
5.798073e-01
5.791949e-01
5.783123e-01
5.773070e-01
5.762812e-01
5.752107e-01
5.735132e-01
0.000000e+00
1.000000e+00
5.730124e-01
5.726319e-01
5.724173e-01
5.721944e-01
5.719843e-01
5.718103e-01
5.716959e-01
5.716569e-01
5.716992e-01
5.718140e-01
5.720212e-01
5.722981e-01
5.725987e-01
5.729334e-01
5.720438e-01
0.000000e+00
1.000000e+00
5.716695e-01
5.699077e-01
5.681469e-01
5.663481e-01
5.646460e-01
5.632217e-01
5.622690e-01
5.619400e-01
5.622944e-01
5.632714e-01
5.647518e-01
5.664880e-01
5.683674e-01
5.703283e-01
5.704748e-01
0.000000e+00
1.000000e+00
5.702037e-01
5.668935e-01
5.634291e-01
5.598895e-01
5.565396e-01
5.537334e-01
5.518560e-01
5.512101e-01
5.519104e-01
5.538384e-01
5.567024e-01
5.600641e-01
5.636678e-01
5.674097e-01
5.691173e-01
0.000000e+00
1.000000e+00
5.686943e-01
5.637330e-01
5.584834e-01
5.531190e-01
5.480424e-01
5.437897e-01
5.409441e-01
5.399651e-01
5.410242e-01
5.439421e-01
5.482547e-01
5.533229e-01
5.587203e-01
5.642497e-01
5.679897e-01
0.000000e+00
1.000000e+00
5.672173e-01
5.606050e-01
5.535854e-01
5.464164e-01
5.396327e-01
5.339502e-01
5.301454e-01
5.288336e-01
5.302454e-01
5.341408e-01
5.398913e-01
5.466575e-01
5.538290e-01
5.610695e-01
5.667238e-01
0.000000e+00
1.000000e+00
5.658891e-01
5.577037e-01
5.490392e-01
5.401976e-01
5.318313e-01
5.248221e-01
5.201265e-01
5.185046e-01
5.202427e-01
5.250441e-01
5.321321e-01
5.404869e-01
5.492941e-01
5.580989e-01
5.654583e-01
0.000000e+00
1.000000e+00
5.646992e-01
5.552059e-01
5.451349e-01
5.348570e-01
5.251309e-01
5.169810e-01
5.115194e-01
5.096311e-01
5.116491e-01
5.172281e-01
5.254669e-01
5.351929e-01
5.454019e-01
5.555457e-01
5.643159e-01
0.000000e+00
1.000000e+00
5.636935e-01
5.532588e-01
5.421054e-01
5.307110e-01
5.199273e-01
5.108904e-01
5.048335e-01
5.027379e-01
5.049735e-01
5.111556e-01
5.202888e-01
5.310823e-01
5.423839e-01
5.536147e-01
5.633187e-01
0.000000e+00
1.000000e+00
5.629614e-01
5.519709e-01
5.400950e-01
5.279567e-01
5.164683e-01
5.068408e-01
5.003879e-01
4.981547e-01
5.005357e-01
5.071192e-01
5.168455e-01
5.283482e-01
5.403829e-01
5.524232e-01
5.625566e-01
0.000000e+00
1.000000e+00
5.626973e-01
5.513662e-01
5.391469e-01
5.266576e-01
5.148362e-01
5.049297e-01
4.982894e-01
4.959908e-01
4.984397e-01
5.052130e-01
5.152155e-01
5.270545e-01
5.394517e-01
5.519750e-01
5.621213e-01
0.000000e+00
1.000000e+00
5.626698e-01
5.514054e-01
5.392092e-01
5.267427e-01
5.149434e-01
5.050562e-01
4.984298e-01
4.961369e-01
4.985824e-01
5.053445e-01
5.153218e-01
5.271394e-01
5.395254e-01
5.521297e-01
5.620956e-01
0.000000e+00
1.000000e+00
5.629331e-01
5.520240e-01
5.401730e-01
5.280602e-01
5.165955e-01
5.069890e-01
5.005516e-01
4.983251e-01
5.007017e-01
5.072716e-01
5.169608e-01
5.284496e-01
5.404874e-01
5.527741e-01
5.624700e-01
0.000000e+00
1.000000e+00
5.634462e-01
5.531235e-01
5.418800e-01
5.303942e-01
5.195216e-01
5.104108e-01
5.043059e-01