<?xml version="1.0"?>
<VTKFile type="StructuredGrid" version="0.1">
  <StructuredGrid WholeExtent="0 16 0 16 0 16">
    <Piece Extent="0 16 0 16 0 16">
      <PointData Scalars="temperature" Vectors="velocity">
        <DataArray type="Float32" Name="temperature" format="ascii">
1.000000e+00
5.736277e-01
5.736622e-01
5.740619e-01
5.744469e-01
5.748124e-01
5.751197e-01
5.753265e-01
5.753974e-01
5.753189e-01
5.751044e-01
5.747945e-01
5.745171e-01
5.741967e-01
5.738255e-01
5.728208e-01
0.000000e+00
1.000000e+00
5.728166e-01
5.721410e-01
5.716662e-01
5.711667e-01
5.706938e-01
5.702973e-01
5.700308e-01
5.699357e-01
5.700283e-01
5.702927e-01
5.706996e-01
5.713170e-01
5.718205e-01
5.723073e-01
5.721019e-01
0.000000e+00
1.000000e+00
5.718827e-01
5.703369e-01
5.688312e-01
5.672857e-01
5.658215e-01
5.645933e-01
5.637680e-01
5.634782e-01
5.637763e-01
5.646116e-01
5.658682e-01
5.674910e-01
5.690252e-01
5.705170e-01
5.712404e-01
0.000000e+00
1.000000e+00
5.708404e-01
5.682855e-01
5.656125e-01
5.628793e-01
5.602898e-01
5.581174e-01
5.566588e-01
5.561496e-01
5.566821e-01
5.581638e-01
5.603779e-01
5.630978e-01
5.658187e-01
5.684634e-01
5.702607e-01
0.000000e+00
1.000000e+00
5.697309e-01
5.660480e-01
5.621054e-01
5.580779e-01
5.542619e-01
5.510607e-01
5.489121e-01
5.481645e-01
5.489517e-01
5.511351e-01
5.543864e-01
5.583070e-01
5.623136e-01
5.662234e-01
5.692024e-01
0.000000e+00
1.000000e+00
5.685894e-01
5.637116e-01
5.584440e-01
5.530647e-01
5.479682e-01
5.436931e-01
5.408245e-01
5.398286e-01
5.408811e-01
5.437965e-01
5.481276e-01
5.533126e-01
5.586523e-01
5.638837e-01
5.680860e-01
0.000000e+00
1.000000e+00
5.674485e-01
5.613821e-01
5.547950e-01
5.480682e-01
5.416955e-01
5.363508e-01
5.327658e-01
5.315223e-01
5.328394e-01
5.364841e-01
5.418908e-01
5.483403e-01
5.550045e-01
5.615534e-01
5.669735e-01
0.000000e+00
1.000000e+00
5.663670e-01
5.591768e-01
5.513445e-01
5.433441e-01
5.357655e-01
5.294107e-01
5.251493e-01
5.236723e-01
5.252399e-01
5.295737e-01
5.359973e-01
5.436487e-01
5.515557e-01
5.593454e-01
5.659156e-01
0.000000e+00
1.000000e+00
5.654192e-01
5.572174e-01
5.482817e-01
5.391512e-01
5.305034e-01
5.232534e-01
5.183927e-01
5.167091e-01
5.184983e-01
5.234433e-01
5.307703e-01
5.394909e-01
5.485030e-01
5.573812e-01
5.650112e-01
0.000000e+00
1.000000e+00
5.646705e-01
5.556156e-01
5.457780e-01
5.357239e-01
5.262030e-01
5.182224e-01
5.128724e-01
5.110194e-01
5.129888e-01
5.184332e-01
5.264964e-01
5.360895e-01
5.460284e-01
5.557539e-01
5.643178e-01
0.000000e+00
1.000000e+00
5.641517e-01
5.544565e-01
5.439658e-01
5.332444e-01
5.230932e-01
5.145847e-01
5.088806e-01
5.069044e-01
5.090035e-01
5.148089e-01
5.234050e-01
5.336035e-01
5.442790e-01
5.545717e-01
5.637138e-01
0.000000e+00
1.000000e+00
5.638798e-01
5.537919e-01
5.429278e-01
5.318258e-01
5.213147e-01
5.125042e-01
5.065969e-01
5.045493e-01
5.067217e-01
5.127332e-01
5.216382e-01
5.321483e-01
5.432978e-01
5.539484e-01
5.629975e-01
0.000000e+00
1.000000e+00
5.638613e-01
5.536415e-01
5.426909e-01
5.315030e-01
5.209101e-01
5.120305e-01
5.060760e-01
5.040108e-01
5.061989e-01
5.122568e-01
5.212421e-01
5.317872e-01
5.430548e-01
5.539094e-01
5.624416e-01
0.000000e+00
1.000000e+00
5.640551e-01
5.539844e-01
5.432262e-01
5.322358e-01
5.218295e-01
5.131054e-01
5.072545e-01
5.052242e-01
5.073722e-01
5.133221e-01
5.221520e-01
5.324956e-01
5.435976e-01
5.545021e-01
5.615011e-01
0.000000e+00
1.000000e+00
5.644160e-01
5.547708e-01
5.444593e-01
5.339240e-01
5.239474e-01
5.155831e-01
5.099728e-01
5.080250e-01
5.100829e-01
5.157851e-01
5.242367e-01
5.341926e-01
5.448489e-01
5.554529e-01
5.615283e-01
0.000000e+00
1.000000e+00
5.649406e-01
5.559350e-01
5.462856e-01
5.364243e-01
5.270855e-01
5.192555e-01
5.140032e-01
5.121791e-01
5.141045e-01
5.194401e-01
5.273318e-01
5.367189e-01
5.466593e-01
5.567673e-01
5.624189e-01
0.000000e+00
1.000000e+00
5.654898e-01
5.574051e-01
5.485818e-01
5.395675e-01
5.310315e-01
5.238752e-01
5.190760e-01
5.174112e-01
5.191736e-01
5.240512e-01
5.312545e-01
5.398800e-01
5.489369e-01
5.587633e-01
5.611307e-01
0.000000e+00
1.000000e+00
5.728744e-01
5.722105e-01
5.717835e-01
5.713271e-01
5.708946e-01
5.705316e-01
5.702870e-01
5.701995e-01
5.702837e-01
5.705265e-01
5.709009e-01
5.714308e-01
5.718943e-01
5.723647e-01
5.721017e-01
0.000000e+00
1.000000e+00
5.720583e-01
5.706262e-01
5.692928e-01
5.679171e-01
5.666135e-01
5.655195e-01
5.647838e-01
5.645250e-01
5.647902e-01
5.655353e-01
5.666595e-01
5.680746e-01
5.694317e-01
5.707843e-01
5.713627e-01
0.000000e+00
1.000000e+00
5.711083e-01
5.687553e-01
5.663553e-01
5.638956e-01
5.615649e-01
5.596092e-01
5.582953e-01
5.578357e-01
5.583140e-01
5.596485e-01
5.616449e-01
5.640762e-01
5.665366e-01
5.689314e-01
5.704758e-01
0.000000e+00
1.000000e+00
5.700417e-01
5.666361e-01
5.630316e-01
5.593455e-01
5.558527e-01
5.529222e-01
5.509544e-01
5.502686e-01
5.509878e-01
5.529866e-01
5.559641e-01
5.595377e-01
5.632151e-01
5.668074e-01
5.694442e-01
0.000000e+00
1.000000e+00
5.689058e-01
5.643352e-01
5.594259e-01
5.544091e-01
5.496557e-01
5.456681e-01
5.429915e-01
5.420609e-01
5.430408e-01
5.457594e-01
5.497999e-01
5.546201e-01
5.596169e-01
5.645121e-01
5.683379e-01
0.000000e+00
1.000000e+00
5.677329e-01
5.619471e-01
5.556855e-01
5.492879e-01
5.432269e-01
5.381433e-01
5.347325e-01
5.335481e-01
5.347985e-01
5.382637e-01
5.434072e-01
5.495249e-01
5.558828e-01
5.621265e-01
5.671901e-01
0.000000e+00
1.000000e+00
5.665796e-01
5.595877e-01
5.519931e-01
5.442326e-01
5.368812e-01
5.307166e-01
5.265821e-01
5.251476e-01
5.266655e-01
5.308674e-01
5.371019e-01
5.444994e-01
5.521974e-01
5.597741e-01
5.660559e-01
0.000000e+00
1.000000e+00
5.655230e-01
5.573874e-01
5.485528e-01
5.395224e-01
5.309696e-01
5.237992e-01
5.189912e-01
5.173244e-01
5.190910e-01
5.239792e-01
5.312320e-01
5.398238e-01
5.487650e-01
5.575773e-01
5.649942e-01
0.000000e+00
1.000000e+00
5.646210e-01
5.554780e-01
5.455685e-01
5.354370e-01
5.258432e-01
5.178016e-01
5.124102e-01
5.105418e-01
5.125234e-01
5.180070e-01
5.261437e-01
5.357662e-01
5.457952e-01
5.556740e-01
5.640766e-01
0.000000e+00
1.000000e+00
5.639189e-01
5.539753e-01
5.432202e-01
5.322234e-01
5.218122e-01
5.130862e-01
5.072360e-01
5.052083e-01
5.073586e-01
5.133103e-01
5.221374e-01
5.325775e-01
5.434629e-01
5.541679e-01
5.633687e-01
0.000000e+00
1.000000e+00
5.634655e-01
5.529675e-01
5.416438e-01
5.300675e-01
5.191086e-01
5.099235e-01
5.037651e-01
5.016297e-01
5.038928e-01
5.101584e-01
5.194416e-01
5.304364e-01
5.419217e-01
5.531449e-01
5.630100e-01
0.000000e+00
1.000000e+00
5.632706e-01
5.525034e-01
5.409163e-01
5.290730e-01
5.178612e-01
5.084637e-01
5.021621e-01
4.999764e-01
5.022912e-01
5.087016e-01
5.181920e-01
5.294235e-01
5.412435e-01
5.526715e-01
5.628532e-01
0.000000e+00
1.000000e+00
5.632923e-01
5.525907e-01
5.410493e-01
5.292544e-01
5.180878e-01
5.087277e-01
5.024508e-01
5.002730e-01
5.025778e-01
5.089613e-01
5.184157e-01
5.295683e-01
5.413935e-01
5.527579e-01
5.630742e-01
0.000000e+00
1.000000e+00
5.635335e-01
5.531980e-01
5.419936e-01
5.305449e-01
5.197053e-01
5.106189e-01
5.045253e-01
5.024106e-01
5.046470e-01
5.108421e-01
5.200185e-01
5.308479e-01
5.423381e-01
5.534116e-01
5.627916e-01
0.000000e+00
1.000000e+00
5.639887e-01
5.542614e-01
5.436518e-01
5.328143e-01
5.225517e-01
5.139483e-01
5.081783e-01
5.061755e-01
5.082923e-01
5.141558e-01
5.228330e-01
5.331324e-01
5.439667e-01
5.545155e-01
5.630290e-01
0.000000e+00
1.000000e+00
5.646446e-01
5.557003e-01
5.458992e-01
5.358917e-01
5.264138e-01
5.184672e-01
5.131372e-01
5.112869e-01
5.132415e-01
5.186558e-01
5.266578e-01
5.362188e-01
5.462114e-01
5.561056e-01
5.637818e-01
0.000000e+00
1.000000e+00
5.655082e-01
5.574252e-01
5.486007e-01
5.395914e-01
5.310584e-01
5.239031e-01
5.191030e-01
5.174358e-01
5.191952e-01
5.240693e-01
5.312688e-01
5.399181e-01
5.489387e-01
5.584367e-01
5.616779e-01
0.000000e+00
1.000000e+00
5.722448e-01
5.709539e-01
5.698129e-01
5.686288e-01
5.675064e-01
5.665640e-01
5.659298e-01
5.657059e-01
5.659330e-01
5.665742e-01
5.675398e-01
5.687339e-01
5.699142e-01
5.711004e-01
5.714905e-01
0.000000e+00
1.000000e+00
5.714190e-01
5.693221e-01
5.672492e-01
5.651190e-01
5.631002e-01
5.614054e-01
5.602660e-01
5.598666e-01
5.602799e-01
5.614364e-01
5.631660e-01
5.652470e-01
5.673669e-01
5.694680e-01
5.707516e-01
0.000000e+00
1.000000e+00
5.704557e-01
5.674002e-01
5.642333e-01
5.609900e-01
5.579166e-01
5.553372e-01
5.536043e-01
5.529989e-01
5.536303e-01
5.553899e-01
5.580107e-01
5.611412e-01
5.643861e-01
5.675591e-01
5.698508e-01
0.000000e+00
1.000000e+00
5.693733e-01
5.652294e-01
5.608301e-01
5.563310e-01
5.520677e-01
5.484905e-01
5.460884e-01
5.452513e-01
5.461283e-01
5.485671e-01
5.521912e-01
5.565006e-01
5.609907e-01
5.653908e-01
5.688003e-01
0.000000e+00
1.000000e+00
5.682170e-01
5.628817e-01
5.571523e-01
5.512959e-01
5.457472e-01
5.410923e-01
5.379679e-01
5.368810e-01
5.380234e-01
5.411960e-01
5.459060e-01
5.514905e-01
5.573244e-01
5.630516e-01
5.676814e-01
0.000000e+00
1.000000e+00
5.670279e-01
5.604586e-01
5.533595e-01
5.461034e-01
5.392295e-01
5.334641e-01
5.295960e-01
5.282518e-01
5.296685e-01
5.335978e-01
5.394301e-01
5.463287e-01
5.535424e-01
5.606355e-01
5.665247e-01
0.000000e+00
1.000000e+00
5.658755e-01
5.580871e-01
5.496502e-01
5.410253e-01
5.328559e-01
5.260058e-01
5.214113e-01
5.198163e-01
5.215011e-01
5.261702e-01
5.331033e-01
5.412838e-01
5.498454e-01
5.582739e-01
5.653941e-01
0.000000e+00
1.000000e+00
5.648409e-01
5.559097e-01
5.462448e-01
5.363631e-01
5.270054e-01
5.191608e-01
5.139003e-01
5.120752e-01
5.140056e-01
5.193542e-01
5.272986e-01
5.366538e-01
5.464510e-01
5.561023e-01
5.643500e-01
0.000000e+00
1.000000e+00
5.639808e-01
5.540654e-01
5.433603e-01
5.324151e-01
5.220528e-01
5.133674e-01
5.075434e-01
5.055231e-01
5.076610e-01
5.135847e-01
5.223821e-01
5.327412e-01
5.435744e-01
5.542612e-01
5.634730e-01
0.000000e+00
1.000000e+00
5.633502e-01
5.526741e-01
5.411850e-01
5.294400e-01
5.183222e-01
5.090038e-01
5.027552e-01
5.005872e-01
5.028813e-01
5.092382e-01
5.186683e-01
5.298133e-01
5.414092e-01
5.528673e-01
5.628092e-01
0.000000e+00
1.000000e+00
5.629913e-01
5.518250e-01
5.398558e-01
5.276241e-01
5.160459e-01
5.063410e-01
4.998326e-01
4.975740e-01
4.999634e-01
5.065848e-01
5.163906e-01
5.280305e-01
5.401191e-01
5.520171e-01
5.624122e-01
0.000000e+00
1.000000e+00
5.628819e-01
5.515603e-01
5.394422e-01
5.270594e-01
5.153377e-01
5.055119e-01
4.989221e-01
4.966349e-01
4.990538e-01
5.057573e-01
5.156715e-01
5.274565e-01
5.397611e-01
5.517451e-01
5.622698e-01
0.000000e+00
1.000000e+00
5.629700e-01
5.518767e-01
5.399399e-01
5.277384e-01
5.161881e-01
5.065061e-01
5.000127e-01
4.977588e-01
5.001419e-01
5.067454e-01
5.165129e-01
5.280921e-01
5.402865e-01
5.520626e-01
5.625487e-01
0.000000e+00
1.000000e+00
5.633029e-01
5.527350e-01
5.412784e-01
5.295672e-01
5.184801e-01
5.091865e-01
5.029538e-01
5.007904e-01
5.030772e-01
5.094134e-01
5.187845e-01
5.299067e-01
5.416240e-01
5.529431e-01
5.626365e-01
0.000000e+00
1.000000e+00
5.638897e-01
5.540565e-01
5.433384e-01
5.323859e-01
5.220149e-01
5.133210e-01
5.074903e-01
5.054665e-01
5.076054e-01
5.135301e-01
5.222862e-01
5.327400e-01
5.436286e-01
5.542706e-01
5.631716e-01
0.000000e+00
1.000000e+00
5.646759e-01
5.557466e-01
5.459749e-01
5.359956e-01
5.265446e-01
5.186207e-01
5.133059e-01
5.114609e-01
5.134100e-01
5.188081e-01
5.267826e-01
5.363429e-01
5.462545e-01
5.560595e-01
5.640827e-01
0.000000e+00
1.000000e+00
5.656565e-01
5.577031e-01
5.490359e-01
5.401872e-01
5.318060e-01
5.247784e-01
5.200641e-01
5.184273e-01
5.201560e-01
5.249430e-01
5.320153e-01
5.405215e-01
5.493351e-01
5.584477e-01
5.626035e-01
0.000000e+00
1.000000e+00
5.717587e-01
5.699739e-01
5.682770e-01
5.665258e-01
5.648659e-01
5.634720e-01
5.625342e-01
5.622045e-01
5.625429e-01
5.634934e-01
5.649127e-01
5.666105e-01
5.683588e-01
5.700803e-01
5.709615e-01
0.000000e+00
1.000000e+00
5.709263e-01
5.683170e-01
5.656747e-01
5.629632e-01
5.603932e-01
5.582356e-01
5.567852e-01
5.562773e-01
5.568037e-01
5.582750e-01
5.604640e-01
5.630650e-01
5.657669e-01
5.684439e-01
5.702800e-01
0.000000e+00
1.000000e+00
5.699603e-01
5.663680e-01
5.626168e-01
5.587767e-01
5.551376e-01
5.520833e-01
5.500312e-01
5.493144e-01
5.500611e-01
5.521429e-01
5.552344e-01
5.589042e-01
5.627443e-01
5.665150e-01
5.693798e-01
0.000000e+00
1.000000e+00
5.688716e-01
5.641703e-01
5.591721e-01
5.540608e-01
5.492176e-01
5.451538e-01
5.424247e-01
5.414733e-01
5.424684e-01
5.452374e-01
5.493463e-01
5.542107e-01
5.593120e-01
5.643266e-01
5.682999e-01
0.000000e+00
1.000000e+00
5.677090e-01
5.617999e-01
5.554604e-01
5.489794e-01
5.428393e-01
5.376884e-01
5.342310e-01
5.330276e-01
5.342905e-01
5.378003e-01
5.430082e-01
5.491574e-01
5.556172e-01
5.619692e-01
5.671651e-01
0.000000e+00
1.000000e+00
5.665260e-01
5.593659e-01
5.516521e-01
5.437659e-01
5.362956e-01
5.300306e-01
5.258270e-01
5.243655e-01
5.259038e-01
5.301734e-01
5.365121e-01
5.439741e-01
5.518244e-01
5.595478e-01
5.660014e-01
0.000000e+00
1.000000e+00
5.653945e-01
5.570044e-01
5.479589e-01
5.387102e-01
5.299512e-01
5.226071e-01
5.176807e-01
5.159695e-01
5.177744e-01
5.227807e-01
5.302182e-01
5.389510e-01
5.481445e-01
5.571986e-01
5.648790e-01
0.000000e+00
1.000000e+00
5.643844e-01
5.548665e-01
5.446148e-01
5.341332e-01
5.242090e-01
5.158893e-01
5.103093e-01
5.083719e-01
5.104176e-01
5.160909e-01
5.245211e-01
5.344156e-01
5.448108e-01
5.550687e-01
5.638635e-01
0.000000e+00
1.000000e+00
5.635658e-01
5.530986e-01
5.418489e-01
5.303496e-01
5.194639e-01
5.103389e-01
5.042186e-01
5.020936e-01
5.043380e-01
5.105623e-01
5.198068e-01
5.306830e-01
5.420506e-01
5.533066e-01
5.630203e-01
0.000000e+00
1.000000e+00
5.630192e-01
5.518287e-01
5.398567e-01
5.276273e-01
5.160508e-01
5.063462e-01
4.998367e-01
4.975762e-01
4.999636e-01
5.065844e-01
5.164054e-01
5.280195e-01
5.400720e-01
5.520307e-01
5.624083e-01
0.000000e+00
1.000000e+00
5.627753e-01
5.511435e-01
5.387746e-01
5.261500e-01
5.141987e-01
5.041789e-01
4.974575e-01
4.951231e-01
4.975881e-01
5.044241e-01
5.145465e-01
5.265814e-01
5.390300e-01
5.513231e-01
5.620908e-01
0.000000e+00
1.000000e+00
5.627226e-01
5.510673e-01
5.386613e-01
5.259952e-01
5.140041e-01
5.039506e-01
4.972066e-01
4.948643e-01
4.973375e-01
5.041951e-01
5.143366e-01
5.264243e-01
5.389661e-01
5.512402e-01
5.620380e-01
0.000000e+00
1.000000e+00
5.628413e-01
5.515929e-01
5.394961e-01
5.271336e-01
5.154305e-01
5.056193e-01
4.990381e-01
4.967525e-01
4.991658e-01
5.058559e-01
5.157495e-01
5.275255e-01
5.398089e-01
5.517688e-01
5.623787e-01
0.000000e+00
1.000000e+00
5.632889e-01
5.526775e-01
5.411888e-01
5.294456e-01
5.183285e-01
5.090092e-01
5.027583e-01
5.005876e-01
5.028796e-01
5.092316e-01
5.186234e-01
5.298143e-01
5.414984e-01
5.528639e-01
5.627399e-01
0.000000e+00
1.000000e+00
5.639870e-01
5.542212e-01
5.435986e-01
5.327429e-01
5.224642e-01
5.138475e-01
5.080680e-01
5.060612e-01
5.081801e-01
5.140510e-01
5.227262e-01
5.331108e-01
5.438699e-01
5.543980e-01
5.634378e-01
0.000000e+00
1.000000e+00
5.648695e-01
5.561214e-01
5.465644e-01
5.368031e-01
5.275585e-01
5.198080e-01
5.146099e-01
5.128057e-01
5.147119e-01
5.199909e-01
5.277916e-01
5.371485e-01
5.468224e-01
5.563446e-01
5.645129e-01
0.000000e+00
1.000000e+00
5.659381e-01
5.582676e-01
5.499205e-01
5.413982e-01
5.333263e-01
5.265575e-01
5.220175e-01
5.204421e-01
5.221082e-01
5.267193e-01
5.335342e-01
5.417223e-01
5.501855e-01
5.587603e-01
5.637724e-01
0.000000e+00
1.000000e+00
5.714586e-01
5.693493e-01
5.672992e-01
5.651871e-01
5.631849e-01
5.615036e-01
5.603726e-01
5.599756e-01
5.603843e-01
5.615304e-01
5.632332e-01
5.652516e-01
5.673642e-01
5.693402e-01
5.706773e-01
0.000000e+00
1.000000e+00
5.706366e-01
5.676979e-01
5.647052e-01
5.616357e-01
5.587264e-01
5.562840e-01
5.546420e-01
5.540670e-01
5.546624e-01
5.563263e-01
5.587950e-01
5.617162e-01
5.647798e-01
5.677795e-01
5.698022e-01
0.000000e+00
1.000000e+00
5.696684e-01
5.657536e-01
5.616550e-01
5.574600e-01
5.534845e-01
5.501479e-01
5.479060e-01
5.471226e-01
5.479374e-01
5.502099e-01
5.535798e-01
5.575676e-01
5.617642e-01
5.658873e-01
5.689975e-01
0.000000e+00
1.000000e+00
5.685793e-01
5.635611e-01
5.582200e-01
5.527576e-01
5.475817e-01
5.432388e-01
5.403222e-01
5.393050e-01
5.403673e-01
5.433254e-01
5.477116e-01
5.528886e-01
5.583476e-01
5.637152e-01
5.679715e-01
0.000000e+00
1.000000e+00
5.674270e-01
5.612006e-01
5.545249e-01
5.476992e-01
5.412326e-01
5.358078e-01
5.321665e-01
5.308985e-01
5.322276e-01
5.359234e-01
5.414056e-01
5.478560e-01
5.546720e-01
5.613724e-01
5.668625e-01
0.000000e+00
1.000000e+00
5.662670e-01
5.587865e-01
5.507478e-01
5.425286e-01
5.347431e-01
5.282138e-01
5.238326e-01
5.223088e-01
5.239107e-01
5.283605e-01
5.349660e-01
5.427164e-01
5.509119e-01
5.589754e-01
5.657202e-01
0.000000e+00
1.000000e+00
5.651662e-01
5.564615e-01
5.471101e-01
5.375493e-01
5.284952e-01
5.209035e-01
5.158104e-01
5.140405e-01
5.159049e-01
5.210804e-01
5.287683e-01
5.377778e-01
5.472903e-01
5.566637e-01
5.646099e-01
0.000000e+00
1.000000e+00
5.641934e-01
5.543813e-01
5.438556e-01
5.330968e-01
5.229099e-01
5.143693e-01
5.086401e-01
5.066495e-01
5.087481e-01
5.145723e-01
5.232266e-01
5.333715e-01
5.440448e-01
5.545962e-01
5.636204e-01
0.000000e+00
1.000000e+00
5.634444e-01
5.527016e-01
5.412232e-01
5.294977e-01
5.183967e-01
5.090896e-01
5.028457e-01
5.006762e-01
5.029636e-01
5.093117e-01
5.187416e-01
5.298278e-01
5.414163e-01
5.529145e-01
5.628197e-01
0.000000e+00
1.000000e+00
5.630021e-01
5.515597e-01
5.394131e-01
5.270253e-01
5.152966e-01
5.054621e-01
4.988637e-01
4.965707e-01
4.989879e-01
5.056961e-01
5.156517e-01
5.274112e-01
5.396183e-01
5.517528e-01
5.622707e-01
0.000000e+00
1.000000e+00
5.629244e-01
5.510363e-01
5.385589e-01
5.258589e-01
5.138329e-01
5.037484e-01
4.969822e-01
4.946307e-01
4.971092e-01
5.039869e-01
5.141793e-01
5.262856e-01
5.387882e-01
5.511909e-01
5.620089e-01
0.000000e+00
1.000000e+00
5.628412e-01
5.511134e-01
5.387069e-01
5.260605e-01
5.140854e-01
5.040439e-01
4.973065e-01
4.949651e-01
4.974329e-01
5.042795e-01
5.144151e-01
5.264932e-01
5.389654e-01
5.512790e-01
5.620505e-01
0.000000e+00
1.000000e+00
5.629687e-01
5.518036e-01
5.398223e-01
5.275826e-01
5.159945e-01
5.062781e-01
4.997591e-01
4.974940e-01
4.998818e-01
5.065043e-01
5.163079e-01
5.279847e-01
5.400782e-01
5.519880e-01
5.624369e-01
0.000000e+00
1.000000e+00
5.635093e-01
5.530662e-01
5.417993e-01
5.302838e-01
5.193818e-01
5.102418e-01
5.041097e-01
5.019790e-01
5.042249e-01
5.104528e-01
5.196688e-01
5.306587e-01
5.420546e-01
5.532537e-01
5.630169e-01
0.000000e+00
1.000000e+00
5.642801e-01
5.547828e-01
5.444810e-01
5.339524e-01
5.239838e-01
5.156267e-01
5.100209e-01
5.080737e-01
5.101270e-01
5.158196e-01
5.242383e-01
5.343145e-01
5.447116e-01
5.549431e-01
5.639634e-01
0.000000e+00
1.000000e+00
5.652347e-01
5.568413e-01
5.476932e-01
5.383477e-01
5.294984e-01
5.220798e-01
5.171038e-01
5.153770e-01
5.172015e-01
5.222542e-01
5.297258e-01
5.386774e-01
5.479168e-01
5.570076e-01
5.651806e-01
0.000000e+00
1.000000e+00
5.663635e-01
5.591223e-01
5.512592e-01
5.432300e-01
5.356256e-01
5.292500e-01
5.249734e-01
5.234890e-01
5.250591e-01
5.294047e-01
5.358290e-01
5.435321e-01
5.514906e-01
5.594461e-01
5.648922e-01
0.000000e+00
1.000000e+00
5.713762e-01
5.691485e-01
5.669855e-01
5.647576e-01
5.626457e-01
5.608723e-01
5.596793e-01
5.592605e-01
5.596913e-01
5.608992e-01
5.626885e-01
5.648040e-01
5.670361e-01
5.689667e-01
5.715257e-01
0.000000e+00
1.000000e+00
5.705662e-01
5.675394e-01
5.644570e-01
5.612961e-01
5.583002e-01
5.557851e-01
5.540941e-01
5.535019e-01
5.541144e-01
5.558268e-01
5.583626e-01
5.613579e-01
5.645189e-01
5.674882e-01
5.697231e-01
0.000000e+00
1.000000e+00
5.696157e-01
5.656381e-01
5.614758e-01
5.572149e-01
5.531770e-01
5.497881e-01
5.475110e-01
5.467150e-01
5.475420e-01
5.498494e-01
5.532668e-01
5.573018e-01
5.615703e-01
5.656978e-01
5.688429e-01
0.000000e+00
1.000000e+00
5.685645e-01
5.634915e-01
5.581132e-01
5.526115e-01
5.473986e-01
5.430247e-01
5.400872e-01
5.390624e-01
5.401318e-01
5.431108e-01
5.475237e-01
5.527228e-01
5.582307e-01
5.636058e-01
5.678660e-01
0.000000e+00
1.000000e+00
5.674460e-01
5.611807e-01
5.544954e-01
5.476585e-01
5.411817e-01
5.357489e-01
5.321020e-01
5.308316e-01
5.321622e-01
5.358640e-01
5.413498e-01
5.478006e-01
5.546403e-01
5.613433e-01
5.668167e-01
0.000000e+00
1.000000e+00
5.663231e-01
5.588222e-01
5.508036e-01
5.426044e-01
5.348386e-01
5.283268e-01
5.239565e-01
5.224360e-01
5.240331e-01
5.284722e-01
5.350562e-01
5.427790e-01
5.509683e-01
5.590164e-01
5.657181e-01
0.000000e+00
1.000000e+00
5.652610e-01
5.565616e-01
5.472640e-01
5.377598e-01
5.287601e-01
5.212150e-01
5.161517e-01
5.143914e-01
5.162438e-01
5.213890e-01
5.290279e-01
5.379746e-01
5.474427e-01
5.567733e-01
5.646458e-01
0.000000e+00
1.000000e+00
5.643426e-01
5.545588e-01
5.441261e-01
5.334680e-01
5.233772e-01
5.149173e-01
5.092399e-01
5.072666e-01
5.093445e-01
5.151148e-01
5.236880e-01
5.337274e-01
5.443132e-01
5.547763e-01
5.636894e-01
0.000000e+00
1.000000e+00
5.636695e-01
5.529765e-01
5.416338e-01
5.300625e-01
5.191068e-01
5.099199e-01
5.037546e-01
5.016114e-01
5.038680e-01
5.101337e-01
5.194450e-01
5.303704e-01
5.418242e-01
5.531844e-01
5.629247e-01
0.000000e+00
1.000000e+00
5.633654e-01
5.519623e-01
5.399908e-01
5.278184e-01
5.162907e-01
5.066225e-01
5.001348e-01
4.978791e-01
5.002532e-01
5.068453e-01
5.166380e-01
5.281729e-01
5.401829e-01
5.521203e-01
5.624027e-01
0.000000e+00
1.000000e+00
5.634760e-01
5.515733e-01
5.393248e-01
5.269067e-01
5.151449e-01
5.052807e-01
4.986616e-01
4.963600e-01
4.987817e-01
5.055053e-01
5.154844e-01
5.272976e-01
5.395249e-01
5.516745e-01
5.621838e-01
0.000000e+00
1.000000e+00
5.633438e-01
5.517590e-01
5.396703e-01
5.273789e-01
5.157378e-01
5.059748e-01
4.994237e-01
4.971457e-01
4.995423e-01
5.061946e-01
5.160606e-01
5.277792e-01
5.398880e-01
5.518868e-01
5.622602e-01
0.000000e+00
1.000000e+00
5.634327e-01
5.525580e-01
5.409837e-01
5.291749e-01
5.179919e-01
5.086133e-01
5.023199e-01
5.001313e-01
5.024335e-01
5.088219e-01
5.182963e-01
5.295468e-01
5.412027e-01
5.527251e-01
5.626684e-01
0.000000e+00
1.000000e+00
5.639649e-01
5.539272e-01
5.431474e-01
5.321334e-01
5.217053e-01
5.129608e-01
5.070924e-01
5.050515e-01
5.071976e-01
5.131538e-01
5.219823e-01
5.324816e-01
5.433712e-01
5.541085e-01
5.632909e-01
0.000000e+00
1.000000e+00
5.647671e-01
5.557509e-01
5.459985e-01
5.360306e-01
5.265950e-01
5.186847e-01
5.133772e-01
5.115325e-01
5.134745e-01
5.188619e-01
5.268413e-01
5.363638e-01
5.462055e-01
5.559112e-01
5.642983e-01
0.000000e+00
1.000000e+00
5.657611e-01
5.579008e-01
5.493525e-01
5.406179e-01
5.323484e-01
5.254172e-01
5.207683e-01
5.191538e-01
5.208583e-01
5.255788e-01
5.325681e-01
5.409148e-01
5.495533e-01
5.580477e-01
5.656534e-01
0.000000e+00
1.000000e+00
5.669235e-01
5.602495e-01
5.530246e-01
5.456454e-01
5.386565e-01
5.327979e-01
5.288699e-01
5.275060e-01
5.289480e-01
5.329426e-01
5.388517e-01
5.459132e-01
5.532323e-01
5.604741e-01
5.659842e-01
0.000000e+00
1.000000e+00
5.715193e-01
5.694170e-01
5.674084e-01
5.653368e-01
5.633732e-01
5.617244e-01
5.606153e-01
5.602257e-01
5.606258e-01
5.617484e-01
5.634077e-01
5.653701e-01
5.674536e-01
5.692723e-01
5.737517e-01
0.000000e+00
1.000000e+00
5.707498e-01
5.678911e-01
5.650096e-01
5.620529e-01
5.592506e-01
5.568982e-01
5.553167e-01
5.547627e-01
5.553355e-01
5.569372e-01
5.593045e-01
5.621004e-01
5.650637e-01
5.677099e-01
5.711392e-01
0.000000e+00
1.000000e+00
5.698565e-01
5.660772e-01
5.621651e-01
5.581586e-01
5.543619e-01
5.511757e-01
5.490351e-01
5.482868e-01
5.490644e-01
5.512343e-01
5.544421e-01
5.582322e-01
5.622538e-01
5.660038e-01
5.697264e-01
0.000000e+00
1.000000e+00
5.688513e-01
5.640220e-01
5.589435e-01
5.537477e-01
5.488248e-01
5.446947e-01
5.419214e-01
5.409539e-01
5.419640e-01
5.447778e-01
5.489391e-01
5.538478e-01
5.590608e-01
5.640327e-01
5.684522e-01
0.000000e+00
1.000000e+00
5.677709e-01
5.618030e-01
5.554675e-01
5.489886e-01
5.428517e-01
5.377043e-01
5.342493e-01
5.330459e-01
5.343069e-01
5.378155e-01
5.430074e-01
5.491193e-01
5.556147e-01
5.619236e-01
5.670792e-01
0.000000e+00
1.000000e+00
5.666919e-01
5.595356e-01
5.519165e-01
5.441273e-01
5.367517e-01
5.305668e-01
5.264162e-01
5.249717e-01
5.264889e-01
5.307071e-01
5.369548e-01
5.442903e-01
5.520855e-01
5.597268e-01
5.660467e-01
0.000000e+00
1.000000e+00
5.656764e-01
5.573655e-01
5.485160e-01
5.394737e-01
5.309144e-01
5.237374e-01
5.189207e-01
5.172454e-01
5.190074e-01
5.239039e-01
5.311665e-01
5.396717e-01
5.487002e-01
5.575827e-01
5.650541e-01
0.000000e+00
1.000000e+00
5.648046e-01
5.554538e-01
5.455158e-01
5.353718e-01
5.257707e-01
5.177187e-01
5.123143e-01
5.104348e-01
5.124122e-01
5.179057e-01
5.260649e-01
5.356074e-01
5.457086e-01
5.556723e-01
5.641404e-01
0.000000e+00
1.000000e+00
5.641909e-01
5.539657e-01
5.431605e-01
5.321558e-01
5.217366e-01
5.129956e-01
5.071294e-01
5.050889e-01
5.072348e-01
5.131958e-01
5.220578e-01
5.324282e-01
5.433535e-01
5.541579e-01
5.634133e-01
0.000000e+00
1.000000e+00
5.640518e-01
5.530570e-01
5.416551e-01
5.300969e-01
5.191483e-01
5.099645e-01
5.038017e-01
5.016576e-01
5.039113e-01
5.101709e-01
5.194798e-01
5.304037e-01
5.418370e-01
5.531555e-01
5.630048e-01
0.000000e+00
1.000000e+00
5.643645e-01
5.527651e-01
5.411178e-01
5.293577e-01
5.182176e-01
5.088752e-01
5.026056e-01
5.004245e-01
5.027164e-01
5.090814e-01
5.185444e-01
5.296933e-01
5.412934e-01
5.527624e-01
5.628749e-01
0.000000e+00
1.000000e+00
5.642809e-01
5.530249e-01
5.415780e-01
5.299870e-01
5.190078e-01
5.098001e-01
5.036203e-01
5.014706e-01
5.037288e-01
5.099997e-01
5.193186e-01
5.303335e-01
5.417593e-01
5.530222e-01
5.629858e-01
0.000000e+00
1.000000e+00
5.642105e-01
5.538622e-01
5.429858e-01
5.319165e-01
5.214315e-01
5.126364e-01
5.067331e-01
5.046783e-01
5.068345e-01
5.128228e-01
5.217213e-01
5.322371e-01
5.431688e-01
5.539003e-01
5.634448e-01
0.000000e+00
1.000000e+00
5.646503e-01
5.552548e-01
5.452185e-01
5.349723e-01
5.252715e-01
5.171344e-01
5.116714e-01
5.097693e-01
5.117635e-01
5.173050e-01
5.255328e-01
5.352774e-01
5.454132e-01
5.553185e-01
5.640984e-01
0.000000e+00
1.000000e+00
5.654410e-01
5.571058e-01
5.481183e-01
5.389321e-01
5.302387e-01
5.229523e-01
5.180616e-01
5.163593e-01
5.181465e-01
5.231087e-01
5.304729e-01
5.392231e-01
5.482993e-01
5.571640e-01
5.650550e-01
0.000000e+00
1.000000e+00
5.664393e-01
5.592677e-01
5.514929e-01
5.435464e-01
5.360231e-01
5.297192e-01
5.254930e-01
5.240236e-01
5.255725e-01
5.298635e-01
5.362326e-01
5.438014e-01
5.516699e-01
5.593310e-01
5.662846e-01
0.000000e+00
1.000000e+00
5.675919e-01
5.616092e-01
5.551549e-01
5.485607e-01
5.423149e-01
5.370790e-01
5.335702e-01
5.323532e-01
5.336408e-01
5.372080e-01
5.425006e-01
5.487913e-01
5.553428e-01
5.617395e-01
5.669375e-01
0.000000e+00
1.000000e+00
5.719223e-01
5.701703e-01
5.685945e-01
5.669610e-01
5.654128e-01
5.641130e-01
5.632388e-01
5.629318e-01
5.632468e-01
5.641316e-01
5.654369e-01
5.669903e-01
5.686551e-01
5.704004e-01
5.749735e-01
0.000000e+00
1.000000e+00
5.712080e-01
5.687701e-01
5.663888e-01
5.639414e-01
5.616221e-01
5.596756e-01
5.583672e-01
5.579091e-01
5.583835e-01
5.597105e-01
5.616685e-01
5.639888e-01
5.664576e-01
5.687008e-01
5.730953e-01
0.000000e+00
1.000000e+00
5.703796e-01
5.670875e-01
5.637478e-01
5.603251e-01
5.570820e-01
5.543611e-01
5.525336e-01
5.518952e-01
5.525602e-01
5.544156e-01
5.571533e-01
5.603949e-01
5.638419e-01
5.669674e-01
5.711595e-01
0.000000e+00
1.000000e+00
5.694378e-01
5.651661e-01
5.607331e-01
5.561973e-01
5.519001e-01
5.482958e-01
5.458763e-01
5.450328e-01
5.459158e-01
5.483740e-01
5.520022e-01
5.562914e-01
5.608524e-01
5.650710e-01
5.697747e-01
0.000000e+00
1.000000e+00
5.684193e-01
5.630779e-01
5.574607e-01
5.517169e-01
5.462767e-01
5.417150e-01
5.386540e-01
5.375882e-01
5.387073e-01
5.418197e-01
5.464166e-01
5.518407e-01
5.576133e-01
5.630950e-01
5.678222e-01
0.000000e+00
1.000000e+00
5.673904e-01
5.609339e-01
5.541027e-01
5.471202e-01
5.405087e-01
5.349660e-01
5.312475e-01
5.299534e-01
5.313142e-01
5.350980e-01
5.406918e-01
5.472732e-01
5.542845e-01
5.610832e-01
5.664952e-01
0.000000e+00
1.000000e+00
5.664296e-01
5.588764e-01
5.508781e-01
5.427073e-01
5.349732e-01
5.284896e-01
5.241397e-01
5.226259e-01
5.242182e-01
5.286455e-01
5.352009e-01
5.428874e-01
5.510764e-01
5.590829e-01
5.656103e-01
0.000000e+00
1.000000e+00
5.656088e-01
5.570631e-01
5.480299e-01
5.388129e-01
5.300897e-01
5.227756e-01
5.178672e-01
5.161588e-01
5.179547e-01
5.229487e-01
5.303576e-01
5.390198e-01
5.482341e-01
5.572734e-01
5.648172e-01
0.000000e+00
1.000000e+00
5.650105e-01
5.556513e-01
5.457967e-01
5.357636e-01
5.262648e-01
5.182980e-01
5.129505e-01
5.110888e-01
5.130440e-01
5.184806e-01
5.265602e-01
5.359948e-01
5.459953e-01
5.558220e-01
5.642840e-01
0.000000e+00
1.000000e+00
5.647994e-01
5.547872e-01
5.443791e-01
5.338253e-01
5.238290e-01
5.154451e-01
5.098164e-01
5.078571e-01
5.099134e-01
5.156303e-01
5.241367e-01
5.340771e-01
5.445565e-01
5.548588e-01
5.641295e-01
0.000000e+00
1.000000e+00
5.650966e-01
5.545212e-01
5.438949e-01
5.331594e-01
5.229902e-01
5.144603e-01
5.087345e-01
5.067422e-01
5.088329e-01
5.146444e-01
5.232951e-01
5.334281e-01
5.440523e-01
5.544771e-01
5.642871e-01
0.000000e+00
1.000000e+00
5.653772e-01
5.548245e-01
5.443728e-01
5.338124e-01
5.238082e-01
5.154166e-01
5.097842e-01
5.078237e-01
5.098798e-01
5.155942e-01
5.240998e-01
5.340840e-01
5.445211e-01
5.547315e-01
5.646141e-01
0.000000e+00
1.000000e+00
5.652676e-01
5.556655e-01
5.457607e-01
5.357153e-01
5.261989e-01
5.182151e-01
5.128539e-01
5.109867e-01
5.129418e-01
5.183779e-01
5.264674e-01
5.359629e-01
5.459072e-01
5.555889e-01
5.652137e-01
0.000000e+00
1.000000e+00
5.655381e-01
5.570036e-01
5.479387e-01
5.386959e-01
5.299465e-01
5.226071e-01
5.176764e-01
5.159573e-01
5.177537e-01
5.227529e-01
5.301870e-01
5.389351e-01
5.480992e-01
5.569744e-01
5.659948e-01
0.000000e+00
1.000000e+00
5.662859e-01
5.587933e-01
5.507559e-01
5.425420e-01
5.347692e-01
5.282559e-01
5.238843e-01
5.223595e-01
5.239547e-01
5.283890e-01
5.349882e-01
5.427719e-01
5.509101e-01
5.587775e-01
5.668672e-01
0.000000e+00
1.000000e+00
5.672364e-01
5.608831e-01
5.540225e-01
5.470085e-01
5.403681e-01
5.348041e-01
5.310755e-01