<?xml version="1.0"?>
<VTKFile type="StructuredGrid" version="0.1">
  <StructuredGrid WholeExtent="0 16 0 16 0 16">
    <Piece Extent="0 16 0 16 0 16">
      <PointData Scalars="temperature" Vectors="velocity">
        <DataArray type="Float32" Name="temperature" format="ascii">
1.000000e+00
5.730767e-01
5.730040e-01
5.730086e-01
5.730103e-01
5.730118e-01
5.730129e-01
5.730138e-01
5.730141e-01
5.730138e-01
5.730127e-01
5.730114e-01
5.730092e-01
5.730075e-01
5.730193e-01
5.727516e-01
0.000000e+00
1.000000e+00
5.730321e-01
5.729866e-01
5.729767e-01
5.729659e-01
5.729554e-01
5.729466e-01
5.729407e-01
5.729388e-01
5.729408e-01
5.729466e-01
5.729551e-01
5.729655e-01
5.729768e-01
5.730984e-01
5.724783e-01
0.000000e+00
1.000000e+00
5.729953e-01
5.729416e-01
5.729035e-01
5.728663e-01
5.728309e-01
5.728012e-01
5.727816e-01
5.727751e-01
5.727820e-01
5.728020e-01
5.728320e-01
5.728675e-01
5.729050e-01
5.729951e-01
5.727616e-01
0.000000e+00
1.000000e+00
5.729534e-01
5.728701e-01
5.727913e-01
5.727126e-01
5.726378e-01
5.725751e-01
5.725331e-01
5.725183e-01
5.725332e-01
5.725755e-01
5.726378e-01
5.727124e-01
5.727913e-01
5.729000e-01
5.727927e-01
0.000000e+00
1.000000e+00
5.729075e-01
5.727719e-01
5.726378e-01
5.725022e-01
5.723736e-01
5.722656e-01
5.721933e-01
5.721674e-01
5.721927e-01
5.722648e-01
5.723727e-01
5.725015e-01
5.726372e-01
5.727947e-01
5.727741e-01
0.000000e+00
1.000000e+00
5.728487e-01
5.726487e-01
5.724452e-01
5.722384e-01
5.720423e-01
5.718778e-01
5.717669e-01
5.717271e-01
5.717657e-01
5.718764e-01
5.720413e-01
5.722375e-01
5.724444e-01
5.726709e-01
5.726937e-01
0.000000e+00
1.000000e+00
5.727834e-01
5.725039e-01
5.722197e-01
5.719295e-01
5.716542e-01
5.714231e-01
5.712675e-01
5.712116e-01
5.712661e-01
5.714218e-01
5.716530e-01
5.719283e-01
5.722185e-01
5.725266e-01
5.726205e-01
0.000000e+00
1.000000e+00
5.727057e-01
5.723439e-01
5.719703e-01
5.715878e-01
5.712251e-01
5.709204e-01
5.707145e-01
5.706412e-01
5.707137e-01
5.709188e-01
5.712234e-01
5.715862e-01
5.719687e-01
5.723666e-01
5.725343e-01
0.000000e+00
1.000000e+00
5.726314e-01
5.721766e-01
5.717085e-01
5.712292e-01
5.707750e-01
5.703933e-01
5.701345e-01
5.700425e-01
5.701336e-01
5.703908e-01
5.707725e-01
5.712271e-01
5.717064e-01
5.721982e-01
5.724630e-01
0.000000e+00
1.000000e+00
5.725525e-01
5.720097e-01
5.714474e-01
5.708717e-01
5.703255e-01
5.698667e-01
5.695563e-01
5.694459e-01
5.695552e-01
5.698642e-01
5.703229e-01
5.708690e-01
5.714449e-01
5.720309e-01
5.723802e-01
0.000000e+00
1.000000e+00
5.724771e-01
5.718509e-01
5.712001e-01
5.705330e-01
5.699001e-01
5.693682e-01
5.690091e-01
5.688813e-01
5.690079e-01
5.693659e-01
5.698974e-01
5.705302e-01
5.711974e-01
5.718726e-01
5.723052e-01
0.000000e+00
1.000000e+00
5.724065e-01
5.717090e-01
5.709788e-01
5.702298e-01
5.695194e-01
5.689224e-01
5.685194e-01
5.683762e-01
5.685182e-01
5.689201e-01
5.695168e-01
5.702270e-01
5.709760e-01
5.717314e-01
5.722303e-01
0.000000e+00
1.000000e+00
5.723489e-01
5.715898e-01
5.707930e-01
5.699754e-01
5.692000e-01
5.685483e-01
5.681086e-01
5.679524e-01
5.681073e-01
5.685461e-01
5.691975e-01
5.699727e-01
5.707903e-01
5.716127e-01
5.721741e-01
0.000000e+00
1.000000e+00
5.722995e-01
5.714977e-01
5.706492e-01
5.697786e-01
5.689529e-01
5.682590e-01
5.677909e-01
5.676245e-01
5.677895e-01
5.682568e-01
5.689505e-01
5.697760e-01
5.706467e-01
5.715204e-01
5.721337e-01
0.000000e+00
1.000000e+00
5.722669e-01
5.714354e-01
5.705506e-01
5.696435e-01
5.687833e-01
5.680605e-01
5.675729e-01
5.673996e-01
5.675716e-01
5.680584e-01
5.687811e-01
5.696411e-01
5.705482e-01
5.714578e-01
5.721010e-01
0.000000e+00
1.000000e+00
5.722441e-01
5.714012e-01
5.704972e-01
5.695704e-01
5.686914e-01
5.679528e-01
5.674547e-01
5.672777e-01
5.674534e-01
5.679508e-01
5.686892e-01
5.695680e-01
5.704947e-01
5.714235e-01
5.720891e-01
0.000000e+00
1.000000e+00
5.722096e-01
5.713962e-01
5.704862e-01
5.695553e-01
5.686725e-01
5.679309e-01
5.674307e-01
5.672526e-01
5.674294e-01
5.679294e-01
5.686711e-01
5.695537e-01
5.704845e-01
5.714198e-01
5.720657e-01
0.000000e+00
1.000000e+00
5.731340e-01
5.730133e-01
5.730459e-01
5.730594e-01
5.730722e-01
5.730828e-01
5.730900e-01
5.730924e-01
5.730895e-01
5.730814e-01
5.730700e-01
5.730572e-01
5.730428e-01
5.730902e-01
5.728611e-01
0.000000e+00
1.000000e+00
5.730742e-01
5.729781e-01
5.729758e-01
5.729638e-01
5.729522e-01
5.729424e-01
5.729356e-01
5.729330e-01
5.729356e-01
5.729425e-01
5.729519e-01
5.729626e-01
5.729740e-01
5.731030e-01
5.724052e-01
0.000000e+00
1.000000e+00
5.730097e-01
5.729118e-01
5.728632e-01
5.728098e-01
5.727589e-01
5.727160e-01
5.726872e-01
5.726776e-01
5.726885e-01
5.727169e-01
5.727587e-01
5.728091e-01
5.728621e-01
5.729538e-01
5.726303e-01
0.000000e+00
1.000000e+00
5.729497e-01
5.728124e-01
5.727062e-01
5.725950e-01
5.724893e-01
5.724005e-01
5.723414e-01
5.723212e-01
5.723422e-01
5.724012e-01
5.724893e-01
5.725945e-01
5.727054e-01
5.728401e-01
5.727415e-01
0.000000e+00
1.000000e+00
5.728854e-01
5.726843e-01
5.725056e-01
5.723204e-01
5.721446e-01
5.719970e-01
5.718989e-01
5.718642e-01
5.718984e-01
5.719972e-01
5.721446e-01
5.723199e-01
5.725048e-01
5.727113e-01
5.726856e-01
0.000000e+00
1.000000e+00
5.728112e-01
5.725310e-01
5.722655e-01
5.719916e-01
5.717317e-01
5.715134e-01
5.713673e-01
5.713153e-01
5.713666e-01
5.715134e-01
5.717314e-01
5.719908e-01
5.722643e-01
5.725569e-01
5.726208e-01
0.000000e+00
1.000000e+00
5.727303e-01
5.723571e-01
5.719936e-01
5.716194e-01
5.712643e-01
5.709659e-01
5.707657e-01
5.706945e-01
5.707649e-01
5.709656e-01
5.712635e-01
5.716181e-01
5.719921e-01
5.723828e-01
5.725343e-01
0.000000e+00
1.000000e+00
5.726396e-01
5.721701e-01
5.717017e-01
5.712197e-01
5.707627e-01
5.703788e-01
5.701194e-01
5.700272e-01
5.701185e-01
5.703770e-01
5.707608e-01
5.712178e-01
5.716997e-01
5.721953e-01
5.724536e-01
0.000000e+00
1.000000e+00
5.725527e-01
5.719794e-01
5.714040e-01
5.708120e-01
5.702507e-01
5.697788e-01
5.694598e-01
5.693467e-01
5.694591e-01
5.697766e-01
5.702481e-01
5.708095e-01
5.714015e-01
5.720046e-01
5.723584e-01
0.000000e+00
1.000000e+00
5.724649e-01
5.717948e-01
5.711158e-01
5.704174e-01
5.697547e-01
5.691977e-01
5.688218e-01
5.686885e-01
5.688211e-01
5.691958e-01
5.697522e-01
5.704146e-01
5.711130e-01
5.718201e-01
5.722720e-01
0.000000e+00
1.000000e+00
5.723816e-01
5.716259e-01
5.708523e-01
5.700564e-01
5.693015e-01
5.686670e-01
5.682389e-01
5.680870e-01
5.682380e-01
5.686650e-01
5.692990e-01
5.700536e-01
5.708494e-01
5.716515e-01
5.721910e-01
0.000000e+00
1.000000e+00
5.723101e-01
5.714813e-01
5.706263e-01
5.697470e-01
5.689131e-01
5.682122e-01
5.677394e-01
5.675716e-01
5.677385e-01
5.682103e-01
5.689107e-01
5.697444e-01
5.706236e-01
5.715069e-01
5.721257e-01
0.000000e+00
1.000000e+00
5.722531e-01
5.713671e-01
5.704476e-01
5.695024e-01
5.686060e-01
5.678526e-01
5.673445e-01
5.671641e-01
5.673435e-01
5.678507e-01
5.686037e-01
5.694999e-01
5.704451e-01
5.713930e-01
5.720652e-01
0.000000e+00
1.000000e+00
5.722095e-01
5.712870e-01
5.703216e-01
5.693298e-01
5.683894e-01
5.675990e-01
5.670660e-01
5.668767e-01
5.670649e-01
5.675972e-01
5.683872e-01
5.693276e-01
5.703192e-01
5.713123e-01
5.720318e-01
0.000000e+00
1.000000e+00
5.721820e-01
5.712416e-01
5.702495e-01
5.692312e-01
5.682656e-01
5.674542e-01
5.669069e-01
5.667125e-01
5.669058e-01
5.674524e-01
5.682636e-01
5.692291e-01
5.702473e-01
5.712671e-01
5.719956e-01
0.000000e+00
1.000000e+00
5.721651e-01
5.712289e-01
5.702293e-01
5.692035e-01
5.682309e-01
5.674136e-01
5.668623e-01
5.666664e-01
5.668614e-01
5.674121e-01
5.682292e-01
5.692017e-01
5.702273e-01
5.712539e-01
5.719960e-01
0.000000e+00
1.000000e+00
5.721596e-01
5.712482e-01
5.702556e-01
5.692397e-01
5.682764e-01
5.674676e-01
5.669219e-01
5.667272e-01
5.669202e-01
5.674660e-01
5.682754e-01
5.692386e-01
5.702542e-01
5.712679e-01
5.719919e-01
0.000000e+00
1.000000e+00
5.731712e-01
5.730468e-01
5.731151e-01
5.731549e-01
5.731925e-01
5.732242e-01
5.732457e-01
5.732532e-01
5.732449e-01
5.732223e-01
5.731894e-01
5.731517e-01
5.731125e-01
5.731135e-01
5.730267e-01
0.000000e+00
1.000000e+00
5.730990e-01
5.729910e-01
5.730104e-01
5.730116e-01
5.730125e-01
5.730131e-01
5.730136e-01
5.730134e-01
5.730126e-01
5.730117e-01
5.730110e-01
5.730101e-01
5.730094e-01
5.730529e-01
5.726852e-01
0.000000e+00
1.000000e+00
5.730262e-01
5.729016e-01
5.728574e-01
5.728019e-01
5.727490e-01
5.727044e-01
5.726739e-01
5.726631e-01
5.726741e-01
5.727035e-01
5.727474e-01
5.727999e-01
5.728556e-01
5.729311e-01
5.727244e-01
0.000000e+00
1.000000e+00
5.729524e-01
5.727758e-01
5.726554e-01
5.725253e-01
5.724016e-01
5.722972e-01
5.722264e-01
5.722025e-01
5.722275e-01
5.722964e-01
5.724000e-01
5.725234e-01
5.726534e-01
5.727976e-01
5.727212e-01
0.000000e+00
1.000000e+00
5.728708e-01
5.726179e-01
5.724063e-01
5.721843e-01
5.719735e-01
5.717956e-01
5.716770e-01
5.716345e-01
5.716765e-01
5.717953e-01
5.719722e-01
5.721827e-01
5.724046e-01
5.726415e-01
5.726413e-01
0.000000e+00
1.000000e+00
5.727800e-01
5.724331e-01
5.721165e-01
5.717876e-01
5.714753e-01
5.712130e-01
5.710366e-01
5.709727e-01
5.710355e-01
5.712120e-01
5.714740e-01
5.717859e-01
5.721148e-01
5.724576e-01
5.725749e-01
0.000000e+00
1.000000e+00
5.726793e-01
5.722284e-01
5.717966e-01
5.713496e-01
5.709257e-01
5.705694e-01
5.703287e-01
5.702429e-01
5.703277e-01
5.705675e-01
5.709236e-01
5.713476e-01
5.717946e-01
5.722546e-01
5.724696e-01
0.000000e+00
1.000000e+00
5.725809e-01
5.720136e-01
5.714611e-01
5.708902e-01
5.703487e-01
5.698933e-01
5.695857e-01
5.694765e-01
5.695849e-01
5.698912e-01
5.703461e-01
5.708876e-01
5.714586e-01
5.720402e-01
5.723729e-01
0.000000e+00
1.000000e+00
5.724801e-01
5.717992e-01
5.711270e-01
5.704326e-01
5.697736e-01
5.692196e-01
5.688459e-01
5.687135e-01
5.688453e-01
5.692179e-01
5.697712e-01
5.704298e-01
5.711242e-01
5.718268e-01
5.722707e-01
0.000000e+00
1.000000e+00
5.723798e-01
5.715977e-01
5.708124e-01
5.700016e-01
5.692326e-01
5.685861e-01
5.681500e-01
5.679956e-01
5.681495e-01
5.685844e-01
5.692302e-01
5.699989e-01
5.708096e-01
5.716258e-01
5.721777e-01
0.000000e+00
1.000000e+00
5.722910e-01
5.714200e-01
5.705342e-01
5.696208e-01
5.687546e-01
5.680264e-01
5.675353e-01
5.673613e-01
5.675347e-01
5.680247e-01
5.687523e-01
5.696183e-01
5.705316e-01
5.714484e-01
5.720897e-01
0.000000e+00
1.000000e+00
5.722180e-01
5.712747e-01
5.703064e-01
5.693091e-01
5.683633e-01
5.675681e-01
5.670319e-01
5.668419e-01
5.670313e-01
5.675665e-01
5.683610e-01
5.693067e-01
5.703040e-01
5.713028e-01
5.720243e-01
0.000000e+00
1.000000e+00
5.721625e-01
5.711677e-01
5.701382e-01
5.690788e-01
5.680741e-01
5.672296e-01
5.666601e-01
5.664583e-01
5.666595e-01
5.672280e-01
5.680720e-01
5.690766e-01
5.701359e-01
5.711954e-01
5.719701e-01
0.000000e+00
1.000000e+00
5.721253e-01
5.711016e-01
5.700334e-01
5.689353e-01
5.678941e-01
5.670189e-01
5.664286e-01
5.662194e-01
5.664281e-01
5.670174e-01
5.678922e-01
5.689334e-01
5.700313e-01
5.711282e-01
5.719448e-01
0.000000e+00
1.000000e+00
5.721038e-01
5.710757e-01
5.699913e-01
5.688776e-01
5.678218e-01
5.669345e-01
5.663358e-01
5.661236e-01
5.663353e-01
5.669330e-01
5.678201e-01
5.688760e-01
5.699894e-01
5.711018e-01
5.719255e-01
0.000000e+00
1.000000e+00
5.720959e-01
5.710865e-01
5.700073e-01
5.688995e-01
5.678492e-01
5.669670e-01
5.663714e-01
5.661602e-01
5.663710e-01
5.669656e-01
5.678480e-01
5.688982e-01
5.700056e-01
5.711121e-01
5.719371e-01
0.000000e+00
1.000000e+00
5.720971e-01
5.711316e-01
5.700737e-01
5.689905e-01
5.679635e-01
5.671014e-01
5.665195e-01
5.663122e-01
5.665184e-01
5.671000e-01
5.679629e-01
5.689897e-01
5.700724e-01
5.711534e-01
5.719380e-01
0.000000e+00
1.000000e+00
5.731888e-01
5.731231e-01
5.732263e-01
5.733077e-01
5.733851e-01
5.734496e-01
5.734926e-01
5.735070e-01
5.734906e-01
5.734479e-01
5.733846e-01
5.733083e-01
5.732273e-01
5.731584e-01
5.729820e-01
0.000000e+00
1.000000e+00
5.731227e-01
5.730332e-01
5.730859e-01
5.731148e-01
5.731422e-01
5.731651e-01
5.731805e-01
5.731854e-01
5.731798e-01
5.731642e-01
5.731419e-01
5.731139e-01
5.730850e-01
5.730699e-01
5.728131e-01
0.000000e+00
1.000000e+00
5.730539e-01
5.729162e-01
5.728917e-01
5.728490e-01
5.728084e-01
5.727742e-01
5.727510e-01
5.727433e-01
5.727509e-01
5.727738e-01
5.728081e-01
5.728486e-01
5.728908e-01
5.729394e-01
5.728035e-01
0.000000e+00
1.000000e+00
5.729655e-01
5.727627e-01
5.726447e-01
5.725107e-01
5.723834e-01
5.722763e-01
5.722044e-01
5.721792e-01
5.722040e-01
5.722758e-01
5.723822e-01
5.725092e-01
5.726431e-01
5.727796e-01
5.727713e-01
0.000000e+00
1.000000e+00
5.728690e-01
5.725753e-01
5.723475e-01
5.721037e-01
5.718723e-01
5.716780e-01
5.715475e-01
5.715001e-01
5.715465e-01
5.716768e-01
5.718709e-01
5.721021e-01
5.723456e-01
5.725934e-01
5.726523e-01
0.000000e+00
1.000000e+00
5.727566e-01
5.723600e-01
5.720085e-01
5.716394e-01
5.712895e-01
5.709952e-01
5.707975e-01
5.707261e-01
5.707960e-01
5.709938e-01
5.712877e-01
5.716375e-01
5.720063e-01
5.723810e-01
5.725358e-01
0.000000e+00
1.000000e+00
5.726427e-01
5.721253e-01
5.716408e-01
5.711361e-01
5.706572e-01
5.702547e-01
5.699836e-01
5.698865e-01
5.699823e-01
5.702530e-01
5.706551e-01
5.711337e-01
5.716384e-01
5.721497e-01
5.724142e-01
0.000000e+00
1.000000e+00
5.725284e-01
5.718823e-01
5.712621e-01
5.706175e-01
5.700056e-01
5.694920e-01
5.691453e-01
5.690220e-01
5.691443e-01
5.694901e-01
5.700036e-01
5.706149e-01
5.712595e-01
5.719099e-01
5.723108e-01
0.000000e+00
1.000000e+00
5.724134e-01
5.716456e-01
5.708927e-01
5.701115e-01
5.693706e-01
5.687481e-01
5.683281e-01
5.681791e-01
5.683273e-01
5.687464e-01
5.693686e-01
5.701092e-01
5.708901e-01
5.716761e-01
5.721965e-01
0.000000e+00
1.000000e+00
5.723061e-01
5.714291e-01
5.705536e-01
5.696473e-01
5.687879e-01
5.680655e-01
5.675783e-01
5.674056e-01
5.675776e-01
5.680639e-01
5.687858e-01
5.696451e-01
5.705512e-01
5.714605e-01
5.720937e-01
0.000000e+00
1.000000e+00
5.722143e-01
5.712442e-01
5.702636e-01
5.692504e-01
5.682896e-01
5.674817e-01
5.669371e-01
5.667442e-01
5.669366e-01
5.674803e-01
5.682875e-01
5.692482e-01
5.702613e-01
5.712757e-01
5.720040e-01
0.000000e+00
1.000000e+00
5.721399e-01
5.711004e-01
5.700370e-01
5.689403e-01
5.679002e-01
5.670257e-01
5.664362e-01
5.662274e-01
5.664357e-01
5.670243e-01
5.678982e-01
5.689382e-01
5.700349e-01
5.711310e-01
5.719371e-01
0.000000e+00
1.000000e+00
5.720858e-01
5.710029e-01
5.698822e-01
5.687284e-01
5.676342e-01
5.667141e-01
5.660939e-01
5.658743e-01
5.660936e-01
5.667129e-01
5.676322e-01
5.687264e-01
5.698802e-01
5.710322e-01
5.718911e-01
0.000000e+00
1.000000e+00
5.720549e-01
5.709526e-01
5.698013e-01
5.686176e-01
5.674953e-01
5.665517e-01
5.659153e-01
5.656902e-01
5.659153e-01
5.665506e-01
5.674937e-01
5.686160e-01
5.697996e-01
5.709806e-01
5.718682e-01
0.000000e+00
1.000000e+00
5.720424e-01
5.709475e-01
5.697913e-01
5.686039e-01
5.674782e-01
5.665322e-01
5.658936e-01
5.656678e-01
5.658936e-01
5.665310e-01
5.674769e-01
5.686027e-01
5.697898e-01
5.709749e-01
5.718592e-01
0.000000e+00
1.000000e+00
5.720441e-01
5.709826e-01
5.698448e-01
5.686771e-01
5.675701e-01
5.666404e-01
5.660123e-01
5.657902e-01
5.660125e-01
5.666393e-01
5.675695e-01
5.686764e-01
5.698436e-01
5.710101e-01
5.718772e-01
0.000000e+00
1.000000e+00
5.720562e-01
5.710539e-01
5.699516e-01
5.688234e-01
5.677538e-01
5.668563e-01
5.662499e-01
5.660346e-01
5.662496e-01
5.668554e-01
5.677541e-01
5.688234e-01
5.699509e-01
5.710795e-01
5.718943e-01
0.000000e+00
1.000000e+00
5.732205e-01
5.732242e-01
5.733787e-01
5.735142e-01
5.736423e-01
5.737513e-01
5.738261e-01
5.738533e-01
5.738284e-01
5.737570e-01
5.736490e-01
5.735192e-01
5.733815e-01
5.732512e-01
5.730704e-01
0.000000e+00
1.000000e+00
5.731555e-01
5.731084e-01
5.732038e-01
5.732758e-01
5.733444e-01
5.734025e-01
5.734420e-01
5.734556e-01
5.734416e-01
5.734011e-01
5.733424e-01
5.732745e-01
5.732032e-01
5.731443e-01
5.729446e-01
0.000000e+00
1.000000e+00
5.730801e-01
5.729639e-01
5.729711e-01
5.729579e-01
5.729451e-01
5.729343e-01
5.729269e-01
5.729247e-01
5.729262e-01
5.729334e-01
5.729434e-01
5.729562e-01
5.729690e-01
5.729866e-01
5.729167e-01
0.000000e+00
1.000000e+00
5.729832e-01
5.727810e-01
5.726805e-01
5.725597e-01
5.724451e-01
5.723487e-01
5.722838e-01
5.722614e-01
5.722838e-01
5.723491e-01
5.724446e-01
5.725589e-01
5.726793e-01
5.727984e-01
5.728449e-01
0.000000e+00
1.000000e+00
5.728706e-01
5.725636e-01
5.723371e-01
5.720896e-01
5.718547e-01
5.716570e-01
5.715248e-01
5.714771e-01
5.715242e-01
5.716565e-01
5.718534e-01
5.720881e-01
5.723354e-01
5.725799e-01
5.727205e-01
0.000000e+00
1.000000e+00
5.727444e-01
5.723187e-01
5.719510e-01
5.715607e-01
5.711901e-01
5.708793e-01
5.706704e-01
5.705950e-01
5.706693e-01
5.708783e-01
5.711889e-01
5.715588e-01
5.719488e-01
5.723360e-01
5.725765e-01
0.000000e+00
1.000000e+00
5.726220e-01
5.720535e-01
5.715378e-01
5.709947e-01
5.704798e-01
5.700480e-01
5.697562e-01
5.696520e-01
5.697552e-01
5.700461e-01
5.704783e-01
5.709929e-01
5.715356e-01
5.720759e-01
5.724280e-01
0.000000e+00
1.000000e+00
5.724931e-01
5.717847e-01
5.711185e-01
5.704208e-01
5.697596e-01
5.692042e-01
5.688288e-01
5.686957e-01
5.688281e-01
5.692021e-01
5.697577e-01
5.704191e-01
5.711165e-01
5.718129e-01
5.722806e-01
0.000000e+00
1.000000e+00
5.723671e-01
5.715290e-01
5.707171e-01
5.698714e-01
5.690697e-01
5.683958e-01
5.679409e-01
5.677798e-01
5.679402e-01
5.683939e-01
5.690676e-01
5.698695e-01
5.707151e-01
5.715613e-01
5.721431e-01
0.000000e+00
1.000000e+00
5.722572e-01
5.712989e-01
5.703570e-01
5.693785e-01
5.684506e-01
5.676704e-01
5.671444e-01
5.669579e-01
5.671436e-01
5.676688e-01
5.684485e-01
5.693765e-01
5.703550e-01
5.713338e-01
5.720333e-01
0.000000e+00
1.000000e+00
5.721602e-01
5.711095e-01
5.700584e-01
5.689698e-01
5.679371e-01
5.670689e-01
5.664838e-01
5.662765e-01
5.664832e-01
5.670676e-01
5.679351e-01
5.689677e-01
5.700565e-01
5.711439e-01
5.719433e-01
0.000000e+00
1.000000e+00
5.720836e-01
5.709698e-01
5.698359e-01
5.686651e-01
5.675545e-01
5.666207e-01
5.659916e-01
5.657687e-01
5.659911e-01
5.666196e-01
5.675527e-01
5.686631e-01
5.698340e-01
5.710022e-01
5.718762e-01
0.000000e+00
1.000000e+00
5.720341e-01
5.708830e-01
5.696968e-01
5.684747e-01
5.673155e-01
5.663408e-01
5.656841e-01
5.654516e-01
5.656838e-01
5.663399e-01
5.673138e-01
5.684729e-01
5.696951e-01
5.709137e-01
5.718297e-01
0.000000e+00
1.000000e+00
5.720074e-01
5.708496e-01
5.696414e-01
5.683987e-01
5.672205e-01
5.662297e-01
5.655618e-01
5.653256e-01
5.655618e-01
5.662290e-01
5.672191e-01
5.683974e-01
5.696399e-01
5.708787e-01
5.718216e-01
0.000000e+00
1.000000e+00
5.720018e-01
5.708658e-01
5.696639e-01
5.684295e-01
5.672595e-01
5.662760e-01
5.656122e-01
5.653778e-01
5.656125e-01
5.662752e-01
5.672586e-01
5.684288e-01
5.696629e-01
5.708939e-01
5.718250e-01
0.000000e+00
1.000000e+00
5.720144e-01
5.709250e-01
5.697544e-01
5.685533e-01
5.674149e-01
5.664588e-01
5.658128e-01
5.655849e-01
5.658135e-01
5.664583e-01
5.674150e-01
5.685534e-01
5.697538e-01
5.709539e-01
5.718508e-01
0.000000e+00
1.000000e+00
5.720375e-01
5.710212e-01
5.699001e-01
5.687529e-01
5.676654e-01
5.667530e-01
5.661364e-01
5.659183e-01
5.661369e-01
5.667529e-01
5.676667e-01
5.687539e-01
5.699002e-01
5.710534e-01
5.718744e-01
0.000000e+00
1.000000e+00
5.732751e-01
5.733426e-01
5.735641e-01
5.737696e-01
5.739655e-01
5.741304e-01
5.742425e-01
5.742836e-01
5.742453e-01
5.741386e-01
5.739767e-01
5.737806e-01
5.735729e-01
5.733743e-01
5.731184e-01
0.000000e+00
1.000000e+00
5.732050e-01
5.732181e-01
5.733626e-01
5.734954e-01
5.736214e-01
5.737251e-01
5.737929e-01
5.738150e-01
5.737886e-01
5.737179e-01
5.736157e-01
5.734934e-01
5.733634e-01
5.732529e-01
5.729783e-01
0.000000e+00
1.000000e+00
5.731202e-01
5.730432e-01
5.730949e-01
5.731275e-01
5.731578e-01
5.731824e-01
5.731988e-01
5.732063e-01
5.732002e-01
5.731840e-01
5.731583e-01
5.731274e-01
5.730945e-01
5.730706e-01
5.729598e-01
0.000000e+00
1.000000e+00
5.730184e-01
5.728296e-01
5.727649e-01
5.726754e-01
5.725902e-01
5.725190e-01
5.724727e-01
5.724569e-01
5.724738e-01
5.725224e-01
5.725925e-01
5.726765e-01
5.727650e-01
5.728528e-01
5.728717e-01
0.000000e+00
1.000000e+00
5.728877e-01
5.725868e-01
5.723797e-01
5.721477e-01
5.719278e-01
5.717439e-01
5.716209e-01
5.715757e-01
5.716200e-01
5.717439e-01
5.719280e-01
5.721473e-01
5.723786e-01
5.726071e-01
5.727615e-01
0.000000e+00
1.000000e+00
5.727502e-01
5.723151e-01
5.719507e-01
5.715606e-01
5.711910e-01
5.708814e-01
5.706717e-01
5.705962e-01
5.706708e-01
5.708796e-01
5.711900e-01
5.715596e-01
5.719493e-01
5.723348e-01
5.726055e-01
0.000000e+00
1.000000e+00
5.726189e-01
5.720231e-01
5.714972e-01
5.709400e-01
5.704120e-01
5.699683e-01
5.696679e-01
5.695614e-01
5.696675e-01
5.699662e-01
5.704100e-01
5.709384e-01
5.714957e-01
5.720470e-01
5.724530e-01
0.000000e+00
1.000000e+00
5.724804e-01
5.717325e-01
5.710432e-01
5.703184e-01
5.696312e-01
5.690533e-01
5.686630e-01
5.685249e-01
5.686626e-01
5.690514e-01
5.696289e-01
5.703164e-01
5.710415e-01
5.717607e-01
5.722864e-01
0.000000e+00
1.000000e+00
5.723484e-01
5.714591e-01
5.706150e-01
5.697319e-01
5.688945e-01
5.681904e-01
5.677154e-01
5.675472e-01
5.677148e-01
5.681886e-01
5.688922e-01
5.697298e-01
5.706131e-01
5.714927e-01
5.721267e-01
0.000000e+00
1.000000e+00
5.722310e-01
5.712184e-01
5.702383e-01
5.692160e-01
5.682465e-01
5.674315e-01
5.668820e-01
5.666873e-01
5.668812e-01
5.674298e-01
5.682444e-01
5.692140e-01
5.702364e-01
5.712568e-01
5.719975e-01
0.000000e+00
1.000000e+00
5.721275e-01
5.710277e-01
5.699348e-01
5.688003e-01
5.677243e-01
5.668200e-01
5.662104e-01
5.659943e-01
5.662096e-01
5.668185e-01
5.677225e-01
5.687984e-01
5.699329e-01
5.710642e-01
5.719065e-01
0.000000e+00
1.000000e+00
5.720540e-01
5.708926e-01
5.697189e-01
5.685048e-01
5.673531e-01
5.663851e-01
5.657328e-01
5.655016e-01
5.657322e-01
5.663840e-01
5.673515e-01
5.685029e-01
5.697171e-01
5.709274e-01
5.718353e-01
0.000000e+00
1.000000e+00
5.720088e-01
5.708170e-01
5.695969e-01
5.683379e-01
5.671437e-01
5.661395e-01
5.654631e-01
5.652236e-01
5.654628e-01
5.661388e-01
5.671422e-01
5.683362e-01
5.695953e-01
5.708495e-01
5.718051e-01
0.000000e+00
1.000000e+00
5.719870e-01
5.708009e-01
5.695669e-01
5.682968e-01
5.670927e-01
5.660797e-01
5.653973e-01
5.651560e-01
5.653974e-01
5.660794e-01
5.670914e-01
5.682958e-01
5.695658e-01
5.708327e-01
5.717934e-01
0.000000e+00
1.000000e+00
5.719883e-01
5.708378e-01
5.696206e-01
5.683702e-01
5.671853e-01
5.661891e-01
5.655169e-01
5.652796e-01
5.655175e-01
5.661888e-01
5.671849e-01
5.683702e-01
5.696201e-01
5.708688e-01
5.718133e-01
0.000000e+00
1.000000e+00
5.720104e-01
5.709193e-01
5.697456e-01
5.685412e-01
5.673998e-01
5.664412e-01
5.657938e-01
5.655656e-01
5.657948e-01
5.664414e-01
5.674007e-01
5.685421e-01
5.697457e-01
5.709528e-01
5.718548e-01
0.000000e+00
1.000000e+00
5.720441e-01
5.710384e-01
5.699266e-01
5.687891e-01
5.677109e-01
5.668063e-01
5.661953e-01
5.659798e-01
5.661964e-01
5.668071e-01
5.677132e-01
5.687911e-01
5.699276e-01
5.710822e-01
5.718476e-01
0.000000e+00
1.000000e+00
5.733358e-01
5.734798e-01
5.737787e-01
5.740631e-01
5.743371e-01
5.745695e-01
5.747278e-01
5.747880e-01
5.747355e-01
5.745918e-01
5.743682e-01
5.740939e-01
5.738009e-01
5.735184e-01
5.731942e-01
0.000000e+00
1.000000e+00
5.732607e-01
5.733496e-01
5.735577e-01
5.737587e-01
5.739505e-01
5.741127e-01
5.742222e-01
5.742611e-01
5.742211e-01
5.741140e-01
5.739552e-01
5.737636e-01
5.735597e-01
5.733760e-01
5.730509e-01
0.000000e+00
1.000000e+00
5.731720e-01
5.731537e-01
5.732590e-01
5.733519e-01
5.734402e-01
5.735144e-01
5.735646e-01
5.735822e-01
5.735653e-01
5.735144e-01
5.734395e-01
5.733515e-01
5.732591e-01
5.731782e-01
5.730279e-01
0.000000e+00
1.000000e+00
5.730618e-01
5.729153e-01
5.728971e-01
5.728567e-01
5.728185e-01
5.727870e-01
5.727664e-01
5.727570e-01
5.727638e-01
5.727856e-01
5.728173e-01
5.728558e-01
5.728963e-01
5.729359e-01
5.729204e-01
0.000000e+00
1.000000e+00
5.729229e-01
5.726487e-01
5.724762e-01
5.722806e-01
5.720955e-01
5.719406e-01
5.718356e-01
5.717973e-01
5.718354e-01
5.719401e-01
5.720954e-01
5.722806e-01
5.724757e-01
5.726679e-01
5.727724e-01
0.000000e+00
1.000000e+00
5.727778e-01
5.723527e-01
5.720126e-01
5.716458e-01
5.712981e-01
5.710057e-01
5.708075e-01
5.707370e-01
5.708073e-01
5.710039e-01
5.712960e-01
5.716440e-01
5.720109e-01
5.723722e-01
5.726129e-01
0.000000e+00
1.000000e+00
5.726327e-01
5.720401e-01
5.715266e-01
5.709801e-01
5.704618e-01
5.700259e-01
5.697314e-01
5.696272e-01
5.697313e-01
5.700243e-01
5.704595e-01
5.709778e-01
5.715243e-01
5.720625e-01
5.724636e-01
0.000000e+00
1.000000e+00
5.724897e-01
5.717294e-01
5.710446e-01
5.703200e-01
5.696328e-01
5.690550e-01
5.686651e-01
5.685272e-01
5.686649e-01
5.690534e-01
5.696305e-01
5.703176e-01
5.710423e-01
5.717568e-01
5.722891e-01
0.000000e+00
1.000000e+00
5.723540e-01
5.714408e-01
5.705959e-01
5.697054e-01
5.688611e-01
5.681514e-01
5.676726e-01
5.675032e-01
5.676722e-01
5.681497e-01
5.688589e-01
5.697033e-01
5.705937e-01
5.714754e-01
5.721265e-01
0.000000e+00
1.000000e+00
5.722315e-01
5.711932e-01
5.702081e-01
5.691744e-01
5.681943e-01
5.673706e-01
5.668149e-01
5.666183e-01
5.668144e-01
5.673689e-01
5.681923e-01
5.691725e-01
5.702061e-01
5.712343e-01
5.719776e-01
0.000000e+00
1.000000e+00
5.721285e-01
5.710023e-01
5.699037e-01
5.687576e-01
5.676707e-01
5.667575e-01
5.661416e-01
5.659235e-01
5.661410e-01
5.667559e-01
5.676690e-01
5.687558e-01
5.699018e-01
5.710417e-01
5.718949e-01
0.000000e+00
1.000000e+00
5.720541e-01
5.708745e-01
5.696968e-01
5.684745e-01
5.673150e-01
5.663408e-01
5.656842e-01
5.654515e-01
5.656835e-01
5.663395e-01
5.673135e-01
5.684727e-01
5.696951e-01
5.709116e-01
5.718163e-01
0.000000e+00
1.000000e+00
5.720115e-01
5.708115e-01
5.695924e-01
5.683318e-01
5.671358e-01
5.661305e-01
5.654533e-01
5.652134e-01
5.654528e-01
5.661297e-01
5.671345e-01
5.683301e-01
5.695909e-01
5.708454e-01
5.718053e-01
0.000000e+00
1.000000e+00
5.719956e-01
5.708118e-01
5.695864e-01
5.683237e-01
5.671264e-01
5.661192e-01
5.654407e-01
5.652006e-01
5.654407e-01
5.661188e-01
5.671252e-01
5.683228e-01
5.695856e-01
5.708471e-01
5.717803e-01
0.000000e+00
1.000000e+00
5.720040e-01
5.708674e-01
5.696682e-01
5.684354e-01
5.672672e-01
5.662851e-01
5.656227e-01
5.653886e-01
5.656232e-01
5.662851e-01
5.672673e-01
5.684359e-01
5.696682e-01
5.709037e-01
5.718121e-01
0.000000e+00
1.000000e+00
5.720342e-01
5.709685e-01
5.698230e-01
5.686473e-01
5.675329e-01
5.665974e-01
5.659658e-01
5.657430e-01
5.659668e-01
5.665981e-01
5.675347e-01
5.686490e-01
5.698239e-01
5.710104e-01
5.718620e-01
0.000000e+00
1.000000e+00
5.720786e-01
5.711069e-01
5.700339e-01
5.689361e-01
5.678954e-01
5.670223e-01
5.664329e-01
5.662254e-01
5.664344e-01
5.670237e-01
5.678983e-01
5.689388e-01
5.700357e-01
5.711621e-01
5.718356e-01
0.000000e+00
1.000000e+00
5.734018e-01
5.736359e-01
5.740169e-01
5.743884e-01
5.747446e-01
5.750485e-01
5.752596e-01
5.753463e-01
5.752856e-01
5.750997e-01
5.748054e-01
5.744439e-01
5.740559e-01
5.736807e-01
5.732679e-01
0.000000e+00
1.000000e+00
5.733189e-01
5.734890e-01
5.737789e-01
5.740613e-01
5.743282e-01
5.745540e-01
5.747092e-01
5.747682e-01
5.747118e-01
5.745622e-01
5.743394e-01
5.740719e-01
5.737859e-01
5.735226e-01
5.731240e-01
0.000000e+00
1.000000e+00
5.732234e-01
5.732880e-01
5.734597e-01
5.736273e-01
5.737858e-01
5.739194e-01
5.740095e-01
5.740368e-01
5.740043e-01
5.739104e-01
5.737766e-01
5.736240e-01
5.734597e-01
5.733121e-01
5.730638e-01
0.000000e+00
1.000000e+00
5.731049e-01
5.730309e-01
5.730713e-01
5.730950e-01
5.731172e-01
5.731362e-01
5.731491e-01
5.731499e-01
5.731458e-01
5.731328e-01
5.731137e-01
5.730922e-01
5.730689e-01
5.730484e-01
5.729896e-01
0.000000e+00
1.000000e+00
5.729696e-01
5.727420e-01
5.726238e-01
5.724823e-01
5.723484e-01
5.722361e-01
5.721598e-01
5.721324e-01
5.721601e-01
5.722354e-01
5.723472e-01
5.724808e-01
5.726219e-01
5.727603e-01
5.728036e-01
0.000000e+00
1.000000e+00
5.728191e-01
5.724277e-01
5.721335e-01
5.718109e-01
5.715048e-01
5.712474e-01
5.710735e-01
5.710118e-01
5.710735e-01
5.712464e-01
5.715031e-01
5.718088e-01
5.721312e-01
5.724456e-01
5.726552e-01
0.000000e+00
1.000000e+00
5.726631e-01
5.721008e-01
5.716236e-01
5.711127e-01
5.706282e-01
5.702209e-01
5.699459e-01
5.698486e-01
5.699459e-01
5.702197e-01
5.706262e-01
5.711105e-01
5.716212e-01
5.721207e-01
5.725009e-01
0.000000e+00
1.000000e+00
5.725218e-01
5.717763e-01
5.711229e-01
5.704272e-01
5.697675e-01
5.692129e-01
5.688386e-01
5.687061e-01
5.688384e-01
5.692114e-01
5.697653e-01
5.704249e-01
5.711205e-01
5.718007e-01
5.723440e-01
0.000000e+00
1.000000e+00
5.723863e-01
5.714777e-01
5.706621e-01
5.697963e-01
5.689753e-01
5.682852e-01
5.678195e-01
5.676547e-01
5.678193e-01
5.682835e-01
5.689730e-01
5.697941e-01
5.706600e-01
5.715088e-01
5.721648e-01
0.000000e+00
1.000000e+00
5.722628e-01
5.712270e-01
5.702701e-01
5.692594e-01
5.683011e-01
5.674956e-01
5.669522e-01
5.667600e-01
5.669520e-01
5.674940e-01
5.682989e-01
5.692574e-01
5.702681e-01
5.712634e-01
5.719896e-01
0.000000e+00
1.000000e+00
5.721625e-01
5.710372e-01
5.699694e-01
5.688475e-01
5.677838e-01
5.668900e-01
5.662870e-01
5.660738e-01
5.662867e-01
5.668884e-01
5.677819e-01
5.688457e-01
5.699675e-01
5.710737e-01
5.719024e-01
0.000000e+00
1.000000e+00
5.720876e-01
5.709178e-01
5.697737e-01
5.685796e-01
5.674470e-01
5.664957e-01
5.658541e-01
5.656271e-01
5.658537e-01
5.664943e-01
5.674455e-01
5.685778e-01
5.697718e-01
5.709517e-01
5.718289e-01
0.000000e+00
1.000000e+00
5.720486e-01
5.708666e-01
5.696864e-01
5.684604e-01
5.672972e-01
5.663198e-01
5.656613e-01
5.654281e-01
5.656608e-01
5.663189e-01
5.672959e-01
5.684587e-01
5.696849e-01
5.708985e-01
5.718248e-01
0.000000e+00
1.000000e+00
5.720367e-01
5.708821e-01
5.697017e-01
5.684816e-01
5.673246e-01
5.663514e-01
5.656958e-01
5.654637e-01
5.656956e-01
5.663509e-01
5.673234e-01
5.684807e-01
5.697010e-01
5.709175e-01
5.717924e-01
0.000000e+00
1.000000e+00
5.720499e-01
5.709546e-01
5.698069e-01
5.686255e-01
5.675058e-01
5.665648e-01
5.659299e-01
5.657053e-01
5.659301e-01
5.665647e-01
5.675061e-01
5.686263e-01
5.698073e-01
5.709939e-01
5.718192e-01
0.000000e+00
1.000000e+00
5.720868e-01
5.710719e-01
5.699857e-01
5.688701e-01
5.678125e-01
5.669250e-01
5.663259e-01