<?xml version="1.0"?>
<VTKFile type="StructuredGrid" version="0.1">
  <StructuredGrid WholeExtent="0 16 0 16 0 16">
    <Piece Extent="0 16 0 16 0 16">
      <PointData Scalars="temperature" Vectors="velocity">
        <DataArray type="Float32" Name="temperature" format="ascii">
1.000000e+00
5.733378e-01
5.730229e-01
5.730530e-01
5.730670e-01
5.730802e-01
5.730912e-01
5.730985e-01
5.731010e-01
5.730982e-01
5.730908e-01
5.730796e-01
5.730663e-01
5.730508e-01
5.730920e-01
5.724537e-01
0.000000e+00
1.000000e+00
5.732065e-01
5.730203e-01
5.730701e-01
5.730887e-01
5.731062e-01
5.731207e-01
5.731304e-01
5.731335e-01
5.731297e-01
5.731197e-01
5.731050e-01
5.730856e-01
5.730617e-01
5.730247e-01
5.729672e-01
0.000000e+00
1.000000e+00
5.733961e-01
5.732693e-01
5.734573e-01
5.736178e-01
5.737700e-01
5.738978e-01
5.739838e-01
5.740140e-01
5.739825e-01
5.738945e-01
5.737634e-01
5.736091e-01
5.734542e-01
5.732891e-01
5.734877e-01
0.000000e+00
1.000000e+00
5.736765e-01
5.737775e-01
5.742515e-01
5.747053e-01
5.751356e-01
5.754970e-01
5.757401e-01
5.758248e-01
5.757351e-01
5.754877e-01
5.751240e-01
5.746971e-01
5.742649e-01
5.738225e-01
5.732392e-01
0.000000e+00
1.000000e+00
5.740857e-01
5.745531e-01
5.754667e-01
5.763704e-01
5.772276e-01
5.779477e-01
5.784323e-01
5.786025e-01
5.784283e-01
5.779431e-01
5.772285e-01
5.763805e-01
5.755139e-01
5.746407e-01
5.733311e-01
0.000000e+00
1.000000e+00
5.746184e-01
5.755872e-01
5.771029e-01
5.786105e-01
5.800402e-01
5.812415e-01
5.820507e-01
5.823367e-01
5.820500e-01
5.812454e-01
5.800623e-01
5.786512e-01
5.771934e-01
5.757188e-01
5.737009e-01
0.000000e+00
1.000000e+00
5.752933e-01
5.768595e-01
5.791110e-01
5.813610e-01
5.834948e-01
5.852878e-01
5.864954e-01
5.869225e-01
5.864975e-01
5.853062e-01
5.835466e-01
5.814427e-01
5.792386e-01
5.770271e-01
5.743643e-01
0.000000e+00
1.000000e+00
5.760516e-01
5.783196e-01
5.814155e-01
5.845160e-01
5.874567e-01
5.899282e-01
5.915934e-01
5.921841e-01
5.916025e-01
5.899701e-01
5.875400e-01
5.846331e-01
5.815716e-01
5.785428e-01
5.750384e-01
0.000000e+00
1.000000e+00
5.768800e-01
5.798981e-01
5.839095e-01
5.879302e-01
5.917442e-01
5.949505e-01
5.971122e-01
5.978814e-01
5.971302e-01
5.950188e-01
5.918576e-01
5.880756e-01
5.840838e-01
5.802219e-01
5.756080e-01
0.000000e+00
1.000000e+00
5.777258e-01
5.815181e-01
5.864678e-01
5.914320e-01
5.961418e-01
6.001021e-01
6.027737e-01
6.037270e-01
6.028020e-01
6.001939e-01
5.962835e-01
5.915951e-01
5.866550e-01
5.819666e-01
5.758339e-01
0.000000e+00
1.000000e+00
5.785589e-01
5.830915e-01
5.889583e-01
5.948415e-01
6.004234e-01
6.051179e-01
6.082865e-01
6.094202e-01
6.083258e-01
6.052312e-01
6.005929e-01
5.950188e-01
5.891500e-01
5.835984e-01
5.763455e-01
0.000000e+00
1.000000e+00
5.793324e-01
5.845381e-01
5.912569e-01
5.979891e-01
6.043766e-01
6.097492e-01
6.133771e-01
6.146780e-01
6.134278e-01
6.098820e-01
6.045774e-01
5.981797e-01
5.914616e-01
5.850423e-01
5.772114e-01
0.000000e+00
1.000000e+00
5.799851e-01
5.857984e-01
5.932605e-01
6.007331e-01
6.078232e-01
6.137874e-01
6.178162e-01
6.192637e-01
6.178781e-01
6.139387e-01
6.080576e-01
6.009443e-01
5.934780e-01
5.862771e-01
5.780013e-01
0.000000e+00
1.000000e+00
5.805241e-01
5.868113e-01
5.948916e-01
6.029684e-01
6.106321e-01
6.170795e-01
6.214362e-01
6.230041e-01
6.215095e-01
6.172506e-01
6.109006e-01
6.032065e-01
5.951357e-01
5.872732e-01
5.788392e-01
0.000000e+00
1.000000e+00
5.809858e-01
5.875296e-01
5.961043e-01
6.046315e-01
6.127241e-01
6.195337e-01
6.241373e-01
6.257970e-01
6.242253e-01
6.197293e-01
6.130270e-01
6.049063e-01
5.963744e-01
5.880272e-01
5.795720e-01
0.000000e+00
1.000000e+00
5.813341e-01
5.879901e-01
5.968934e-01
6.057127e-01
6.140826e-01
6.211271e-01
6.258919e-01
6.276129e-01
6.259955e-01
6.213460e-01
6.144110e-01
6.060088e-01
5.971774e-01
5.885232e-01
5.799475e-01
0.000000e+00
1.000000e+00
5.814669e-01
5.882069e-01
5.972656e-01
6.062230e-01
6.147253e-01
6.218826e-01
6.267259e-01
6.284803e-01
6.268459e-01
6.221174e-01
6.150949e-01
6.065589e-01
5.975724e-01
5.887830e-01
5.796250e-01
0.000000e+00
1.000000e+00
5.731322e-01
5.728082e-01
5.727234e-01
5.726137e-01
5.725095e-01
5.724219e-01
5.723628e-01
5.723417e-01
5.723622e-01
5.724206e-01
5.725077e-01
5.726118e-01
5.727149e-01
5.731320e-01
5.710897e-01
0.000000e+00
1.000000e+00
5.732380e-01
5.730398e-01
5.730908e-01
5.731165e-01
5.731407e-01
5.731610e-01
5.731747e-01
5.731794e-01
5.731739e-01
5.731585e-01
5.731360e-01
5.731089e-01
5.730841e-01
5.731294e-01
5.725415e-01
0.000000e+00
1.000000e+00
5.735159e-01
5.735380e-01
5.738776e-01
5.741922e-01
5.744906e-01
5.747411e-01
5.749096e-01
5.749684e-01
5.749066e-01
5.747348e-01
5.744786e-01
5.741799e-01
5.738813e-01
5.735601e-01
5.733685e-01
0.000000e+00
1.000000e+00
5.739651e-01
5.743202e-01
5.751038e-01
5.758720e-01
5.766006e-01
5.772128e-01
5.776250e-01
5.777700e-01
5.776226e-01
5.772106e-01
5.765997e-01
5.758728e-01
5.751336e-01
5.743746e-01
5.738058e-01
0.000000e+00
1.000000e+00
5.745209e-01
5.753837e-01
5.767885e-01
5.781793e-01
5.794982e-01
5.806067e-01
5.813535e-01
5.816187e-01
5.813551e-01
5.806132e-01
5.795204e-01
5.782113e-01
5.768621e-01
5.754827e-01
5.741579e-01
0.000000e+00
1.000000e+00
5.752023e-01
5.767073e-01
5.789061e-01
5.810787e-01
5.831390e-01
5.848704e-01
5.860369e-01
5.864513e-01
5.860443e-01
5.848902e-01
5.831899e-01
5.811502e-01
5.790204e-01
5.768701e-01
5.746418e-01
0.000000e+00
1.000000e+00
5.760327e-01
5.782710e-01
5.813850e-01
5.844731e-01
5.874023e-01
5.898647e-01
5.915247e-01
5.921171e-01
5.915458e-01
5.899133e-01
5.874942e-01
5.845872e-01
5.815326e-01
5.785059e-01
5.753942e-01
0.000000e+00
1.000000e+00
5.769561e-01
5.800037e-01
5.841289e-01
5.882296e-01
5.921198e-01
5.953908e-01
5.975974e-01
5.983877e-01
5.976341e-01
5.954720e-01
5.922509e-01
5.883771e-01
5.843037e-01
5.803540e-01
5.760400e-01
0.000000e+00
1.000000e+00
5.779462e-01
5.818130e-01
5.870033e-01
5.921649e-01
5.970620e-01
6.011805e-01
6.039604e-01
6.049589e-01
6.040117e-01
6.012917e-01
5.972298e-01
5.923397e-01
5.871929e-01
5.823252e-01
5.763754e-01
0.000000e+00
1.000000e+00
5.789301e-01
5.836048e-01
5.898580e-01
5.960733e-01
6.019705e-01
6.069309e-01
6.102810e-01
6.114869e-01
6.103467e-01
6.070663e-01
6.021747e-01
5.962664e-01
5.900522e-01
5.842749e-01
5.764174e-01
0.000000e+00
1.000000e+00
5.798681e-01
5.852800e-01
5.925410e-01
5.997473e-01
6.065851e-01
6.123375e-01
6.162244e-01
6.176267e-01
6.163054e-01
6.124919e-01
6.068288e-01
5.999595e-01
5.927371e-01
5.860158e-01
5.769715e-01
0.000000e+00
1.000000e+00
5.807142e-01
5.867515e-01
5.949174e-01
6.030023e-01
6.106740e-01
6.171288e-01
6.214924e-01
6.230700e-01
6.215892e-01
6.172998e-01
6.109623e-01
6.032405e-01
5.951250e-01
5.874757e-01
5.776772e-01
0.000000e+00
1.000000e+00
5.813541e-01
5.879829e-01
5.968843e-01
6.056960e-01
6.140572e-01
6.210934e-01
6.258525e-01
6.275764e-01
6.259637e-01
6.212838e-01
6.143888e-01
6.059704e-01
5.971109e-01
5.886471e-01
5.786536e-01
0.000000e+00
1.000000e+00
5.818505e-01
5.888979e-01
5.983728e-01
6.077371e-01
6.166216e-01
6.240978e-01
6.291565e-01
6.309913e-01
6.292774e-01
6.243099e-01
6.169876e-01
6.080476e-01
5.986277e-01
5.895319e-01
5.796247e-01
0.000000e+00
1.000000e+00
5.822625e-01
5.894433e-01
5.993464e-01
6.090766e-01
6.183093e-01
6.260796e-01
6.313388e-01
6.332481e-01
6.314699e-01
6.263179e-01
6.187046e-01
6.094259e-01
5.996334e-01
5.901232e-01
5.802971e-01
0.000000e+00
1.000000e+00
5.825061e-01
5.897455e-01
5.998259e-01
6.097342e-01
6.191371e-01
6.270530e-01
6.324129e-01
6.343606e-01
6.325572e-01
6.273177e-01
6.195540e-01
6.101104e-01
6.001423e-01
5.904141e-01
5.806299e-01
0.000000e+00
1.000000e+00
5.824029e-01
5.898282e-01
5.998447e-01
6.097543e-01
6.191618e-01
6.270841e-01
6.324508e-01
6.344057e-01
6.326084e-01
6.273472e-01
6.195915e-01
6.101459e-01
6.001553e-01
5.903956e-01
5.808058e-01
0.000000e+00
1.000000e+00
5.729146e-01
5.723559e-01
5.720071e-01
5.716322e-01
5.712767e-01
5.709779e-01
5.707765e-01
5.707048e-01
5.707751e-01
5.709753e-01
5.712757e-01
5.716360e-01
5.719993e-01
5.726989e-01
5.717917e-01
0.000000e+00
1.000000e+00
5.731505e-01
5.728223e-01
5.727396e-01
5.726344e-01
5.725346e-01
5.724506e-01
5.723937e-01
5.723726e-01
5.723901e-01
5.724425e-01
5.725257e-01
5.726288e-01
5.727424e-01
5.729559e-01
5.724215e-01
0.000000e+00
1.000000e+00
5.736003e-01
5.735877e-01
5.739314e-01
5.742674e-01
5.745860e-01
5.748534e-01
5.750328e-01
5.750944e-01
5.750270e-01
5.748433e-01
5.745744e-01
5.742623e-01
5.739514e-01
5.736208e-01
5.727517e-01
0.000000e+00
1.000000e+00
5.741503e-01
5.746569e-01
5.756164e-01
5.765755e-01
5.774845e-01
5.782482e-01
5.787623e-01
5.789437e-01
5.787601e-01
5.782477e-01
5.774942e-01
5.765905e-01
5.756706e-01
5.747226e-01
5.735732e-01
0.000000e+00
1.000000e+00
5.748451e-01
5.760261e-01
5.777953e-01
5.795571e-01
5.812284e-01
5.826326e-01
5.835782e-01
5.839134e-01
5.835823e-01
5.826480e-01
5.812737e-01
5.796136e-01
5.778982e-01
5.761522e-01
5.742042e-01
0.000000e+00
1.000000e+00
5.757296e-01
5.776627e-01
5.804165e-01
5.831464e-01
5.857352e-01
5.879110e-01
5.893773e-01
5.899002e-01
5.893966e-01
5.879526e-01
5.858215e-01
5.832424e-01
5.805434e-01
5.778781e-01
5.748396e-01
0.000000e+00
1.000000e+00
5.767239e-01
5.795260e-01
5.833889e-01
5.872171e-01
5.908485e-01
5.939021e-01
5.959624e-01
5.967025e-01
5.960040e-01
5.939788e-01
5.909835e-01
5.873547e-01
5.835439e-01
5.798712e-01
5.755544e-01
0.000000e+00
1.000000e+00
5.778084e-01
5.815351e-01
5.865897e-01
5.915996e-01
5.963531e-01
6.003514e-01
6.030516e-01
6.040257e-01
6.031127e-01
6.004582e-01
5.965328e-01
5.917717e-01
5.867652e-01
5.820675e-01
5.759733e-01
0.000000e+00
1.000000e+00
5.789423e-01
5.835685e-01
5.898518e-01
5.960668e-01
6.019647e-01
6.069270e-01
6.102805e-01
6.114939e-01
6.103621e-01
6.070590e-01
6.021894e-01
5.962658e-01
5.900329e-01
5.843118e-01
5.762847e-01
0.000000e+00
1.000000e+00
5.800372e-01
5.855116e-01
5.929988e-01
6.003776e-01
6.073795e-01
6.132714e-01
6.172556e-01
6.187009e-01
6.173593e-01
6.134250e-01
6.076511e-01
6.005985e-01
5.931743e-01
5.863952e-01
5.767200e-01
0.000000e+00
1.000000e+00
5.810871e-01
5.872362e-01
5.958585e-01
6.042957e-01
6.123013e-01
6.190394e-01
6.235989e-01
6.252572e-01
6.237241e-01
6.192137e-01
6.126254e-01
6.045516e-01
5.960356e-01
5.881640e-01
5.773599e-01
0.000000e+00
1.000000e+00
5.820462e-01
5.886337e-01
5.982862e-01
6.076244e-01
6.164837e-01
6.239415e-01
6.289910e-01
6.308318e-01
6.291371e-01
6.241373e-01
6.168592e-01
6.079349e-01
5.984811e-01
5.895913e-01
5.785656e-01
0.000000e+00
1.000000e+00
5.826407e-01
5.897958e-01
6.001848e-01
6.102246e-01
6.197490e-01
6.277685e-01
6.332016e-01
6.351854e-01
6.333660e-01
6.279914e-01
6.201690e-01
6.105974e-01
6.004072e-01
5.906986e-01
5.797217e-01
0.000000e+00
1.000000e+00
5.830863e-01
5.906064e-01
6.014958e-01
6.120208e-01
6.220048e-01
6.304114e-01
6.361081e-01
6.381895e-01
6.362806e-01
6.306646e-01
6.224570e-01
6.124406e-01
6.017507e-01
5.914794e-01
5.806325e-01
0.000000e+00
1.000000e+00
5.834227e-01
5.910303e-01
6.021978e-01
6.129877e-01
6.232247e-01
6.318452e-01
6.376878e-01
6.398230e-01
6.378658e-01
6.321322e-01
6.237047e-01
6.134407e-01
6.024926e-01
5.919078e-01
5.811935e-01
0.000000e+00
1.000000e+00
5.834576e-01
5.912549e-01
6.023359e-01
6.131754e-01
6.234634e-01
6.321287e-01
6.380037e-01
6.401525e-01
6.381938e-01
6.324463e-01
6.239605e-01
6.136399e-01
6.026622e-01
5.920002e-01
5.814165e-01
0.000000e+00
1.000000e+00
5.830969e-01
5.912058e-01
6.019811e-01
6.126751e-01
6.228294e-01
6.313847e-01
6.371870e-01
6.393133e-01
6.373840e-01
6.316907e-01
6.233172e-01
6.131234e-01
6.022826e-01
5.917455e-01
5.814278e-01
0.000000e+00
1.000000e+00
5.725819e-01
5.716410e-01
5.708767e-01
5.700845e-01
5.693334e-01
5.687024e-01
5.682772e-01
5.681266e-01
5.682773e-01
5.687043e-01
5.693439e-01
5.701071e-01
5.708851e-01
5.718215e-01
5.720009e-01
0.000000e+00
1.000000e+00
5.729547e-01
5.723384e-01
5.719672e-01
5.715780e-01
5.712090e-01
5.708987e-01
5.706892e-01
5.706137e-01
5.706852e-01
5.708921e-01
5.712088e-01
5.715920e-01
5.719885e-01
5.724777e-01
5.721383e-01
0.000000e+00
1.000000e+00
5.734827e-01
5.733637e-01
5.735731e-01
5.737777e-01
5.739716e-01
5.741342e-01
5.742430e-01
5.742796e-01
5.742368e-01
5.741220e-01
5.739615e-01
5.737882e-01
5.736173e-01
5.734697e-01
5.725284e-01
0.000000e+00
1.000000e+00
5.741673e-01
5.747253e-01
5.757244e-01
5.767232e-01
5.776702e-01
5.784657e-01
5.790008e-01
5.791885e-01
5.789948e-01
5.784560e-01
5.776755e-01
5.767488e-01
5.758062e-01
5.748137e-01
5.734011e-01
0.000000e+00
1.000000e+00
5.750535e-01
5.764208e-01
5.783988e-01
5.803850e-01
5.822682e-01
5.838502e-01
5.849147e-01
5.852895e-01
5.849141e-01
5.838631e-01
5.823301e-01
5.804598e-01
5.785270e-01
5.765627e-01
5.742128e-01
0.000000e+00
1.000000e+00
5.761129e-01
5.783899e-01
5.815319e-01
5.846732e-01
5.876521e-01
5.901554e-01
5.918420e-01
5.924420e-01
5.918655e-01
5.902153e-01
5.877729e-01
5.847919e-01
5.816737e-01
5.786313e-01
5.748339e-01
0.000000e+00
1.000000e+00
5.772980e-01
5.805617e-01
5.850053e-01
5.894289e-01
5.936251e-01
5.971537e-01
5.995352e-01
6.003920e-01
5.995917e-01
5.972583e-01
5.937983e-01
5.895917e-01
5.851731e-01
5.809783e-01
5.754162e-01
0.000000e+00
1.000000e+00
5.785620e-01
5.828383e-01
5.886614e-01
5.944354e-01
5.999144e-01
6.045242e-01
6.076397e-01
6.087683e-01
6.077247e-01
6.046584e-01
6.001387e-01
5.946332e-01
5.888389e-01
5.834832e-01
5.759300e-01
0.000000e+00
1.000000e+00
5.798466e-01
5.850881e-01
5.923048e-01
5.994262e-01
6.061851e-01
6.118735e-01
6.157211e-01
6.171201e-01
6.158322e-01
6.120256e-01
6.064623e-01
5.996496e-01
5.924763e-01
5.859538e-01
5.762364e-01
0.000000e+00
1.000000e+00
5.810674e-01
5.871715e-01
5.957298e-01
6.041199e-01
6.120821e-01
6.187847e-01
6.233222e-01
6.249767e-01
6.234574e-01
6.189557e-01
6.124155e-01
6.043801e-01
5.958935e-01
5.881211e-01
5.768721e-01
0.000000e+00
1.000000e+00
5.822238e-01
5.889216e-01
5.987439e-01
6.082532e-01
6.172759e-01
6.248739e-01
6.300210e-01
6.319018e-01
6.301785e-01
6.250725e-01
6.176616e-01
6.085840e-01
5.989193e-01
5.899046e-01
5.782111e-01
0.000000e+00
1.000000e+00
5.832261e-01
5.902249e-01
6.011982e-01
6.116214e-01
6.215085e-01
6.298342e-01
6.354779e-01
6.375449e-01
6.356606e-01
6.300662e-01
6.219295e-01
6.120525e-01
6.014042e-01
5.913550e-01
5.795314e-01
0.000000e+00
1.000000e+00
5.837812e-01
5.913178e-01
6.030032e-01
6.140908e-01
6.246061e-01
6.334628e-01
6.394715e-01
6.416766e-01
6.396789e-01
6.337305e-01
6.250605e-01
6.146112e-01
6.032464e-01
5.924254e-01
5.806571e-01
0.000000e+00
1.000000e+00
5.840812e-01
5.920431e-01
6.041056e-01
6.156002e-01
6.265007e-01
6.356843e-01
6.419152e-01
6.442021e-01
6.421302e-01
6.359879e-01
6.269931e-01
6.161672e-01
6.043880e-01
5.930979e-01
5.815157e-01
0.000000e+00
1.000000e+00
5.842497e-01
5.923889e-01
6.045091e-01
6.161571e-01
6.272065e-01
6.365168e-01
6.428344e-01
6.451536e-01
6.430531e-01
6.368594e-01
6.277385e-01
6.167331e-01
6.048313e-01
5.933568e-01
5.819542e-01
0.000000e+00
1.000000e+00
5.840927e-01
5.924896e-01
6.042890e-01
6.158499e-01
6.268229e-01
6.360704e-01
6.423483e-01
6.446561e-01
6.425788e-01
6.364466e-01
6.273804e-01
6.164053e-01
6.046315e-01
5.932371e-01
5.819862e-01
0.000000e+00
1.000000e+00
5.836188e-01
5.922109e-01
6.035482e-01
6.148173e-01
6.255142e-01
6.345303e-01
6.406524e-01
6.429055e-01
6.408789e-01
6.348899e-01
6.260466e-01
6.153160e-01
6.038490e-01
5.927266e-01
5.818752e-01
0.000000e+00
1.000000e+00
5.720946e-01
5.706568e-01
5.693300e-01
5.679672e-01
5.666752e-01
5.655899e-01
5.648595e-01
5.646024e-01
5.648654e-01
5.656037e-01
5.667058e-01
5.680151e-01
5.693648e-01
5.708005e-01
5.715209e-01
0.000000e+00
1.000000e+00
5.725616e-01
5.715739e-01
5.707648e-01
5.699325e-01
5.691434e-01
5.684804e-01
5.680338e-01
5.678756e-01
5.680344e-01
5.684840e-01
5.691637e-01
5.699759e-01
5.708129e-01
5.717080e-01
5.718104e-01
0.000000e+00
1.000000e+00
5.731790e-01
5.728540e-01
5.727740e-01
5.726830e-01
5.725965e-01
5.725236e-01
5.724739e-01
5.724544e-01
5.724681e-01
5.725125e-01
5.725943e-01
5.727185e-01
5.728423e-01
5.729796e-01
5.723576e-01
0.000000e+00
1.000000e+00
5.740210e-01
5.745014e-01
5.753721e-01
5.762405e-01
5.770639e-01
5.777553e-01
5.782201e-01
5.783818e-01
5.782103e-01
5.777351e-01
5.770554e-01
5.762754e-01
5.754800e-01
5.746275e-01
5.733490e-01
0.000000e+00
1.000000e+00
5.750762e-01
5.765082e-01
5.785268e-01
5.805609e-01
5.824897e-01
5.841101e-01
5.852005e-01
5.855835e-01
5.851928e-01
5.841066e-01
5.825515e-01
5.806568e-01
5.786914e-01
5.766867e-01
5.742966e-01
0.000000e+00
1.000000e+00
5.762943e-01
5.788050e-01
5.821559e-01
5.855278e-01
5.887252e-01
5.914119e-01
5.932214e-01
5.938621e-01
5.932354e-01
5.914673e-01
5.888742e-01
5.856772e-01
5.823264e-01
5.790647e-01
5.749772e-01
0.000000e+00
1.000000e+00
5.776564e-01
5.812910e-01
5.861130e-01
5.909440e-01
5.955260e-01
5.993785e-01
6.019776e-01
6.029098e-01
6.020367e-01
5.994973e-01
5.957301e-01
5.911350e-01
5.862927e-01
5.817064e-01
5.756807e-01
0.000000e+00
1.000000e+00
5.790998e-01
5.838400e-01
5.902048e-01
5.965458e-01
6.025625e-01
6.076247e-01
6.110463e-01
6.122873e-01
6.111516e-01
6.077862e-01
6.028237e-01
5.967723e-01
5.903820e-01
5.844667e-01
5.762179e-01
0.000000e+00
1.000000e+00
5.805374e-01
5.863012e-01
5.942029e-01
6.020222e-01
6.094439e-01
6.156923e-01
6.199224e-01
6.214679e-01
6.200650e-01
6.158813e-01
6.097727e-01
6.022902e-01
5.943755e-01
5.870798e-01
5.766873e-01
0.000000e+00
1.000000e+00
5.818813e-01
5.885193e-01
5.978744e-01
6.070555e-01
6.157716e-01
6.231132e-01
6.280894e-01
6.299138e-01
6.282584e-01
6.233260e-01
6.161642e-01
6.073953e-01
5.980540e-01
5.893194e-01
5.779997e-01
0.000000e+00
1.000000e+00
5.830862e-01
5.903340e-01
6.010123e-01
6.113642e-01
6.211898e-01
6.294677e-01
6.350814e-01
6.371422e-01
6.352726e-01
6.297138e-01
6.216188e-01
6.118146e-01
6.012265e-01
5.911951e-01
5.795733e-01
0.000000e+00
1.000000e+00
5.839738e-01
5.916912e-01
6.034677e-01
6.147359e-01
6.254259e-01
6.344309e-01
6.405415e-01
6.427878e-01
6.407577e-01
6.347235e-01
6.258622e-01
6.153068e-01
6.037425e-01
5.926906e-01
5.807408e-01
0.000000e+00
1.000000e+00
5.845209e-01
5.926724e-01
6.051510e-01
6.170405e-01
6.283164e-01
6.378153e-01
6.442653e-01
6.466384e-01
6.445038e-01
6.381496e-01
6.287681e-01
6.176921e-01
6.054984e-01
5.937198e-01
5.817687e-01
0.000000e+00
1.000000e+00
5.848238e-01
5.931905e-01
6.060216e-01
6.182363e-01
6.298184e-01
6.395777e-01
6.462042e-01
6.486416e-01
6.464512e-01
6.399468e-01
6.303160e-01
6.189164e-01
6.064146e-01
5.942794e-01
5.824155e-01
0.000000e+00
1.000000e+00
5.848106e-01
5.934389e-01
6.061205e-01
6.183702e-01
6.299915e-01
6.397869e-01
6.464379e-01
6.488870e-01
6.466904e-01
6.401941e-01
6.305511e-01
6.190381e-01
6.065130e-01
5.943599e-01
5.825050e-01
0.000000e+00
1.000000e+00
5.844963e-01
5.933130e-01
6.055464e-01
6.175717e-01
6.289882e-01
6.386122e-01
6.451494e-01
6.475606e-01
6.454074e-01
6.390469e-01
6.295830e-01
6.181997e-01
6.059206e-01
5.940202e-01
5.823274e-01
0.000000e+00
1.000000e+00
5.839228e-01
5.927588e-01
6.044215e-01
6.160187e-01
6.270250e-01
6.362991e-01
6.425971e-01
6.449191e-01
6.428347e-01
6.367025e-01
6.275720e-01
6.165645e-01
6.047361e-01
5.932682e-01
5.821331e-01
0.000000e+00
1.000000e+00
5.714632e-01
5.694224e-01
5.673935e-01
5.653159e-01
5.633465e-01
5.616931e-01
5.605816e-01
5.601925e-01
5.605966e-01
5.617230e-01
5.634015e-01
5.653932e-01
5.674540e-01
5.695585e-01
5.709395e-01
0.000000e+00
1.000000e+00
5.720335e-01
5.705412e-01
5.691460e-01
5.677161e-01
5.663607e-01
5.652226e-01
5.644571e-01
5.641881e-01
5.644652e-01
5.652417e-01
5.664068e-01
5.677920e-01
5.692293e-01
5.706939e-01
5.713456e-01
0.000000e+00
1.000000e+00
5.727519e-01
5.720567e-01
5.715233e-01
5.709703e-01
5.704462e-01
5.700058e-01
5.697091e-01
5.696032e-01
5.697071e-01
5.700045e-01
5.704695e-01
5.710475e-01
5.716195e-01
5.721906e-01
5.719861e-01
0.000000e+00
1.000000e+00
5.737212e-01
5.739698e-01
5.745327e-01
5.750911e-01
5.756206e-01
5.760651e-01
5.763634e-01
5.764658e-01
5.763526e-01
5.760424e-01
5.756042e-01
5.751476e-01
5.746660e-01
5.741249e-01
5.730474e-01
0.000000e+00
1.000000e+00
5.749186e-01
5.762592e-01
5.781315e-01
5.800199e-01
5.818106e-01
5.833152e-01
5.843278e-01
5.846833e-01
5.843174e-01
5.832949e-01
5.818495e-01
5.801287e-01
5.783342e-01
5.764765e-01
5.741492e-01
0.000000e+00
1.000000e+00
5.762782e-01
5.788533e-01
5.822154e-01
5.856104e-01
5.888299e-01
5.915355e-01
5.933579e-01
5.940014e-01
5.933584e-01
5.915624e-01
5.889896e-01
5.857922e-01
5.824236e-01
5.791453e-01
5.749311e-01
0.000000e+00
1.000000e+00
5.777783e-01
5.816285e-01
5.866113e-01
5.916261e-01
5.963818e-01
6.003796e-01
6.030755e-01
6.040379e-01
6.031221e-01
6.004914e-01
5.966129e-01
5.918534e-01
5.868179e-01
5.820107e-01
5.756949e-01
0.000000e+00
1.000000e+00
5.793543e-01
5.844376e-01
5.910952e-01
5.977630e-01
6.040885e-01
6.094092e-01
6.130042e-01
6.143045e-01
6.131114e-01
6.095885e-01
6.043778e-01
5.980316e-01
5.912844e-01
5.849538e-01
5.764070e-01
0.000000e+00
1.000000e+00
5.808991e-01
5.871109e-01
5.954065e-01
6.036657e-01
6.115039e-01
6.181026e-01
6.225709e-01
6.242059e-01
6.227342e-01
6.183276e-01
6.118631e-01
6.039971e-01
5.955847e-01
5.876812e-01
5.773666e-01
0.000000e+00
1.000000e+00
5.823073e-01
5.894833e-01
5.992868e-01
6.089822e-01
6.181875e-01
6.259435e-01
6.312054e-01
6.331443e-01
6.314111e-01
6.262063e-01
6.186040e-01
6.094282e-01
5.994912e-01
5.900586e-01
5.790137e-01
0.000000e+00
1.000000e+00
5.834912e-01
5.914146e-01
6.025146e-01
6.134120e-01
6.237600e-01
6.324829e-01
6.384073e-01
6.405953e-01
6.386424e-01
6.327898e-01
6.242013e-01
6.139966e-01
6.027924e-01
5.920489e-01
5.806291e-01
0.000000e+00
1.000000e+00
5.843511e-01
5.928311e-01
6.049369e-01
6.167414e-01
6.279458e-01
6.373917e-01
6.438100e-01
6.461797e-01
6.440671e-01
6.377517e-01
6.283964e-01
6.174124e-01
6.053282e-01
5.935768e-01
5.817651e-01
0.000000e+00
1.000000e+00
5.849458e-01
5.936914e-01
6.064709e-01
6.188499e-01
6.305970e-01
6.404992e-01
6.472274e-01
6.497089e-01
6.474957e-01
6.409086e-01
6.310720e-01
6.195122e-01
6.069951e-01
5.945559e-01
5.825938e-01
0.000000e+00
1.000000e+00
5.852489e-01
5.940209e-01
6.070994e-01
6.197186e-01
6.316966e-01
6.417917e-01
6.486496e-01
6.511781e-01
6.489241e-01
6.422415e-01
6.322289e-01
6.203727e-01
6.076662e-01
5.949776e-01
5.828920e-01
0.000000e+00
1.000000e+00
5.850637e-01
5.940643e-01
6.069095e-01
6.194477e-01
6.313549e-01
6.413941e-01
6.482144e-01
6.507323e-01
6.484966e-01
6.418709e-01
6.319450e-01
6.201299e-01
6.074050e-01
5.948547e-01
5.827490e-01
0.000000e+00
1.000000e+00
5.845973e-01
5.936698e-01
6.060057e-01
6.181929e-01
6.297708e-01
6.395345e-01
6.461692e-01
6.486200e-01
6.464472e-01
6.400160e-01
6.303718e-01
6.188605e-01
6.064230e-01
5.942941e-01
5.824549e-01
0.000000e+00
1.000000e+00
5.839277e-01
5.928457e-01
6.045245e-01
6.161557e-01
6.271996e-01
6.365081e-01
6.428294e-01
6.451587e-01
6.430754e-01
6.369387e-01
6.277370e-01
6.167342e-01
6.048423e-01
5.933146e-01
5.821410e-01
0.000000e+00
1.000000e+00
5.707294e-01
5.679755e-01
5.651254e-01
5.622103e-01
5.594475e-01
5.571290e-01
5.555719e-01
5.550289e-01
5.555988e-01
5.571785e-01
5.595293e-01
5.623193e-01
5.652126e-01
5.681173e-01
5.702365e-01
0.000000e+00
1.000000e+00
5.713853e-01
5.692716e-01
5.671563e-01
5.649919e-01
5.629406e-01
5.612190e-01
5.600621e-01
5.596578e-01
5.600804e-01
5.612573e-01
5.630141e-01
5.651022e-01
5.672780e-01
5.694415e-01
5.707659e-01
0.000000e+00
1.000000e+00
5.722081e-01
5.709925e-01
5.698538e-01
5.686847e-01
5.675769e-01
5.666472e-01
5.660221e-01
5.658023e-01
5.660283e-01
5.666647e-01
5.676365e-01
5.688014e-01
5.699840e-01
5.711430e-01
5.715101e-01
0.000000e+00
1.000000e+00
5.732904e-01
5.731373e-01
5.732214e-01
5.732957e-01
5.733665e-01
5.734261e-01
5.734657e-01
5.734775e-01
5.734583e-01
5.734103e-01
5.733608e-01
5.734036e-01
5.733829e-01
5.733042e-01
5.726488e-01
0.000000e+00
1.000000e+00
5.746028e-01
5.756696e-01
5.772034e-01
5.787490e-01
5.802148e-01
5.814465e-01
5.822755e-01
5.825661e-01
5.822660e-01
5.814231e-01
5.802181e-01
5.788536e-01
5.774342e-01
5.759067e-01
5.738459e-01
0.000000e+00
1.000000e+00
5.760874e-01
5.785141e-01
5.816766e-01
5.848739e-01
5.879063e-01
5.904552e-01
5.921725e-01
5.927789e-01
5.921675e-01
5.904502e-01
5.880414e-01
5.850789e-01
5.819246e-01
5.788039e-01
5.748999e-01
0.000000e+00
1.000000e+00
5.777032e-01
5.815295e-01
5.864406e-01
5.913939e-01
5.960915e-01
6.000401e-01
6.027023e-01
6.036492e-01
6.027290e-01
6.001225e-01
5.963378e-01
5.916593e-01
5.866842e-01
5.818361e-01
5.759275e-01
0.000000e+00
1.000000e+00
5.793595e-01
5.845548e-01
5.912467e-01
5.979711e-01
6.043491e-01
6.097125e-01
6.133339e-01
6.146370e-01
6.134240e-01
6.098919e-01
6.046561e-01
5.982892e-01
5.914681e-01
5.848819e-01
5.770907e-01
0.000000e+00
1.000000e+00
5.809619e-01
5.874054e-01
5.958078e-01
6.042137e-01
6.121888e-01
6.189005e-01
6.234430e-01
6.251009e-01
6.236090e-01
6.191539e-01
6.125558e-01
6.046172e-01
5.960179e-01
5.877689e-01
5.783786e-01
0.000000e+00
1.000000e+00
5.824018e-01
5.899029e-01
5.998433e-01
6.097396e-01
6.191326e-01
6.270454e-01
6.324142e-01
6.343959e-01
6.326443e-01
6.273550e-01
6.195411e-01
6.102851e-01
6.000914e-01
5.902953e-01
5.799881e-01
0.000000e+00
1.000000e+00
5.835731e-01
5.919052e-01
6.031207e-01
6.142331e-01
6.247840e-01
6.336794e-01
6.397251e-01
6.419668e-01
6.399948e-01
6.340424e-01
6.252054e-01
6.149090e-01
6.034822e-01
5.923787e-01
5.813960e-01
0.000000e+00
1.000000e+00
5.844352e-01
5.933145e-01
6.054813e-01
6.174782e-01
6.288698e-01
6.384771e-01
6.450097e-01
6.474302e-01
6.452983e-01
6.388919e-01
6.293188e-01
6.181590e-01
6.060074e-01
5.939154e-01
5.822355e-01
0.000000e+00
1.000000e+00
5.850327e-01
5.940730e-01
6.068563e-01
6.193729e-01
6.312587e-01
6.412827e-01
6.480981e-01
6.506204e-01
6.483952e-01
6.417567e-01
6.317787e-01
6.199596e-01
6.074874e-01
5.948317e-01
5.827683e-01
0.000000e+00
1.000000e+00
5.852076e-01
5.943107e-01
6.072666e-01
6.199337e-01
6.319674e-01
6.421179e-01
6.490215e-01
6.515777e-01
6.493292e-01
6.426433e-01
6.325649e-01
6.205098e-01
6.078975e-01
5.951038e-01
5.828760e-01
0.000000e+00
1.000000e+00
5.849262e-01
5.941335e-01
6.068097e-01
6.192953e-01
6.311588e-01
6.411675e-01
6.479754e-01
6.504974e-01
6.482873e-01
6.416996e-01
6.317611e-01
6.199161e-01
6.073889e-01
5.947803e-01
5.826861e-01
0.000000e+00
1.000000e+00
5.843704e-01
5.934913e-01
6.056097e-01
6.176397e-01
6.290670e-01
6.387061e-01
6.452611e-01
6.476861e-01
6.455568e-01
6.392120e-01
6.296320e-01
6.183069e-01
6.060781e-01
5.940118e-01
5.823081e-01
0.000000e+00
1.000000e+00
5.836523e-01
5.924277e-01
6.038173e-01
6.151840e-01
6.259747e-01
6.350693e-01
6.412457e-01
6.435185e-01
6.414955e-01
6.355042e-01
6.264849e-01
6.157757e-01
6.041317e-01
5.928412e-01
5.819059e-01
0.000000e+00
1.000000e+00
5.699257e-01
5.663734e-01
5.626162e-01
5.587747e-01
5.551343e-01
5.520802e-01
5.500305e-01
5.493181e-01
5.500712e-01
5.521533e-01
5.552426e-01
5.589180e-01
5.627288e-01
5.665231e-01
5.694710e-01
0.000000e+00
1.000000e+00
5.706512e-01
5.678177e-01
5.648790e-01
5.618741e-01
5.590267e-01
5.566376e-01
5.550336e-01
5.544749e-01
5.550637e-01
5.566977e-01
5.591272e-01
5.620186e-01
5.650332e-01
5.679965e-01
5.700929e-01
0.000000e+00
1.000000e+00
5.715536e-01
5.697081e-01
5.678397e-01
5.659275e-01
5.641161e-01
5.625967e-01
5.615763e-01
5.612203e-01
5.615938e-01
5.626378e-01
5.642111e-01
5.660830e-01
5.680117e-01
5.698922e-01
5.709181e-01
0.000000e+00
1.000000e+00
5.727232e-01
5.720415e-01
5.714974e-01
5.709354e-01
5.704035e-01
5.699578e-01
5.696583e-01
5.695525e-01
5.696587e-01
5.699586e-01
5.704407e-01
5.711113e-01
5.716838e-01
5.722180e-01
5.721245e-01
0.000000e+00
1.000000e+00
5.741254e-01
5.747684e-01
5.757832e-01
5.768042e-01
5.777729e-01
5.785875e-01
5.791359e-01
5.793279e-01
5.791279e-01
5.785699e-01
5.777569e-01
5.769207e-01
5.760239e-01
5.750082e-01
5.733521e-01
0.000000e+00
1.000000e+00
5.757125e-01
5.778035e-01
5.805575e-01
5.833422e-01
5.859838e-01
5.882044e-01
5.897007e-01
5.902295e-01
5.896965e-01
5.881876e-01
5.860641e-01
5.835511e-01
5.808444e-01
5.780702e-01
5.747472e-01
0.000000e+00
1.000000e+00
5.774299e-01
5.809988e-01
5.855993e-01
5.902443e-01
5.946501e-01
5.983539e-01
6.008514e-01
6.017381e-01
6.008628e-01
5.983965e-01
5.948835e-01
5.905394e-01
5.858827e-01
5.812418e-01
5.763921e-01
0.000000e+00
1.000000e+00
5.791381e-01
5.841770e-01
5.906347e-01
5.971358e-01
6.033019e-01
6.084862e-01
6.119847e-01
6.132373e-01
6.120496e-01
6.086460e-01
6.036128e-01
5.974958e-01
5.909021e-01
5.844165e-01
5.778823e-01
0.000000e+00
1.000000e+00
5.807470e-01
5.871491e-01
5.953626e-01
6.036064e-01
6.114263e-01
6.180048e-01
6.224530e-01
6.240674e-01
6.225997e-01
6.182689e-01
6.117841e-01
6.040606e-01
5.956184e-01
5.874343e-01
5.791774e-01
0.000000e+00
1.000000e+00
5.821990e-01
5.897204e-01
5.994858e-01
6.092516e-01
6.185173e-01
6.263188e-01
6.316074e-01
6.335527e-01
6.318333e-01
6.266530e-01
6.189095e-01
6.098448e-01
5.997827e-01
5.900564e-01
5.806566e-01
0.000000e+00
1.000000e+00
5.833919e-01
5.917321e-01
6.027621e-01
6.137434e-01
6.241664e-01
6.329500e-01
6.389164e-01
6.411263e-01
6.391919e-01
6.333412e-01
6.245695e-01
6.144371e-01
6.031875e-01
5.921605e-01
5.817674e-01
0.000000e+00
1.000000e+00
5.842477e-01
5.931033e-01
6.050423e-01
6.168700e-01
6.281032e-01
6.375774e-01
6.440199e-01
6.464096e-01
6.443187e-01
6.380279e-01
6.285525e-01
6.174992e-01
6.056328e-01
5.936576e-01
5.821989e-01
0.000000e+00
1.000000e+00
5.847515e-01
5.938100e-01
6.062682e-01
6.185512e-01
6.302212e-01
6.400684e-01
6.467693e-01
6.492582e-01
6.470894e-01
6.405895e-01
6.307652e-01
6.190960e-01
6.068480e-01
5.945082e-01
5.825400e-01
0.000000e+00
1.000000e+00
5.848128e-01
5.939487e-01
6.064831e-01
6.188424e-01
6.305852e-01
6.404947e-01
6.472404e-01
6.497490e-01
6.475763e-01
6.410566e-01
6.311762e-01
6.193974e-01
6.070468e-01
5.946380e-01
5.826190e-01
0.000000e+00
1.000000e+00
5.844696e-01
5.935875e-01
6.057942e-01
6.178911e-01
6.293815e-01
6.390764e-01
6.456743e-01
6.481259e-01
6.460030e-01
6.396241e-01
6.299343e-01
6.184556e-01
6.063941e-01
5.941281e-01
5.823665e-01
0.000000e+00
1.000000e+00
5.838570e-01
5.927488e-01
6.043459e-01
6.159036e-01
6.268767e-01
6.361287e-01
6.424184e-01