<?xml version="1.0"?>
<VTKFile type="StructuredGrid" version="0.1">
  <StructuredGrid WholeExtent="0 16 0 16 0 16">
    <Piece Extent="0 16 0 16 0 16">
      <PointData Scalars="temperature" Vectors="velocity">
        <DataArray type="Float32" Name="temperature" format="ascii">
1.000000e+00
5.730116e-01
5.730244e-01
5.730381e-01
5.730522e-01
5.730656e-01
5.730768e-01
5.730844e-01
5.730870e-01
5.730844e-01
5.730768e-01
5.730656e-01
5.730522e-01
5.730381e-01
5.730244e-01
5.730116e-01
0.000000e+00
1.000000e+00
5.731129e-01
5.732382e-01
5.733728e-01
5.735105e-01
5.736410e-01
5.737507e-01
5.738246e-01
5.738508e-01
5.738246e-01
5.737507e-01
5.736410e-01
5.735105e-01
5.733728e-01
5.732382e-01
5.731129e-01
0.000000e+00
1.000000e+00
5.733289e-01
5.736938e-01
5.740857e-01
5.744866e-01
5.748668e-01
5.751862e-01
5.754014e-01
5.754777e-01
5.754014e-01
5.751862e-01
5.748668e-01
5.744866e-01
5.740857e-01
5.736938e-01
5.733289e-01
0.000000e+00
1.000000e+00
5.736673e-01
5.744074e-01
5.752027e-01
5.760159e-01
5.767871e-01
5.774352e-01
5.778719e-01
5.780266e-01
5.778719e-01
5.774352e-01
5.767871e-01
5.760159e-01
5.752027e-01
5.744074e-01
5.736673e-01
0.000000e+00
1.000000e+00
5.741287e-01
5.753808e-01
5.767260e-01
5.781018e-01
5.794063e-01
5.805026e-01
5.812413e-01
5.815029e-01
5.812413e-01
5.805026e-01
5.794063e-01
5.781018e-01
5.767260e-01
5.753808e-01
5.741287e-01
0.000000e+00
1.000000e+00
5.747051e-01
5.765966e-01
5.786287e-01
5.807070e-01
5.826777e-01
5.843338e-01
5.854498e-01
5.858450e-01
5.854498e-01
5.843338e-01
5.826777e-01
5.807070e-01
5.786287e-01
5.765966e-01
5.747051e-01
0.000000e+00
1.000000e+00
5.753783e-01
5.780166e-01
5.808510e-01
5.837498e-01
5.864986e-01
5.888085e-01
5.903650e-01
5.909163e-01
5.903650e-01
5.888085e-01
5.864986e-01
5.837498e-01
5.808510e-01
5.780166e-01
5.753783e-01
0.000000e+00
1.000000e+00
5.761205e-01
5.795823e-01
5.833013e-01
5.871048e-01
5.907115e-01
5.937424e-01
5.957847e-01
5.965080e-01
5.957847e-01
5.937424e-01
5.907115e-01
5.871048e-01
5.833013e-01
5.795823e-01
5.761205e-01
0.000000e+00
1.000000e+00
5.768965e-01
5.812190e-01
5.858629e-01
5.906122e-01
5.951158e-01
5.989003e-01
6.014505e-01
6.023537e-01
6.014505e-01
5.989003e-01
5.951158e-01
5.906122e-01
5.858629e-01
5.812190e-01
5.768965e-01
0.000000e+00
1.000000e+00
5.776665e-01
5.828431e-01
5.884046e-01
5.940924e-01
5.994859e-01
6.040182e-01
6.070723e-01
6.081540e-01
6.070723e-01
6.040182e-01
5.994859e-01
5.940924e-01
5.884046e-01
5.828431e-01
5.776665e-01
0.000000e+00
1.000000e+00
5.783905e-01
5.843704e-01
5.907947e-01
5.973651e-01
6.035954e-01
6.088310e-01
6.123590e-01
6.136085e-01
6.123590e-01
6.088310e-01
6.035954e-01
5.973651e-01
5.907947e-01
5.843704e-01
5.783905e-01
0.000000e+00
1.000000e+00
5.790329e-01
5.857253e-01
5.929152e-01
6.002685e-01
6.072413e-01
6.131008e-01
6.170491e-01
6.184475e-01
6.170491e-01
6.131008e-01
6.072413e-01
6.002685e-01
5.929152e-01
5.857253e-01
5.790329e-01
0.000000e+00
1.000000e+00
5.795653e-01
5.868484e-01
5.946728e-01
6.026751e-01
6.102633e-01
6.166399e-01
6.209367e-01
6.224585e-01
6.209367e-01
6.166399e-01
6.102633e-01
6.026751e-01
5.946728e-01
5.868484e-01
5.795653e-01
0.000000e+00
1.000000e+00
5.799693e-01
5.877005e-01
5.960064e-01
6.045010e-01
6.125561e-01
6.193250e-01
6.238862e-01
6.255017e-01
6.238862e-01
6.193250e-01
6.125561e-01
6.045010e-01
5.960064e-01
5.877005e-01
5.799693e-01
0.000000e+00
1.000000e+00
5.802363e-01
5.882639e-01
5.968880e-01
6.057082e-01
6.140720e-01
6.211004e-01
6.258364e-01
6.275137e-01
6.258364e-01
6.211004e-01
6.140720e-01
6.057082e-01
5.968880e-01
5.882639e-01
5.802363e-01
0.000000e+00
1.000000e+00
5.803675e-01
5.885405e-01
5.973209e-01
6.063010e-01
6.148163e-01
6.219720e-01
6.267939e-01
6.285016e-01
6.267939e-01
6.219720e-01
6.148163e-01
6.063010e-01
5.973209e-01
5.885405e-01
5.803675e-01
0.000000e+00
1.000000e+00
5.803711e-01
5.885481e-01
5.973328e-01
6.063172e-01
6.148367e-01
6.219959e-01
6.268202e-01
6.285287e-01
6.268202e-01
6.219959e-01
6.148367e-01
6.063172e-01
5.973328e-01
5.885481e-01
5.803711e-01
0.000000e+00
1.000000e+00
5.730082e-01
5.730172e-01
5.730270e-01
5.730369e-01
5.730464e-01
5.730543e-01
5.730596e-01
5.730615e-01
5.730596e-01
5.730543e-01
5.730464e-01
5.730369e-01
5.730270e-01
5.730172e-01
5.730082e-01
0.000000e+00
1.000000e+00
5.732196e-01
5.734632e-01
5.737249e-01
5.739925e-01
5.742463e-01
5.744596e-01
5.746033e-01
5.746542e-01
5.746033e-01
5.744596e-01
5.742463e-01
5.739925e-01
5.737249e-01
5.734632e-01
5.732196e-01
0.000000e+00
1.000000e+00
5.735577e-01
5.741764e-01
5.748410e-01
5.755208e-01
5.761653e-01
5.767070e-01
5.770720e-01
5.772012e-01
5.770720e-01
5.767070e-01
5.761653e-01
5.755208e-01
5.748410e-01
5.741764e-01
5.735577e-01
0.000000e+00
1.000000e+00
5.740283e-01
5.751691e-01
5.763946e-01
5.776480e-01
5.788365e-01
5.798353e-01
5.805083e-01
5.807467e-01
5.805083e-01
5.798353e-01
5.788365e-01
5.776480e-01
5.763946e-01
5.751691e-01
5.740283e-01
0.000000e+00
1.000000e+00
5.746287e-01
5.764354e-01
5.783765e-01
5.803616e-01
5.822441e-01
5.838259e-01
5.848919e-01
5.852694e-01
5.848919e-01
5.838259e-01
5.822441e-01
5.803616e-01
5.783765e-01
5.764354e-01
5.746287e-01
0.000000e+00
1.000000e+00
5.753454e-01
5.779471e-01
5.807423e-01
5.836010e-01
5.863117e-01
5.885897e-01
5.901247e-01
5.906683e-01
5.901247e-01
5.885897e-01
5.863117e-01
5.836010e-01
5.807423e-01
5.779471e-01
5.753454e-01
0.000000e+00
1.000000e+00
5.761534e-01
5.796516e-01
5.834098e-01
5.872534e-01
5.908981e-01
5.939609e-01
5.960248e-01
5.967557e-01
5.960248e-01
5.939609e-01
5.908981e-01
5.872534e-01
5.834098e-01
5.796516e-01
5.761534e-01
0.000000e+00
1.000000e+00
5.770173e-01
5.814739e-01
5.862617e-01
5.911583e-01
5.958016e-01
5.997034e-01
6.023327e-01
6.032639e-01
6.023327e-01
5.997034e-01
5.958016e-01
5.911583e-01
5.862617e-01
5.814739e-01
5.770173e-01
0.000000e+00
1.000000e+00
5.778937e-01
5.833225e-01
5.891548e-01
5.951196e-01
6.007758e-01
6.055288e-01
6.087317e-01
6.098660e-01
6.087317e-01
6.055288e-01
6.007758e-01
5.951196e-01
5.891548e-01
5.833225e-01
5.778937e-01
0.000000e+00
1.000000e+00
5.787358e-01
5.850987e-01
5.919345e-01
5.989257e-01
6.055551e-01
6.111260e-01
6.148800e-01
6.162095e-01
6.148800e-01
6.111260e-01
6.055551e-01
5.989257e-01
5.919345e-01
5.850987e-01
5.787358e-01
0.000000e+00
1.000000e+00
5.794986e-01
5.867076e-01
5.944525e-01
6.023734e-01
6.098844e-01
6.161962e-01
6.204494e-01
6.219557e-01
6.204494e-01
6.161962e-01
6.098844e-01
6.023734e-01
5.944525e-01
5.867076e-01
5.794986e-01
0.000000e+00
1.000000e+00
5.801439e-01
5.880690e-01
5.965830e-01
6.052906e-01
6.135475e-01
6.204862e-01
6.251617e-01
6.268176e-01
6.251617e-01
6.204862e-01
6.135475e-01
6.052906e-01
5.965830e-01
5.880690e-01
5.801439e-01
0.000000e+00
1.000000e+00
5.806445e-01
5.891247e-01
5.982353e-01
6.075529e-01
6.163884e-01
6.238131e-01
6.288162e-01
6.305882e-01
6.288162e-01
6.238131e-01
6.163884e-01
6.075529e-01
5.982353e-01
5.891247e-01
5.806445e-01
0.000000e+00
1.000000e+00
5.809850e-01
5.898430e-01
5.993595e-01
6.090922e-01
6.183213e-01
6.260768e-01
6.313028e-01
6.331537e-01
6.313028e-01
6.260768e-01
6.183213e-01
6.090922e-01
5.993595e-01
5.898430e-01
5.809850e-01
0.000000e+00
1.000000e+00
5.811628e-01
5.902180e-01
5.999462e-01
6.098956e-01
6.193301e-01
6.272583e-01
6.326006e-01
6.344927e-01
6.326006e-01
6.272583e-01
6.193301e-01
6.098956e-01
5.999462e-01
5.902180e-01
5.811628e-01
0.000000e+00
1.000000e+00
5.811853e-01
5.902655e-01
6.000207e-01
6.099975e-01
6.194580e-01
6.274081e-01
6.327652e-01
6.346625e-01
6.327652e-01
6.274081e-01
6.194580e-01
6.099975e-01
6.000207e-01
5.902655e-01
5.811853e-01
0.000000e+00
1.000000e+00
5.810680e-01
5.900180e-01
5.996333e-01
6.094671e-01
6.187921e-01
6.266281e-01
6.319085e-01
6.337786e-01
6.319085e-01
6.266281e-01
6.187921e-01
6.094671e-01
5.996333e-01
5.900180e-01
5.810680e-01
0.000000e+00
1.000000e+00
5.728922e-01
5.727726e-01
5.726441e-01
5.725126e-01
5.723880e-01
5.722833e-01
5.722127e-01
5.721877e-01
5.722127e-01
5.722833e-01
5.723880e-01
5.725126e-01
5.726441e-01
5.727726e-01
5.728922e-01
0.000000e+00
1.000000e+00
5.732164e-01
5.734564e-01
5.737142e-01
5.739779e-01
5.742280e-01
5.744381e-01
5.745797e-01
5.746298e-01
5.745797e-01
5.744381e-01
5.742280e-01
5.739779e-01
5.737142e-01
5.734564e-01
5.732164e-01
0.000000e+00
1.000000e+00
5.736807e-01
5.744358e-01
5.752471e-01
5.760768e-01
5.768635e-01
5.775247e-01
5.779702e-01
5.781279e-01
5.779702e-01
5.775247e-01
5.768635e-01
5.760768e-01
5.752471e-01
5.744358e-01
5.736807e-01
0.000000e+00
1.000000e+00
5.742889e-01
5.757187e-01
5.772548e-01
5.788258e-01
5.803154e-01
5.815673e-01
5.824108e-01
5.827096e-01
5.824108e-01
5.815673e-01
5.803154e-01
5.788258e-01
5.772548e-01
5.757187e-01
5.742889e-01
0.000000e+00
1.000000e+00
5.750341e-01
5.772906e-01
5.797149e-01
5.821942e-01
5.845453e-01
5.865209e-01
5.878522e-01
5.883237e-01
5.878522e-01
5.865209e-01
5.845453e-01
5.821942e-01
5.797149e-01
5.772906e-01
5.750341e-01
0.000000e+00
1.000000e+00
5.758971e-01
5.791109e-01
5.825635e-01
5.860947e-01
5.894431e-01
5.922569e-01
5.941529e-01
5.948245e-01
5.941529e-01
5.922569e-01
5.894431e-01
5.860947e-01
5.825635e-01
5.791109e-01
5.758971e-01
0.000000e+00
1.000000e+00
5.768451e-01
5.811106e-01
5.856931e-01
5.903797e-01
5.948239e-01
5.985584e-01
6.010749e-01
6.019662e-01
6.010749e-01
5.985584e-01
5.948239e-01
5.903797e-01
5.856931e-01
5.811106e-01
5.768451e-01
0.000000e+00
1.000000e+00
5.778339e-01
5.831962e-01
5.889571e-01
5.948490e-01
6.004360e-01
6.051309e-01
6.082945e-01
6.094150e-01
6.082945e-01
6.051309e-01
6.004360e-01
5.948490e-01
5.889571e-01
5.831962e-01
5.778339e-01
0.000000e+00
1.000000e+00
5.788112e-01
5.852577e-01
5.921834e-01
5.992664e-01
6.059830e-01
6.116271e-01
6.154304e-01
6.167774e-01
6.154304e-01
6.116271e-01
6.059830e-01
5.992664e-01
5.921834e-01
5.852577e-01
5.788112e-01
0.000000e+00
1.000000e+00
5.797226e-01
5.871803e-01
5.951922e-01
6.033863e-01
6.111562e-01
6.176857e-01
6.220855e-01
6.236437e-01
6.220855e-01
6.176857e-01
6.111562e-01
6.033863e-01
5.951922e-01
5.871803e-01
5.797226e-01
0.000000e+00
1.000000e+00
5.805182e-01
5.888584e-01
5.978185e-01
6.069822e-01
6.156718e-01
6.229739e-01
6.278944e-01
6.296371e-01
6.278944e-01
6.229739e-01
6.156718e-01
6.069822e-01
5.978185e-01
5.888584e-01
5.805182e-01
0.000000e+00
1.000000e+00
5.811580e-01
5.902079e-01
5.999305e-01
6.098741e-01
6.193031e-01
6.272266e-01
6.325659e-01
6.344568e-01
6.325659e-01
6.272266e-01
6.193031e-01
6.098741e-01
5.999305e-01
5.902079e-01
5.811580e-01
0.000000e+00
1.000000e+00
5.816162e-01
5.911744e-01
6.014431e-01
6.119451e-01
6.219037e-01
6.302722e-01
6.359113e-01
6.379085e-01
6.359113e-01
6.302722e-01
6.219037e-01
6.119451e-01
6.014431e-01
5.911744e-01
5.816162e-01
0.000000e+00
1.000000e+00
5.818823e-01
5.917358e-01
6.023217e-01
6.131481e-01
6.234143e-01
6.320413e-01
6.378546e-01
6.399135e-01
6.378546e-01
6.320413e-01
6.234143e-01
6.131481e-01
6.023217e-01
5.917358e-01
5.818823e-01
0.000000e+00
1.000000e+00
5.819603e-01
5.919003e-01
6.025791e-01
6.135006e-01
6.238570e-01
6.325598e-01
6.384241e-01
6.405011e-01
6.384241e-01
6.325598e-01
6.238570e-01
6.135006e-01
6.025791e-01
5.919003e-01
5.819603e-01
0.000000e+00
1.000000e+00
5.818654e-01
5.917001e-01
6.022658e-01
6.130717e-01
6.233183e-01
6.319290e-01
6.377312e-01
6.397862e-01
6.377312e-01
6.319290e-01
6.233183e-01
6.130717e-01
6.022658e-01
5.917001e-01
5.818654e-01
0.000000e+00
1.000000e+00
5.816206e-01
5.911837e-01
6.014576e-01
6.119650e-01
6.219286e-01
6.303014e-01
6.359434e-01
6.379416e-01
6.359434e-01
6.303014e-01
6.219286e-01
6.119650e-01
6.014576e-01
5.911837e-01
5.816206e-01
0.000000e+00
1.000000e+00
5.726524e-01
5.722667e-01
5.718524e-01
5.714286e-01
5.710268e-01
5.706892e-01
5.704617e-01
5.703811e-01
5.704617e-01
5.706892e-01
5.710268e-01
5.714286e-01
5.718524e-01
5.722667e-01
5.726524e-01
0.000000e+00
1.000000e+00
5.730880e-01
5.731856e-01
5.732904e-01
5.733977e-01
5.734993e-01
5.735848e-01
5.736424e-01
5.736628e-01
5.736424e-01
5.735848e-01
5.734993e-01
5.733977e-01
5.732904e-01
5.731856e-01
5.730880e-01
0.000000e+00
1.000000e+00
5.736781e-01
5.744304e-01
5.752385e-01
5.760651e-01
5.768488e-01
5.775075e-01
5.779513e-01
5.781084e-01
5.779513e-01
5.775075e-01
5.768488e-01
5.760651e-01
5.752385e-01
5.744304e-01
5.736781e-01
0.000000e+00
1.000000e+00
5.744241e-01
5.760039e-01
5.777011e-01
5.794369e-01
5.810828e-01
5.824660e-01
5.833980e-01
5.837281e-01
5.833980e-01
5.824660e-01
5.810828e-01
5.794369e-01
5.777011e-01
5.760039e-01
5.744241e-01
0.000000e+00
1.000000e+00
5.753148e-01
5.778827e-01
5.806415e-01
5.834629e-01
5.861384e-01
5.883867e-01
5.899017e-01
5.904382e-01
5.899017e-01
5.883867e-01
5.861384e-01
5.834629e-01
5.806415e-01
5.778827e-01
5.753148e-01
0.000000e+00
1.000000e+00
5.763245e-01
5.800125e-01
5.839745e-01
5.880267e-01
5.918691e-01
5.950981e-01
5.972739e-01
5.980445e-01
5.972739e-01
5.950981e-01
5.918691e-01
5.880267e-01
5.839745e-01
5.800125e-01
5.763245e-01
0.000000e+00
1.000000e+00
5.774122e-01
5.823068e-01
5.875652e-01
5.929431e-01
5.980427e-01
6.023281e-01
6.052158e-01
6.062385e-01
6.052158e-01
6.023281e-01
5.980427e-01
5.929431e-01
5.875652e-01
5.823068e-01
5.774122e-01
0.000000e+00
1.000000e+00
5.785241e-01
5.846523e-01
5.912359e-01
5.979691e-01
6.043539e-01
6.097192e-01
6.133347e-01
6.146151e-01
6.133347e-01
6.097192e-01
6.043539e-01
5.979691e-01
5.912359e-01
5.846523e-01
5.785241e-01
0.000000e+00
1.000000e+00
5.795988e-01
5.869190e-01
5.947833e-01
6.028264e-01
6.104532e-01
6.168623e-01
6.211811e-01
6.227106e-01
6.211811e-01
6.168623e-01
6.104532e-01
6.028264e-01
5.947833e-01
5.869190e-01
5.795988e-01
0.000000e+00
1.000000e+00
5.805739e-01
5.889759e-01
5.980025e-01
6.072341e-01
6.159880e-01
6.233443e-01
6.283013e-01
6.300569e-01
6.283013e-01
6.233443e-01
6.159880e-01
6.072341e-01
5.980025e-01
5.889759e-01
5.805739e-01
0.000000e+00
1.000000e+00
5.813948e-01
5.907073e-01
6.007121e-01
6.109443e-01
6.206469e-01
6.288004e-01
6.342946e-01
6.362404e-01
6.342946e-01
6.288004e-01
6.206469e-01
6.109443e-01
6.007121e-01
5.907073e-01
5.813948e-01
0.000000e+00
1.000000e+00
5.820202e-01
5.920267e-01
6.027769e-01
6.137714e-01
6.241970e-01
6.329579e-01
6.388615e-01
6.409523e-01
6.388615e-01
6.329579e-01
6.241970e-01
6.137714e-01
6.027769e-01
5.920267e-01
5.820202e-01
0.000000e+00
1.000000e+00
5.824271e-01
5.928850e-01
6.041201e-01
6.156107e-01
6.265065e-01
6.356627e-01
6.418326e-01
6.440178e-01
6.418326e-01
6.356627e-01
6.265065e-01
6.156107e-01
6.041201e-01
5.928850e-01
5.824271e-01
0.000000e+00
1.000000e+00
5.826108e-01
5.932724e-01
6.047264e-01
6.164407e-01
6.275489e-01
6.368834e-01
6.431735e-01
6.454012e-01
6.431735e-01
6.368834e-01
6.275489e-01
6.164407e-01
6.047264e-01
5.932724e-01
5.826108e-01
0.000000e+00
1.000000e+00
5.825827e-01
5.932131e-01
6.046336e-01
6.163137e-01
6.273894e-01
6.366967e-01
6.429683e-01
6.451895e-01
6.429683e-01
6.366967e-01
6.273894e-01
6.163137e-01
6.046336e-01
5.932131e-01
5.825827e-01
0.000000e+00
1.000000e+00
5.823664e-01
5.927569e-01
6.039198e-01
6.153363e-01
6.261620e-01
6.352592e-01
6.413894e-01
6.435605e-01
6.413894e-01
6.352592e-01
6.261620e-01
6.153363e-01
6.039198e-01
5.927569e-01
5.823664e-01
0.000000e+00
1.000000e+00
5.819929e-01
5.919690e-01
6.026867e-01
6.136479e-01
6.240419e-01
6.327763e-01
6.386620e-01
6.407465e-01
6.386620e-01
6.327763e-01
6.240419e-01
6.136479e-01
6.026867e-01
5.919690e-01
5.819929e-01
0.000000e+00
1.000000e+00
5.722840e-01
5.714896e-01
5.706362e-01
5.697634e-01
5.689358e-01
5.682403e-01
5.677717e-01
5.676057e-01
5.677717e-01
5.682403e-01
5.689358e-01
5.697634e-01
5.706362e-01
5.714896e-01
5.722840e-01
0.000000e+00
1.000000e+00
5.728253e-01
5.726315e-01
5.724233e-01
5.722104e-01
5.720084e-01
5.718388e-01
5.717244e-01
5.716839e-01
5.717244e-01
5.718388e-01
5.720084e-01
5.722104e-01
5.724233e-01
5.726315e-01
5.728253e-01
0.000000e+00
1.000000e+00
5.735355e-01
5.741296e-01
5.747679e-01
5.754206e-01
5.760396e-01
5.765597e-01
5.769102e-01
5.770343e-01
5.769102e-01
5.765597e-01
5.760396e-01
5.754206e-01
5.747679e-01
5.741296e-01
5.735355e-01
0.000000e+00
1.000000e+00
5.744136e-01
5.759817e-01
5.776663e-01
5.793892e-01
5.810230e-01
5.823959e-01
5.833211e-01
5.836487e-01
5.833211e-01
5.823959e-01
5.810230e-01
5.793892e-01
5.776663e-01
5.759817e-01
5.744136e-01
0.000000e+00
1.000000e+00
5.754438e-01
5.781549e-01
5.810674e-01
5.840461e-01
5.868707e-01
5.892443e-01
5.908437e-01
5.914102e-01
5.908437e-01
5.892443e-01
5.868707e-01
5.840461e-01
5.810674e-01
5.781549e-01
5.754438e-01
0.000000e+00
1.000000e+00
5.765939e-01
5.805808e-01
5.848640e-01
5.892445e-01
5.933983e-01
5.968889e-01
5.992411e-01
6.000741e-01
5.992411e-01
5.968889e-01
5.933983e-01
5.892445e-01
5.848640e-01
5.805808e-01
5.765939e-01
0.000000e+00
1.000000e+00
5.778143e-01
5.831550e-01
5.888927e-01
5.947607e-01
6.003251e-01
6.050011e-01
6.081520e-01
6.092679e-01
6.081520e-01
6.050011e-01
6.003251e-01
5.947607e-01
5.888927e-01
5.831550e-01
5.778143e-01
0.000000e+00
1.000000e+00
5.790417e-01
5.857439e-01
5.929443e-01
6.003083e-01
6.072912e-01
6.131592e-01
6.171134e-01
6.185138e-01
6.171134e-01
6.131592e-01
6.072912e-01
6.003083e-01
5.929443e-01
5.857439e-01
5.790417e-01
0.000000e+00
1.000000e+00
5.802050e-01
5.881978e-01
5.967847e-01
6.055667e-01
6.138943e-01
6.208923e-01
6.256078e-01
6.272779e-01
6.256078e-01
6.208923e-01
6.138943e-01
6.055667e-01
5.967847e-01
5.881978e-01
5.802050e-01
0.000000e+00
1.000000e+00
5.812349e-01
5.903700e-01
6.001842e-01
6.102215e-01
6.197393e-01
6.277375e-01
6.331270e-01
6.350358e-01
6.331270e-01
6.277375e-01
6.197393e-01
6.102215e-01
6.001842e-01
5.903700e-01
5.812349e-01
0.000000e+00
1.000000e+00
5.820719e-01
5.921357e-01
6.029476e-01
6.140051e-01
6.244905e-01
6.333017e-01
6.392391e-01
6.413419e-01
6.392391e-01
6.333017e-01
6.244905e-01
6.140051e-01
6.029476e-01
5.921357e-01
5.820719e-01
0.000000e+00
1.000000e+00
5.826750e-01
5.934077e-01
6.049382e-01
6.167308e-01
6.279131e-01
6.373100e-01
6.436420e-01
6.458847e-01
6.436420e-01
6.373100e-01
6.279131e-01
6.167308e-01
6.049382e-01
5.934077e-01
5.826750e-01
0.000000e+00
1.000000e+00
5.830242e-01
5.941444e-01
6.060911e-01
6.183093e-01
6.298953e-01
6.396314e-01
6.461920e-01
6.485156e-01
6.461920e-01
6.396314e-01
6.298953e-01
6.183093e-01
6.060911e-01
5.941444e-01
5.830242e-01
0.000000e+00
1.000000e+00
5.831214e-01
5.943494e-01
6.064120e-01
6.187487e-01
6.304470e-01
6.402775e-01
6.469018e-01
6.492479e-01
6.469018e-01
6.402775e-01
6.304470e-01
6.187487e-01
6.064120e-01
5.943494e-01
5.831214e-01
0.000000e+00
1.000000e+00
5.829863e-01
5.940643e-01
6.059658e-01
6.181378e-01
6.296799e-01
6.393792e-01
6.459150e-01
6.482297e-01
6.459150e-01
6.393792e-01
6.296799e-01
6.181378e-01
6.059658e-01
5.940643e-01
5.829863e-01
0.000000e+00
1.000000e+00
5.826509e-01
5.933569e-01
6.048586e-01
6.166218e-01
6.277762e-01
6.371497e-01
6.434660e-01
6.457030e-01
6.434660e-01
6.371497e-01
6.277762e-01
6.166218e-01
6.048586e-01
5.933569e-01
5.826509e-01
0.000000e+00
1.000000e+00
5.821538e-01
5.923085e-01
6.032179e-01
6.143753e-01
6.249553e-01
6.338460e-01
6.398370e-01
6.419588e-01
6.398370e-01
6.338460e-01
6.249553e-01
6.143753e-01
6.032179e-01
5.923085e-01
5.821538e-01
0.000000e+00
1.000000e+00
5.717908e-01
5.704493e-01
5.690081e-01
5.675342e-01
5.661366e-01
5.649621e-01
5.641707e-01
5.638904e-01
5.641707e-01
5.649621e-01
5.661366e-01
5.675342e-01
5.690081e-01
5.704493e-01
5.717908e-01
0.000000e+00
1.000000e+00
5.724279e-01
5.717932e-01
5.711114e-01
5.704140e-01
5.697528e-01
5.691971e-01
5.688227e-01
5.686901e-01
5.688227e-01
5.691971e-01
5.697528e-01
5.704140e-01
5.711114e-01
5.717932e-01
5.724279e-01
0.000000e+00
1.000000e+00
5.732472e-01
5.735215e-01
5.738161e-01
5.741174e-01
5.744031e-01
5.746433e-01
5.748050e-01
5.748623e-01
5.748050e-01
5.746433e-01
5.744031e-01
5.741174e-01
5.738161e-01
5.735215e-01
5.732472e-01
0.000000e+00
1.000000e+00
5.742452e-01
5.756266e-01
5.771107e-01
5.786285e-01
5.800677e-01
5.812772e-01
5.820921e-01
5.823808e-01
5.820921e-01
5.812772e-01
5.800677e-01
5.786285e-01
5.771107e-01
5.756266e-01
5.742452e-01
0.000000e+00
1.000000e+00
5.754020e-01
5.780667e-01
5.809294e-01
5.838571e-01
5.866334e-01
5.889663e-01
5.905384e-01
5.910952e-01
5.905384e-01
5.889663e-01
5.866334e-01
5.838571e-01
5.809294e-01
5.780667e-01
5.754020e-01
0.000000e+00
1.000000e+00
5.766786e-01
5.807594e-01
5.851435e-01
5.896273e-01
5.938790e-01
5.974519e-01
5.998595e-01
6.007121e-01
5.998595e-01
5.974519e-01
5.938790e-01
5.896273e-01
5.851435e-01
5.807594e-01
5.766786e-01
0.000000e+00
1.000000e+00
5.780173e-01
5.835831e-01
5.895626e-01
5.956780e-01
6.014770e-01
6.063500e-01
6.096337e-01
6.107967e-01
6.096337e-01
6.063500e-01
6.014770e-01
5.956780e-01
5.895626e-01
5.835831e-01
5.780173e-01
0.000000e+00
1.000000e+00
5.793455e-01
5.863847e-01
5.939472e-01
6.016815e-01
6.090156e-01
6.151787e-01
6.193316e-01
6.208025e-01
6.193316e-01
6.151787e-01
6.090156e-01
6.016815e-01
5.939472e-01
5.863847e-01
5.793455e-01
0.000000e+00
1.000000e+00
5.805837e-01
5.889965e-01
5.980347e-01
6.072782e-01
6.160434e-01
6.234091e-01
6.283725e-01
6.301303e-01
6.283725e-01
6.234091e-01
6.160434e-01
6.072782e-01
5.980347e-01
5.889965e-01
5.805837e-01
0.000000e+00
1.000000e+00
5.816557e-01
5.912577e-01
6.015734e-01
6.121236e-01
6.221278e-01
6.305347e-01
6.361996e-01
6.382060e-01
6.361996e-01
6.305347e-01
6.221278e-01
6.121236e-01
6.015734e-01
5.912577e-01
5.816557e-01
0.000000e+00
1.000000e+00
5.824989e-01
5.930364e-01
6.043571e-01
6.159351e-01
6.269139e-01
6.361398e-01
6.423566e-01
6.445584e-01
6.423566e-01
6.361398e-01
6.269139e-01
6.159351e-01
6.043571e-01
5.930364e-01
5.824989e-01
0.000000e+00
1.000000e+00
5.830726e-01
5.942464e-01
6.062508e-01
6.185280e-01
6.301699e-01
6.399530e-01
6.465453e-01
6.488801e-01
6.465453e-01
6.399530e-01
6.301699e-01
6.185280e-01
6.062508e-01
5.942464e-01
5.830726e-01
0.000000e+00
1.000000e+00
5.833611e-01
5.948550e-01
6.072032e-01
6.198321e-01
6.318074e-01
6.418707e-01
6.486518e-01
6.510535e-01
6.486518e-01
6.418707e-01
6.318074e-01
6.198321e-01
6.072032e-01
5.948550e-01
5.833611e-01
0.000000e+00
1.000000e+00
5.833729e-01
5.948800e-01
6.072423e-01
6.198857e-01
6.318747e-01
6.419495e-01
6.487384e-01
6.511428e-01
6.487384e-01
6.419495e-01
6.318747e-01
6.198857e-01
6.072423e-01
5.948800e-01
5.833729e-01
0.000000e+00
1.000000e+00
5.831359e-01
5.943800e-01
6.064599e-01
6.188143e-01
6.305293e-01
6.403739e-01
6.470077e-01
6.493571e-01
6.470077e-01
6.403739e-01
6.305293e-01
6.188143e-01
6.064599e-01
5.943800e-01
5.831359e-01
0.000000e+00
1.000000e+00
5.826902e-01
5.934398e-01
6.049884e-01
6.167996e-01
6.279994e-01
6.374111e-01
6.437531e-01
6.459993e-01
6.437531e-01
6.374111e-01
6.279994e-01
6.167996e-01
6.049884e-01
5.934398e-01
5.826902e-01
0.000000e+00
1.000000e+00
5.820815e-01
5.921559e-01
6.029792e-01
6.140484e-01
6.245448e-01
6.333653e-01
6.393090e-01
6.414140e-01
6.393090e-01
6.333653e-01
6.245448e-01
6.140484e-01
6.029792e-01
5.921559e-01
5.820815e-01
0.000000e+00
1.000000e+00
5.711866e-01
5.691750e-01
5.670138e-01
5.648035e-01
5.627076e-01
5.609464e-01
5.597596e-01
5.593392e-01
5.597596e-01
5.609464e-01
5.627076e-01
5.648035e-01
5.670138e-01
5.691750e-01
5.711866e-01
0.000000e+00
1.000000e+00
5.719060e-01
5.706924e-01
5.693887e-01
5.680552e-01
5.667908e-01
5.657283e-01
5.650123e-01
5.647587e-01
5.650123e-01
5.657283e-01
5.667908e-01
5.680552e-01
5.693887e-01
5.706924e-01
5.719060e-01
0.000000e+00
1.000000e+00
5.728188e-01
5.726177e-01
5.724018e-01
5.721809e-01
5.719714e-01
5.717954e-01
5.716768e-01
5.716348e-01
5.716768e-01
5.717954e-01
5.719714e-01
5.721809e-01
5.724018e-01
5.726177e-01
5.728188e-01
0.000000e+00
1.000000e+00
5.739189e-01
5.749383e-01
5.760335e-01
5.771536e-01
5.782157e-01
5.791082e-01
5.797096e-01
5.799226e-01
5.797096e-01
5.791082e-01
5.782157e-01
5.771536e-01
5.760335e-01
5.749383e-01
5.739189e-01
0.000000e+00
1.000000e+00
5.751824e-01
5.776034e-01
5.802044e-01
5.828644e-01
5.853868e-01
5.875065e-01
5.889348e-01
5.894407e-01
5.889348e-01
5.875065e-01
5.853868e-01
5.828644e-01
5.802044e-01
5.776034e-01
5.751824e-01
0.000000e+00
1.000000e+00
5.765643e-01
5.805182e-01
5.847660e-01
5.891104e-01
5.932299e-01
5.966917e-01
5.990245e-01
5.998506e-01
5.990245e-01
5.966917e-01
5.932299e-01
5.891104e-01
5.847660e-01
5.805182e-01
5.765643e-01
0.000000e+00
1.000000e+00
5.779994e-01
5.835453e-01
5.895035e-01
5.955972e-01
6.013754e-01
6.062311e-01
6.095031e-01
6.106619e-01
6.095031e-01
6.062311e-01
6.013754e-01
5.955972e-01
5.895035e-01
5.835453e-01
5.779994e-01
0.000000e+00
1.000000e+00
5.794073e-01
5.865152e-01
5.941513e-01
6.019611e-01
6.093666e-01
6.155898e-01
6.197832e-01
6.212684e-01
6.197832e-01
6.155898e-01
6.093666e-01
6.019611e-01
5.941513e-01
5.865152e-01
5.794073e-01
0.000000e+00
1.000000e+00
5.807013e-01
5.892446e-01
5.984230e-01
6.078099e-01
6.167111e-01
6.241910e-01
6.292314e-01
6.310165e-01
6.292314e-01
6.241910e-01
6.167111e-01
6.078099e-01
5.984230e-01
5.892446e-01
5.807013e-01
0.000000e+00
1.000000e+00
5.817999e-01
5.915619e-01
6.020496e-01
6.127756e-01
6.229465e-01
6.314935e-01
6.372529e-01
6.392926e-01
6.372529e-01
6.314935e-01
6.229465e-01
6.127756e-01
6.020496e-01
5.915619e-01
5.817999e-01
0.000000e+00
1.000000e+00
5.826385e-01
5.933308e-01
6.048179e-01
6.165660e-01
6.277062e-01
6.370676e-01
6.433758e-01
6.456100e-01
6.433758e-01
6.370676e-01
6.277062e-01
6.165660e-01
6.048179e-01
5.933308e-01
5.826385e-01
0.000000e+00
1.000000e+00
5.831776e-01
5.944679e-01
6.065974e-01
6.190026e-01
6.307658e-01
6.406509e-01
6.473119e-01
6.496710e-01
6.473119e-01
6.406509e-01
6.307658e-01
6.190026e-01
6.065974e-01
5.944679e-01
5.831776e-01
0.000000e+00
1.000000e+00
5.834060e-01
5.949497e-01
6.073514e-01
6.200350e-01
6.320622e-01
6.421691e-01
6.489796e-01
6.513916e-01
6.489796e-01
6.421691e-01
6.320622e-01
6.200350e-01
6.073514e-01
5.949497e-01
5.834060e-01
0.000000e+00
1.000000e+00
5.833387e-01
5.948078e-01
6.071294e-01
6.197310e-01
6.316805e-01
6.417221e-01
6.484886e-01
6.508850e-01
6.484886e-01
6.417221e-01
6.316805e-01
6.197310e-01
6.071294e-01
5.948078e-01
5.833387e-01
0.000000e+00
1.000000e+00
5.830110e-01
5.941165e-01
6.060474e-01
6.182495e-01
6.298202e-01
6.395434e-01
6.460954e-01
6.484159e-01
6.460954e-01
6.395434e-01
6.298202e-01
6.182495e-01
6.060474e-01
5.941165e-01
5.830110e-01
0.000000e+00
1.000000e+00
5.824700e-01
5.929753e-01
6.042615e-01
6.158041e-01
6.267495e-01
6.359473e-01
6.421451e-01
6.443402e-01
6.421451e-01
6.359473e-01
6.267495e-01
6.158041e-01
6.042615e-01
5.929753e-01
5.824700e-01
0.000000e+00
1.000000e+00
5.817674e-01
5.914934e-01
6.019424e-01
6.126288e-01
6.227621e-01
6.312776e-01
6.370157e-01
6.390479e-01
6.370157e-01
6.312776e-01
6.227621e-01
6.126288e-01
6.019424e-01
5.914934e-01
5.817674e-01
0.000000e+00
1.000000e+00
5.704955e-01
5.677171e-01
5.647322e-01
5.616795e-01
5.587847e-01
5.563522e-01
5.547130e-01
5.541325e-01
5.547130e-01
5.563522e-01
5.587847e-01
5.616795e-01
5.647322e-01
5.677171e-01
5.704955e-01
0.000000e+00
1.000000e+00
5.712814e-01
5.693748e-01
5.673266e-01
5.652318e-01
5.632454e-01
5.615761e-01
5.604513e-01
5.600530e-01
5.604513e-01
5.615761e-01
5.632454e-01
5.652318e-01
5.673266e-01
5.693748e-01
5.712814e-01
0.000000e+00
1.000000e+00
5.722685e-01
5.714570e-01
5.705852e-01
5.696936e-01
5.688482e-01
5.681377e-01
5.676589e-01
5.674894e-01
5.676589e-01
5.681377e-01
5.688482e-01
5.696936e-01
5.705852e-01
5.714570e-01
5.722685e-01
0.000000e+00
1.000000e+00
5.734485e-01
5.739460e-01
5.744805e-01
5.750271e-01
5.755455e-01
5.759811e-01
5.762746e-01
5.763786e-01
5.762746e-01
5.759811e-01
5.755455e-01
5.750271e-01
5.744805e-01
5.739460e-01
5.734485e-01
0.000000e+00
1.000000e+00
5.747934e-01
5.767829e-01
5.789203e-01
5.811062e-01
5.831790e-01
5.849209e-01
5.860946e-01
5.865103e-01
5.860946e-01
5.849209e-01
5.831790e-01
5.811062e-01
5.789203e-01
5.767829e-01
5.747934e-01
0.000000e+00
1.000000e+00
5.762533e-01
5.798623e-01
5.837395e-01
5.877048e-01
5.914650e-01
5.946247e-01
5.967539e-01
5.975080e-01
5.967539e-01
5.946247e-01
5.914650e-01
5.877048e-01
5.837395e-01
5.798623e-01
5.762533e-01
0.000000e+00
1.000000e+00
5.777571e-01
5.830342e-01
5.887036e-01
5.945019e-01
6.000001e-01
6.046204e-01
6.077338e-01
6.088364e-01
6.077338e-01
6.046204e-01
6.000001e-01
5.945019e-01
5.887036e-01
5.830342e-01
5.777571e-01
0.000000e+00
1.000000e+00
5.792182e-01
5.861162e-01
5.935270e-01
6.011062e-01
6.082932e-01
6.143327e-01
6.184023e-01
6.198437e-01
6.184023e-01
6.143327e-01
6.082932e-01
6.011062e-01
5.935270e-01
5.861162e-01
5.792182e-01
0.000000e+00
1.000000e+00
5.805448e-01
5.889145e-01
5.979062e-01
6.071024e-01
6.158226e-01
6.231506e-01
6.280885e-01
6.298373e-01
6.280885e-01
6.231506e-01
6.158226e-01
6.071024e-01
5.979062e-01
5.889145e-01
5.805448e-01
0.000000e+00
1.000000e+00
5.816521e-01
5.912502e-01
6.015618e-01
6.121076e-01
6.221077e-01
6.305112e-01
6.361738e-01
6.381794e-01
6.361738e-01
6.305112e-01
6.221077e-01
6.121076e-01
6.015618e-01
5.912502e-01
5.816521e-01
0.000000e+00
1.000000e+00
5.824750e-01
5.929859e-01
6.042781e-01
6.158270e-01
6.267781e-01
6.359808e-01
6.421820e-01
6.443782e-01
6.421820e-01
6.359808e-01
6.267781e-01
6.158270e-01
6.042781e-01
5.929859e-01
5.824750e-01
0.000000e+00
1.000000e+00
5.829760e-01
5.940426e-01
6.059319e-01
6.180913e-01
6.296215e-01
6.393108e-01
6.458398e-01
6.481522e-01
6.458398e-01
6.393108e-01
6.296215e-01
6.180913e-01
6.059319e-01
5.940426e-01
5.829760e-01
0.000000e+00
1.000000e+00
5.831482e-01
5.944060e-01
6.065005e-01
6.188699e-01
6.305992e-01
6.404558e-01
6.470976e-01
6.494499e-01
6.470976e-01
6.404558e-01
6.305992e-01
6.188699e-01
6.065005e-01
5.944060e-01
5.831482e-01
0.000000e+00
1.000000e+00
5.830125e-01
5.941198e-01
6.060526e-01
6.182566e-01
6.298291e-01
6.395538e-01
6.461068e-01
6.484277e-01
6.461068e-01
6.395538e-01
6.298291e-01
6.182566e-01
6.060526e-01
5.941198e-01
5.830125e-01
0.000000e+00
1.000000e+00
5.826101e-01
5.932708e-01
6.047239e-01
6.164374e-01
6.275447e-01
6.368785e-01
6.431681e-01
6.453956e-01
6.431681e-01
6.368785e-01
6.275447e-01
6.164374e-01
6.047239e-01
5.932708e-01
5.826101e-01
0.000000e+00
1.000000e+00
5.819936e-01
5.919705e-01
6.026889e-01
6.136510e-01
6.240457e-01
6.327808e-01
6.386669e-01