<?xml version="1.0"?>
<VTKFile type="StructuredGrid" version="0.1">
  <StructuredGrid WholeExtent="0 16 0 16 0 16">
    <Piece Extent="0 16 0 16 0 16">
      <PointData Scalars="temperature" Vectors="velocity">
        <DataArray type="Float32" Name="temperature" format="ascii">
1.000000e+00
5.730116e-01
5.730244e-01
5.730381e-01
5.730522e-01
5.730656e-01
5.730768e-01
5.730844e-01
5.730870e-01
5.730844e-01
5.730768e-01
5.730656e-01
5.730522e-01
5.730381e-01
5.730244e-01
5.730116e-01
0.000000e+00
1.000000e+00
5.730082e-01
5.730172e-01
5.730270e-01
5.730369e-01
5.730464e-01
5.730543e-01
5.730596e-01
5.730615e-01
5.730596e-01
5.730543e-01
5.730464e-01
5.730369e-01
5.730270e-01
5.730172e-01
5.730082e-01
0.000000e+00
1.000000e+00
5.728922e-01
5.727726e-01
5.726441e-01
5.725126e-01
5.723880e-01
5.722833e-01
5.722127e-01
5.721877e-01
5.722127e-01
5.722833e-01
5.723880e-01
5.725126e-01
5.726441e-01
5.727726e-01
5.728922e-01
0.000000e+00
1.000000e+00
5.726524e-01
5.722667e-01
5.718524e-01
5.714286e-01
5.710268e-01
5.706892e-01
5.704617e-01
5.703811e-01
5.704617e-01
5.706892e-01
5.710268e-01
5.714286e-01
5.718524e-01
5.722667e-01
5.726524e-01
0.000000e+00
1.000000e+00
5.722840e-01
5.714896e-01
5.706362e-01
5.697634e-01
5.689358e-01
5.682403e-01
5.677717e-01
5.676057e-01
5.677717e-01
5.682403e-01
5.689358e-01
5.697634e-01
5.706362e-01
5.714896e-01
5.722840e-01
0.000000e+00
1.000000e+00
5.717908e-01
5.704493e-01
5.690081e-01
5.675342e-01
5.661366e-01
5.649621e-01
5.641707e-01
5.638904e-01
5.641707e-01
5.649621e-01
5.661366e-01
5.675342e-01
5.690081e-01
5.704493e-01
5.717908e-01
0.000000e+00
1.000000e+00
5.711866e-01
5.691750e-01
5.670138e-01
5.648035e-01
5.627076e-01
5.609464e-01
5.597596e-01
5.593392e-01
5.597596e-01
5.609464e-01
5.627076e-01
5.648035e-01
5.670138e-01
5.691750e-01
5.711866e-01
0.000000e+00
1.000000e+00
5.704955e-01
5.677171e-01
5.647322e-01
5.616795e-01
5.587847e-01
5.563522e-01
5.547130e-01
5.541325e-01
5.547130e-01
5.563522e-01
5.587847e-01
5.616795e-01
5.647322e-01
5.677171e-01
5.704955e-01
0.000000e+00
1.000000e+00
5.697499e-01
5.661444e-01
5.622709e-01
5.583094e-01
5.545529e-01
5.513961e-01
5.492690e-01
5.485156e-01
5.492690e-01
5.513961e-01
5.545529e-01
5.583094e-01
5.622709e-01
5.661444e-01
5.697499e-01
0.000000e+00
1.000000e+00
5.689881e-01
5.645376e-01
5.597563e-01
5.548664e-01
5.502295e-01
5.463329e-01
5.437072e-01
5.427773e-01
5.437072e-01
5.463329e-01
5.502295e-01
5.548664e-01
5.597563e-01
5.645376e-01
5.689881e-01
0.000000e+00
1.000000e+00
5.682503e-01
5.629812e-01
5.573205e-01
5.515312e-01
5.460415e-01
5.414282e-01
5.383196e-01
5.372187e-01
5.383196e-01
5.414282e-01
5.460415e-01
5.515312e-01
5.573205e-01
5.629812e-01
5.682503e-01
0.000000e+00
1.000000e+00
5.675737e-01
5.615540e-01
5.550869e-01
5.484729e-01
5.422011e-01
5.369307e-01
5.333792e-01
5.321214e-01
5.333792e-01
5.369307e-01
5.422011e-01
5.484729e-01
5.550869e-01
5.615540e-01
5.675737e-01
0.000000e+00
1.000000e+00
5.669893e-01
5.603215e-01
5.531580e-01
5.458317e-01
5.388846e-01
5.330466e-01
5.291128e-01
5.277195e-01
5.291128e-01
5.330466e-01
5.388846e-01
5.458317e-01
5.531580e-01
5.603215e-01
5.669893e-01
0.000000e+00
1.000000e+00
5.665195e-01
5.593305e-01
5.516071e-01
5.437082e-01
5.362181e-01
5.299238e-01
5.256825e-01
5.241803e-01
5.256825e-01
5.299238e-01
5.362181e-01
5.437082e-01
5.516071e-01
5.593305e-01
5.665195e-01
0.000000e+00
1.000000e+00
5.661767e-01
5.586073e-01
5.504753e-01
5.421585e-01
5.342721e-01
5.276448e-01
5.231791e-01
5.215975e-01
5.231791e-01
5.276448e-01
5.342721e-01
5.421585e-01
5.504753e-01
5.586073e-01
5.661767e-01
0.000000e+00
1.000000e+00
5.659638e-01
5.581583e-01
5.497727e-01
5.411964e-01
5.330640e-01
5.262300e-01
5.216250e-01
5.199940e-01
5.216250e-01
5.262300e-01
5.330640e-01
5.411964e-01
5.497727e-01
5.581583e-01
5.659638e-01
0.000000e+00
1.000000e+00
5.658762e-01
5.579735e-01
5.494834e-01
5.408003e-01
5.325666e-01
5.256475e-01
5.209850e-01
5.193338e-01
5.209850e-01
5.256475e-01
5.325666e-01
5.408003e-01
5.494834e-01
5.579735e-01
5.658762e-01
0.000000e+00
1.000000e+00
5.730149e-01
5.730313e-01
5.730490e-01
5.730671e-01
5.730843e-01
5.730987e-01
5.731084e-01
5.731118e-01
5.731084e-01
5.730987e-01
5.730843e-01
5.730671e-01
5.730490e-01
5.730313e-01
5.730149e-01
0.000000e+00
1.000000e+00
5.729027e-01
5.727947e-01
5.726786e-01
5.725600e-01
5.724474e-01
5.723529e-01
5.722891e-01
5.722666e-01
5.722891e-01
5.723529e-01
5.724474e-01
5.725600e-01
5.726786e-01
5.727947e-01
5.729027e-01
0.000000e+00
1.000000e+00
5.726654e-01
5.722942e-01
5.718954e-01
5.714875e-01
5.711008e-01
5.707758e-01
5.705568e-01
5.704792e-01
5.705568e-01
5.707758e-01
5.711008e-01
5.714875e-01
5.718954e-01
5.722942e-01
5.726654e-01
0.000000e+00
1.000000e+00
5.722935e-01
5.715098e-01
5.706678e-01
5.698067e-01
5.689901e-01
5.683039e-01
5.678415e-01
5.676778e-01
5.678415e-01
5.683039e-01
5.689901e-01
5.698067e-01
5.706678e-01
5.715098e-01
5.722935e-01
0.000000e+00
1.000000e+00
5.717855e-01
5.704381e-01
5.689906e-01
5.675102e-01
5.661064e-01
5.649268e-01
5.641319e-01
5.638503e-01
5.641319e-01
5.649268e-01
5.661064e-01
5.675102e-01
5.689906e-01
5.704381e-01
5.717855e-01
0.000000e+00
1.000000e+00
5.711499e-01
5.690975e-01
5.668925e-01
5.646374e-01
5.624990e-01
5.607021e-01
5.594912e-01
5.590624e-01
5.594912e-01
5.607021e-01
5.624990e-01
5.646374e-01
5.668925e-01
5.690975e-01
5.711499e-01
0.000000e+00
1.000000e+00
5.704071e-01
5.675307e-01
5.644405e-01
5.612800e-01
5.582832e-01
5.557648e-01
5.540678e-01
5.534667e-01
5.540678e-01
5.557648e-01
5.582832e-01
5.612800e-01
5.644405e-01
5.675307e-01
5.704071e-01
0.000000e+00
1.000000e+00
5.695887e-01
5.658044e-01
5.617387e-01
5.575807e-01
5.536379e-01
5.503246e-01
5.480920e-01
5.473012e-01
5.480920e-01
5.503246e-01
5.536379e-01
5.575807e-01
5.617387e-01
5.658044e-01
5.695887e-01
0.000000e+00
1.000000e+00
5.687352e-01
5.640041e-01
5.589213e-01
5.537230e-01
5.487937e-01
5.446515e-01
5.418602e-01
5.408717e-01
5.418602e-01
5.446515e-01
5.487937e-01
5.537230e-01
5.589213e-01
5.640041e-01
5.687352e-01
0.000000e+00
1.000000e+00
5.678923e-01
5.622261e-01
5.561387e-01
5.499130e-01
5.440095e-01
5.390485e-01
5.357056e-01
5.345216e-01
5.357056e-01
5.390485e-01
5.440095e-01
5.499130e-01
5.561387e-01
5.622261e-01
5.678923e-01
0.000000e+00
1.000000e+00
5.671054e-01
5.605663e-01
5.535412e-01
5.463564e-01
5.395434e-01
5.338182e-01
5.299603e-01
5.285940e-01
5.299603e-01
5.338182e-01
5.395434e-01
5.463564e-01
5.535412e-01
5.605663e-01
5.671054e-01
0.000000e+00
1.000000e+00
5.664149e-01
5.591098e-01
5.512618e-01
5.432354e-01
5.356243e-01
5.292285e-01
5.249187e-01
5.233923e-01
5.249187e-01
5.292285e-01
5.356243e-01
5.432354e-01
5.512618e-01
5.591098e-01
5.664149e-01
0.000000e+00
1.000000e+00
5.658518e-01
5.579220e-01
5.494028e-01
5.406900e-01
5.324281e-01
5.254854e-01
5.208070e-01
5.191501e-01
5.208070e-01
5.254854e-01
5.324281e-01
5.406900e-01
5.494028e-01
5.579220e-01
5.658518e-01
0.000000e+00
1.000000e+00
5.654354e-01
5.570438e-01
5.480284e-01
5.388081e-01
5.300649e-01
5.227178e-01
5.177669e-01
5.160135e-01
5.177669e-01
5.227178e-01
5.300649e-01
5.388081e-01
5.480284e-01
5.570438e-01
5.654354e-01
0.000000e+00
1.000000e+00
5.651732e-01
5.564907e-01
5.471628e-01
5.376230e-01
5.285768e-01
5.209749e-01
5.158525e-01
5.140383e-01
5.158525e-01
5.209749e-01
5.285768e-01
5.376230e-01
5.471628e-01
5.564907e-01
5.651732e-01
0.000000e+00
1.000000e+00
5.650620e-01
5.562560e-01
5.467955e-01
5.371200e-01
5.279452e-01
5.202353e-01
5.150400e-01
5.132000e-01
5.150400e-01
5.202353e-01
5.279452e-01
5.371200e-01
5.467955e-01
5.562560e-01
5.650620e-01
0.000000e+00
1.000000e+00
5.650901e-01
5.563153e-01
5.468883e-01
5.372471e-01
5.281048e-01
5.204222e-01
5.152453e-01
5.134119e-01
5.152453e-01
5.204222e-01
5.281048e-01
5.372471e-01
5.468883e-01
5.563153e-01
5.650901e-01
0.000000e+00
1.000000e+00
5.731308e-01
5.732759e-01
5.734317e-01
5.735911e-01
5.737423e-01
5.738693e-01
5.739549e-01
5.739852e-01
5.739549e-01
5.738693e-01
5.737423e-01
5.735911e-01
5.734317e-01
5.732759e-01
5.731308e-01
0.000000e+00
1.000000e+00
5.729060e-01
5.728017e-01
5.726897e-01
5.725751e-01
5.724665e-01
5.723752e-01
5.723137e-01
5.722919e-01
5.723137e-01
5.723752e-01
5.724665e-01
5.725751e-01
5.726897e-01
5.728017e-01
5.729060e-01
0.000000e+00
1.000000e+00
5.725422e-01
5.720343e-01
5.714886e-01
5.709306e-01
5.704014e-01
5.699568e-01
5.696571e-01
5.695510e-01
5.696571e-01
5.699568e-01
5.704014e-01
5.709306e-01
5.714886e-01
5.720343e-01
5.725422e-01
0.000000e+00
1.000000e+00
5.720316e-01
5.709574e-01
5.698033e-01
5.686230e-01
5.675037e-01
5.665632e-01
5.659294e-01
5.657049e-01
5.659294e-01
5.665632e-01
5.675037e-01
5.686230e-01
5.698033e-01
5.709574e-01
5.720316e-01
0.000000e+00
1.000000e+00
5.713765e-01
5.695754e-01
5.676404e-01
5.656615e-01
5.637850e-01
5.622081e-01
5.611455e-01
5.607692e-01
5.611455e-01
5.622081e-01
5.637850e-01
5.656615e-01
5.676404e-01
5.695754e-01
5.713765e-01
0.000000e+00
1.000000e+00
5.705909e-01
5.679185e-01
5.650473e-01
5.621110e-01
5.593266e-01
5.569867e-01
5.554100e-01
5.548516e-01
5.554100e-01
5.569867e-01
5.593266e-01
5.621110e-01
5.650473e-01
5.679185e-01
5.705909e-01
0.000000e+00
1.000000e+00
5.697028e-01
5.660451e-01
5.621155e-01
5.580966e-01
5.542857e-01
5.510832e-01
5.489253e-01
5.481610e-01
5.489253e-01
5.510832e-01
5.542857e-01
5.580966e-01
5.621155e-01
5.660451e-01
5.697028e-01
0.000000e+00
1.000000e+00
5.687523e-01
5.640402e-01
5.589778e-01
5.538003e-01
5.488908e-01
5.447652e-01
5.419851e-01
5.410005e-01
5.419851e-01
5.447652e-01
5.488908e-01
5.538003e-01
5.589778e-01
5.640402e-01
5.687523e-01
0.000000e+00
1.000000e+00
5.677890e-01
5.620082e-01
5.557977e-01
5.494461e-01
5.434231e-01
5.383619e-01
5.349513e-01
5.337434e-01
5.349513e-01
5.383619e-01
5.434231e-01
5.494461e-01
5.557977e-01
5.620082e-01
5.677890e-01
0.000000e+00
1.000000e+00
5.668663e-01
5.600620e-01
5.527519e-01
5.452757e-01
5.381864e-01
5.322289e-01
5.282146e-01
5.267928e-01
5.282146e-01
5.322289e-01
5.381864e-01
5.452757e-01
5.527519e-01
5.600620e-01
5.668663e-01
0.000000e+00
1.000000e+00
5.660355e-01
5.583095e-01
5.500093e-01
5.415204e-01
5.334708e-01
5.267064e-01
5.221483e-01
5.205339e-01
5.221483e-01
5.267064e-01
5.334708e-01
5.415204e-01
5.500093e-01
5.583095e-01
5.660355e-01
0.000000e+00
1.000000e+00
5.653393e-01
5.568410e-01
5.477110e-01
5.383735e-01
5.295192e-01
5.220786e-01
5.170648e-01
5.152891e-01
5.170648e-01
5.220786e-01
5.295192e-01
5.383735e-01
5.477110e-01
5.568410e-01
5.653393e-01
0.000000e+00
1.000000e+00
5.648077e-01
5.557197e-01
5.459562e-01
5.359709e-01
5.265022e-01
5.185454e-01
5.131837e-01
5.112847e-01
5.131837e-01
5.185454e-01
5.265022e-01
5.359709e-01
5.459562e-01
5.557197e-01
5.648077e-01
0.000000e+00
1.000000e+00
5.644562e-01
5.549783e-01
5.447958e-01
5.343820e-01
5.245071e-01
5.162088e-01
5.106171e-01
5.086367e-01
5.106171e-01
5.162088e-01
5.245071e-01
5.343820e-01
5.447958e-01
5.549783e-01
5.644562e-01
0.000000e+00
1.000000e+00
5.642859e-01
5.546191e-01
5.442337e-01
5.336122e-01
5.235405e-01
5.150768e-01
5.093736e-01
5.073537e-01
5.093736e-01
5.150768e-01
5.235405e-01
5.336122e-01
5.442337e-01
5.546191e-01
5.642859e-01
0.000000e+00
1.000000e+00
5.642862e-01
5.546197e-01
5.442346e-01
5.336135e-01
5.235421e-01
5.150787e-01
5.093757e-01
5.073559e-01
5.093757e-01
5.150787e-01
5.235421e-01
5.336135e-01
5.442346e-01
5.546197e-01
5.642862e-01
0.000000e+00
1.000000e+00
5.644380e-01
5.549399e-01
5.447358e-01
5.342998e-01
5.244039e-01
5.160880e-01
5.104843e-01
5.084997e-01
5.104843e-01
5.160880e-01
5.244039e-01
5.342998e-01
5.447358e-01
5.549399e-01
5.644380e-01
0.000000e+00
1.000000e+00
5.733711e-01
5.737827e-01
5.742250e-01
5.746773e-01
5.751061e-01
5.754665e-01
5.757094e-01
5.757954e-01
5.757094e-01
5.754665e-01
5.751061e-01
5.746773e-01
5.742250e-01
5.737827e-01
5.733711e-01
0.000000e+00
1.000000e+00
5.730339e-01
5.730714e-01
5.731118e-01
5.731530e-01
5.731922e-01
5.732251e-01
5.732472e-01
5.732551e-01
5.732472e-01
5.732251e-01
5.731922e-01
5.731530e-01
5.731118e-01
5.730714e-01
5.730339e-01
0.000000e+00
1.000000e+00
5.725426e-01
5.720351e-01
5.714899e-01
5.709323e-01
5.704036e-01
5.699593e-01
5.696599e-01
5.695539e-01
5.696599e-01
5.699593e-01
5.704036e-01
5.709323e-01
5.714899e-01
5.720351e-01
5.725426e-01
0.000000e+00
1.000000e+00
5.718916e-01
5.706619e-01
5.693409e-01
5.679898e-01
5.667087e-01
5.656321e-01
5.649066e-01
5.646497e-01
5.649066e-01
5.656321e-01
5.667087e-01
5.679898e-01
5.693409e-01
5.706619e-01
5.718916e-01
0.000000e+00
1.000000e+00
5.710870e-01
5.689648e-01
5.666848e-01
5.643531e-01
5.621420e-01
5.602839e-01
5.590318e-01
5.585884e-01
5.590318e-01
5.602839e-01
5.621420e-01
5.643531e-01
5.666848e-01
5.689648e-01
5.710870e-01
0.000000e+00
1.000000e+00
5.701493e-01
5.669868e-01
5.635893e-01
5.601146e-01
5.568197e-01
5.540508e-01
5.521851e-01
5.515243e-01
5.521851e-01
5.540508e-01
5.568197e-01
5.601146e-01
5.635893e-01
5.669868e-01
5.701493e-01
0.000000e+00
1.000000e+00
5.691143e-01
5.648037e-01
5.601727e-01
5.554365e-01
5.509454e-01
5.471713e-01
5.446282e-01
5.437275e-01
5.446282e-01
5.471713e-01
5.509454e-01
5.554365e-01
5.601727e-01
5.648037e-01
5.691143e-01
0.000000e+00
1.000000e+00
5.680318e-01
5.625203e-01
5.565992e-01
5.505435e-01
5.448012e-01
5.399758e-01
5.367241e-01
5.355725e-01
5.367241e-01
5.399758e-01
5.448012e-01
5.505435e-01
5.565992e-01
5.625203e-01
5.680318e-01
0.000000e+00
1.000000e+00
5.669608e-01
5.602612e-01
5.530637e-01
5.457027e-01
5.387225e-01
5.328568e-01
5.289043e-01
5.275044e-01
5.289043e-01
5.328568e-01
5.387225e-01
5.457027e-01
5.530637e-01
5.602612e-01
5.669608e-01
0.000000e+00
1.000000e+00
5.659630e-01
5.581567e-01
5.497701e-01
5.411929e-01
5.330595e-01
5.262248e-01
5.216192e-01
5.199881e-01
5.216192e-01
5.262248e-01
5.330595e-01
5.411929e-01
5.497701e-01
5.581567e-01
5.659630e-01
0.000000e+00
1.000000e+00
5.650952e-01
5.563260e-01
5.469051e-01
5.372701e-01
5.281336e-01
5.204560e-01
5.152824e-01
5.134501e-01
5.152824e-01
5.204560e-01
5.281336e-01
5.372701e-01
5.469051e-01
5.563260e-01
5.650952e-01
0.000000e+00
1.000000e+00
5.644018e-01
5.548635e-01
5.446162e-01
5.341361e-01
5.241983e-01
5.158472e-01
5.102198e-01
5.082268e-01
5.102198e-01
5.158472e-01
5.241983e-01
5.341361e-01
5.446162e-01
5.548635e-01
5.644018e-01
0.000000e+00
1.000000e+00
5.639111e-01
5.538285e-01
5.429964e-01
5.319182e-01
5.214132e-01
5.125856e-01
5.066371e-01
5.045303e-01
5.066371e-01
5.125856e-01
5.214132e-01
5.319182e-01
5.429964e-01
5.538285e-01
5.639111e-01
0.000000e+00
1.000000e+00
5.636334e-01
5.532426e-01
5.420795e-01
5.306627e-01
5.198368e-01
5.107393e-01
5.046090e-01
5.024379e-01
5.046090e-01
5.107393e-01
5.198368e-01
5.306627e-01
5.420795e-01
5.532426e-01
5.636334e-01
0.000000e+00
1.000000e+00
5.635625e-01
5.530931e-01
5.418455e-01
5.303423e-01
5.194344e-01
5.102681e-01
5.040914e-01
5.019039e-01
5.040914e-01
5.102681e-01
5.194344e-01
5.303423e-01
5.418455e-01
5.530931e-01
5.635625e-01
0.000000e+00
1.000000e+00
5.636797e-01
5.533403e-01
5.422324e-01
5.308721e-01
5.200997e-01
5.110472e-01
5.049473e-01
5.027869e-01
5.049473e-01
5.110472e-01
5.200997e-01
5.308721e-01
5.422324e-01
5.533403e-01
5.636797e-01
0.000000e+00
1.000000e+00
5.639580e-01
5.539274e-01
5.431512e-01
5.321301e-01
5.216794e-01
5.128972e-01
5.069794e-01
5.048835e-01
5.069794e-01
5.128972e-01
5.216794e-01
5.321301e-01
5.431512e-01
5.539274e-01
5.639580e-01
0.000000e+00
1.000000e+00
5.737411e-01
5.745632e-01
5.754465e-01
5.763498e-01
5.772064e-01
5.779262e-01
5.784112e-01
5.785830e-01
5.784112e-01
5.779262e-01
5.772064e-01
5.763498e-01
5.754465e-01
5.745632e-01
5.737411e-01
0.000000e+00
1.000000e+00
5.732959e-01
5.736242e-01
5.739768e-01
5.743375e-01
5.746795e-01
5.749669e-01
5.751605e-01
5.752291e-01
5.751605e-01
5.749669e-01
5.746795e-01
5.743375e-01
5.739768e-01
5.736242e-01
5.732959e-01
0.000000e+00
1.000000e+00
5.726813e-01
5.723278e-01
5.719480e-01
5.715596e-01
5.711913e-01
5.708817e-01
5.706732e-01
5.705993e-01
5.706732e-01
5.708817e-01
5.711913e-01
5.715596e-01
5.719480e-01
5.723278e-01
5.726813e-01
0.000000e+00
1.000000e+00
5.718940e-01
5.706670e-01
5.693488e-01
5.680007e-01
5.667223e-01
5.656480e-01
5.649242e-01
5.646678e-01
5.649242e-01
5.656480e-01
5.667223e-01
5.680007e-01
5.693488e-01
5.706670e-01
5.718940e-01
0.000000e+00
1.000000e+00
5.709441e-01
5.686634e-01
5.662132e-01
5.637073e-01
5.613311e-01
5.593342e-01
5.579887e-01
5.575121e-01
5.579887e-01
5.593342e-01
5.613311e-01
5.637073e-01
5.662132e-01
5.686634e-01
5.709441e-01
0.000000e+00
1.000000e+00
5.698587e-01
5.663739e-01
5.626301e-01
5.588013e-01
5.551705e-01
5.521195e-01
5.500636e-01
5.493354e-01
5.500636e-01
5.521195e-01
5.551705e-01
5.588013e-01
5.626301e-01
5.663739e-01
5.698587e-01
0.000000e+00
1.000000e+00
5.686821e-01
5.638921e-01
5.587461e-01
5.534831e-01
5.484925e-01
5.442987e-01
5.414728e-01
5.404719e-01
5.414728e-01
5.442987e-01
5.484925e-01
5.534831e-01
5.587461e-01
5.638921e-01
5.686821e-01
0.000000e+00
1.000000e+00
5.674738e-01
5.613434e-01
5.547573e-01
5.480215e-01
5.416343e-01
5.362669e-01
5.326502e-01
5.313692e-01
5.326502e-01
5.362669e-01
5.416343e-01
5.480215e-01
5.547573e-01
5.613434e-01
5.674738e-01
0.000000e+00
1.000000e+00
5.663025e-01
5.588727e-01
5.508906e-01
5.427272e-01
5.349862e-01
5.284812e-01
5.240978e-01
5.225453e-01
5.240978e-01
5.284812e-01
5.349862e-01
5.427272e-01
5.508906e-01
5.588727e-01
5.663025e-01
0.000000e+00
1.000000e+00
5.652379e-01
5.566272e-01
5.473764e-01
5.379154e-01
5.289439e-01
5.214049e-01
5.163248e-01
5.145256e-01
5.163248e-01
5.214049e-01
5.289439e-01
5.379154e-01
5.473764e-01
5.566272e-01
5.652379e-01
0.000000e+00
1.000000e+00
5.643417e-01
5.547368e-01
5.444179e-01
5.338645e-01
5.238573e-01
5.154478e-01
5.097811e-01
5.077742e-01
5.097811e-01
5.154478e-01
5.238573e-01
5.338645e-01
5.444179e-01
5.547368e-01
5.643417e-01
0.000000e+00
1.000000e+00
5.636596e-01
5.532980e-01
5.421662e-01
5.307814e-01
5.199858e-01
5.109139e-01
5.048008e-01
5.026357e-01
5.048008e-01
5.109139e-01
5.199858e-01
5.307814e-01
5.421662e-01
5.532980e-01
5.636596e-01
0.000000e+00
1.000000e+00
5.632170e-01
5.523643e-01
5.407050e-01
5.287807e-01
5.174735e-01
5.079716e-01
5.015688e-01
4.993012e-01
5.015688e-01
5.079716e-01
5.174735e-01
5.287807e-01
5.407050e-01
5.523643e-01
5.632170e-01
0.000000e+00
1.000000e+00
5.630181e-01
5.519449e-01
5.400485e-01
5.278818e-01
5.163448e-01
5.066498e-01
5.001168e-01
4.978031e-01
5.001168e-01
5.066498e-01
5.163448e-01
5.278818e-01
5.400485e-01
5.519449e-01
5.630181e-01
0.000000e+00
1.000000e+00
5.630491e-01
5.520102e-01
5.401508e-01
5.280219e-01
5.165207e-01
5.068557e-01
5.003431e-01
4.980365e-01
5.003431e-01
5.068557e-01
5.165207e-01
5.280219e-01
5.401508e-01
5.520102e-01
5.630491e-01
0.000000e+00
1.000000e+00
5.632827e-01
5.525030e-01
5.409220e-01
5.290779e-01
5.178466e-01
5.084086e-01
5.020488e-01
4.997964e-01
5.020488e-01
5.084086e-01
5.178466e-01
5.290779e-01
5.409220e-01
5.525030e-01
5.632827e-01
0.000000e+00
1.000000e+00
5.636841e-01
5.533496e-01
5.422469e-01
5.308919e-01
5.201245e-01
5.110763e-01
5.049792e-01
5.028198e-01
5.049792e-01
5.110763e-01
5.201245e-01
5.308919e-01
5.422469e-01
5.533496e-01
5.636841e-01
0.000000e+00
1.000000e+00
5.742377e-01
5.756107e-01
5.770858e-01
5.785944e-01
5.800250e-01
5.812271e-01
5.820372e-01
5.823241e-01
5.820372e-01
5.812271e-01
5.800250e-01
5.785944e-01
5.770858e-01
5.756107e-01
5.742377e-01
0.000000e+00
1.000000e+00
5.736932e-01
5.744622e-01
5.752884e-01
5.761333e-01
5.769345e-01
5.776078e-01
5.780615e-01
5.782222e-01
5.780615e-01
5.776078e-01
5.769345e-01
5.761333e-01
5.752884e-01
5.744622e-01
5.736932e-01
0.000000e+00
1.000000e+00
5.729649e-01
5.729259e-01
5.728840e-01
5.728412e-01
5.728006e-01
5.727665e-01
5.727435e-01
5.727353e-01
5.727435e-01
5.727665e-01
5.728006e-01
5.728412e-01
5.728840e-01
5.729259e-01
5.729649e-01
0.000000e+00
1.000000e+00
5.720515e-01
5.709993e-01
5.698689e-01
5.687128e-01
5.676165e-01
5.666953e-01
5.660745e-01
5.658546e-01
5.660745e-01
5.666953e-01
5.676165e-01
5.687128e-01
5.698689e-01
5.709993e-01
5.720515e-01
0.000000e+00
1.000000e+00
5.709677e-01
5.687131e-01
5.662910e-01
5.638138e-01
5.614649e-01
5.594909e-01
5.581608e-01
5.576897e-01
5.581608e-01
5.594909e-01
5.614649e-01
5.638138e-01
5.662910e-01
5.687131e-01
5.709677e-01
0.000000e+00
1.000000e+00
5.697467e-01
5.661378e-01
5.622606e-01
5.582952e-01
5.545351e-01
5.513753e-01
5.492461e-01
5.484920e-01
5.492461e-01
5.513753e-01
5.545351e-01
5.582952e-01
5.622606e-01
5.661378e-01
5.697467e-01
0.000000e+00
1.000000e+00
5.684414e-01
5.633844e-01
5.579515e-01
5.523951e-01
5.471263e-01
5.426987e-01
5.397152e-01
5.386585e-01
5.397152e-01
5.426987e-01
5.471263e-01
5.523951e-01
5.579515e-01
5.633844e-01
5.684414e-01
0.000000e+00
1.000000e+00
5.671205e-01
5.605982e-01
5.535910e-01
5.464246e-01
5.396291e-01
5.339186e-01
5.300705e-01
5.287077e-01
5.300705e-01
5.339186e-01
5.396291e-01
5.464246e-01
5.535910e-01
5.605982e-01
5.671205e-01
0.000000e+00
1.000000e+00
5.658619e-01
5.579433e-01
5.494362e-01
5.407357e-01
5.324855e-01
5.255525e-01
5.208808e-01
5.192262e-01
5.208808e-01
5.255525e-01
5.324855e-01
5.407357e-01
5.494362e-01
5.579433e-01
5.658619e-01
0.000000e+00
1.000000e+00
5.647426e-01
5.555824e-01
5.457413e-01
5.356765e-01
5.261326e-01
5.181126e-01
5.127083e-01
5.107942e-01
5.127083e-01
5.181126e-01
5.261326e-01
5.356765e-01
5.457413e-01
5.555824e-01
5.647426e-01
0.000000e+00
1.000000e+00
5.638284e-01
5.536540e-01
5.427233e-01
5.315442e-01
5.209436e-01
5.120356e-01
5.060329e-01
5.039070e-01
5.060329e-01
5.120356e-01
5.209436e-01
5.315442e-01
5.427233e-01
5.536540e-01
5.638284e-01
0.000000e+00
1.000000e+00
5.631652e-01
5.522550e-01
5.405339e-01
5.285465e-01
5.171793e-01
5.076271e-01
5.011904e-01
4.989108e-01
5.011904e-01
5.076271e-01
5.171793e-01
5.285465e-01
5.405339e-01
5.522550e-01
5.631652e-01
0.000000e+00
1.000000e+00
5.627748e-01
5.514316e-01
5.392453e-01
5.267821e-01
5.149638e-01
5.050324e-01
4.983402e-01
4.959701e-01
4.983402e-01
5.050324e-01
5.149638e-01
5.267821e-01
5.392453e-01
5.514316e-01
5.627748e-01
0.000000e+00
1.000000e+00
5.626553e-01
5.511795e-01
5.388507e-01
5.262417e-01
5.142852e-01
5.042378e-01
4.974673e-01
4.950695e-01
4.974673e-01
5.042378e-01
5.142852e-01
5.262417e-01
5.388507e-01
5.511795e-01
5.626553e-01
0.000000e+00
1.000000e+00
5.627847e-01
5.514524e-01
5.392779e-01
5.268266e-01
5.150197e-01
5.050979e-01
4.984122e-01
4.960443e-01
4.984122e-01
5.050979e-01
5.150197e-01
5.268266e-01
5.392779e-01
5.514524e-01
5.627847e-01
0.000000e+00
1.000000e+00
5.631276e-01
5.521758e-01
5.404100e-01
5.283768e-01
5.169663e-01
5.073776e-01
5.009164e-01
4.986280e-01
5.009164e-01
5.073776e-01
5.169663e-01
5.283768e-01
5.404100e-01
5.521758e-01
5.631276e-01
0.000000e+00
1.000000e+00
5.636419e-01
5.532606e-01
5.421076e-01
5.307012e-01
5.198850e-01
5.107958e-01
5.046711e-01
5.025020e-01
5.046711e-01
5.107958e-01
5.198850e-01
5.307012e-01
5.421076e-01
5.532606e-01
5.636419e-01
0.000000e+00
1.000000e+00
5.748477e-01
5.768975e-01
5.790996e-01
5.813517e-01
5.834873e-01
5.852819e-01
5.864912e-01
5.869195e-01
5.864912e-01
5.852819e-01
5.834873e-01
5.813517e-01
5.790996e-01
5.768975e-01
5.748477e-01
0.000000e+00
1.000000e+00
5.742162e-01
5.755654e-01
5.770149e-01
5.784973e-01
5.799030e-01
5.810843e-01
5.818803e-01
5.821622e-01
5.818803e-01
5.810843e-01
5.799030e-01
5.784973e-01
5.770149e-01
5.755654e-01
5.742162e-01
0.000000e+00
1.000000e+00
5.733884e-01
5.738193e-01
5.742822e-01
5.747556e-01
5.752045e-01
5.755817e-01
5.758359e-01
5.759259e-01
5.758359e-01
5.755817e-01
5.752045e-01
5.747556e-01
5.742822e-01
5.738193e-01
5.733884e-01
0.000000e+00
1.000000e+00
5.723654e-01
5.716614e-01
5.709050e-01
5.701315e-01
5.693979e-01
5.687815e-01
5.683662e-01
5.682191e-01
5.683662e-01
5.687815e-01
5.693979e-01
5.701315e-01
5.709050e-01
5.716614e-01
5.723654e-01
0.000000e+00
1.000000e+00
5.711658e-01
5.691311e-01
5.669451e-01
5.647094e-01
5.625894e-01
5.608079e-01
5.596075e-01
5.591823e-01
5.596075e-01
5.608079e-01
5.625894e-01
5.647094e-01
5.669451e-01
5.691311e-01
5.711658e-01
0.000000e+00
1.000000e+00
5.698291e-01
5.663115e-01
5.625324e-01
5.586675e-01
5.550025e-01
5.519227e-01
5.498474e-01
5.491124e-01
5.498474e-01
5.519227e-01
5.550025e-01
5.586675e-01
5.625324e-01
5.663115e-01
5.698291e-01
0.000000e+00
1.000000e+00
5.684155e-01
5.633298e-01
5.578661e-01
5.522781e-01
5.469794e-01
5.425267e-01
5.395262e-01
5.384636e-01
5.395262e-01
5.425267e-01
5.469794e-01
5.522781e-01
5.578661e-01
5.633298e-01
5.684155e-01
0.000000e+00
1.000000e+00
5.670023e-01
5.603488e-01
5.532007e-01
5.458902e-01
5.389580e-01
5.331327e-01
5.292073e-01
5.278170e-01
5.292073e-01
5.331327e-01
5.389580e-01
5.458902e-01
5.532007e-01
5.603488e-01
5.670023e-01
0.000000e+00
1.000000e+00
5.656750e-01
5.575492e-01
5.488193e-01
5.398911e-01
5.314249e-01
5.243104e-01
5.195163e-01
5.178184e-01
5.195163e-01
5.243104e-01
5.314249e-01
5.398911e-01
5.488193e-01
5.575492e-01
5.656750e-01
0.000000e+00
1.000000e+00
5.645167e-01
5.551059e-01
5.449956e-01
5.346556e-01
5.248506e-01
5.166111e-01
5.110590e-01
5.090926e-01
5.110590e-01
5.166111e-01
5.248506e-01
5.346556e-01
5.449956e-01
5.551059e-01
5.645167e-01
0.000000e+00
1.000000e+00
5.635960e-01
5.531638e-01
5.419561e-01
5.304937e-01
5.196246e-01
5.104908e-01
5.043360e-01
5.021562e-01
5.043360e-01
5.104908e-01
5.196246e-01
5.304937e-01
5.419561e-01
5.531638e-01
5.635960e-01
0.000000e+00
1.000000e+00
5.629581e-01
5.518182e-01
5.398503e-01
5.276103e-01
5.160039e-01
5.062505e-01
4.996782e-01
4.973506e-01
4.996782e-01
5.062505e-01
5.160039e-01
5.276103e-01
5.398503e-01
5.518182e-01
5.629581e-01
0.000000e+00
1.000000e+00
5.626209e-01
5.511069e-01
5.387372e-01
5.260863e-01
5.140901e-01
5.040092e-01
4.972163e-01
4.948104e-01
4.972163e-01
5.040092e-01
5.140901e-01
5.260863e-01
5.387372e-01
5.511069e-01
5.626209e-01
0.000000e+00
1.000000e+00
5.625761e-01
5.510125e-01
5.385894e-01
5.258839e-01
5.138360e-01
5.037116e-01
4.968894e-01
4.944732e-01
4.968894e-01
5.037116e-01
5.138360e-01
5.258839e-01
5.385894e-01
5.510125e-01
5.625761e-01
0.000000e+00
1.000000e+00
5.627945e-01
5.514732e-01
5.393104e-01
5.268712e-01
5.150757e-01
5.051635e-01
4.984843e-01
4.961187e-01
4.984843e-01
5.051635e-01
5.150757e-01
5.268712e-01
5.393104e-01
5.514732e-01
5.627945e-01
0.000000e+00
1.000000e+00
5.632335e-01
5.523992e-01
5.407595e-01
5.288553e-01
5.175672e-01
5.080814e-01
5.016894e-01
4.994256e-01
5.016894e-01
5.080814e-01
5.175672e-01
5.288553e-01
5.407595e-01
5.523992e-01
5.632335e-01
0.000000e+00
1.000000e+00
5.638444e-01
5.536877e-01
5.427761e-01
5.316165e-01
5.210345e-01
5.121420e-01
5.061498e-01
5.040276e-01
5.061498e-01
5.121420e-01
5.210345e-01
5.316165e-01
5.427761e-01
5.536877e-01
5.638444e-01
0.000000e+00
1.000000e+00
5.755478e-01
5.783742e-01
5.814106e-01
5.845161e-01
5.874608e-01
5.899354e-01
5.916029e-01
5.921935e-01
5.916029e-01
5.899354e-01
5.874608e-01
5.845161e-01
5.814106e-01
5.783742e-01
5.755478e-01
0.000000e+00
1.000000e+00
5.748440e-01
5.768896e-01
5.790873e-01
5.813349e-01
5.834662e-01
5.852572e-01
5.864641e-01
5.868915e-01
5.864641e-01
5.852572e-01
5.834662e-01
5.813349e-01
5.790873e-01
5.768896e-01
5.748440e-01
0.000000e+00
1.000000e+00
5.739346e-01
5.749713e-01
5.760850e-01
5.772241e-01
5.783043e-01
5.792119e-01
5.798236e-01
5.800402e-01
5.798236e-01
5.792119e-01
5.783043e-01
5.772241e-01
5.760850e-01
5.749713e-01
5.739346e-01
0.000000e+00
1.000000e+00
5.728229e-01
5.726264e-01
5.724154e-01
5.721995e-01
5.719948e-01
5.718228e-01
5.717069e-01
5.716658e-01
5.717069e-01
5.718228e-01
5.719948e-01
5.721995e-01
5.724154e-01
5.726264e-01
5.728229e-01
0.000000e+00
1.000000e+00
5.715316e-01
5.699026e-01
5.681526e-01
5.663628e-01
5.646656e-01
5.632394e-01
5.622783e-01
5.619380e-01
5.622783e-01
5.632394e-01
5.646656e-01
5.663628e-01
5.681526e-01
5.699026e-01
5.715316e-01
0.000000e+00
1.000000e+00
5.701053e-01
5.668941e-01
5.634441e-01
5.599158e-01
5.565701e-01
5.537586e-01
5.518640e-01
5.511930e-01
5.518640e-01
5.537586e-01
5.565701e-01
5.599158e-01
5.634441e-01
5.668941e-01
5.701053e-01
0.000000e+00
1.000000e+00
5.686106e-01
5.637412e-01
5.585099e-01
5.531597e-01
5.480864e-01
5.438231e-01
5.409503e-01
5.399328e-01
5.409503e-01
5.438231e-01
5.480864e-01
5.531597e-01
5.585099e-01
5.637412e-01
5.686106e-01
0.000000e+00
1.000000e+00
5.671312e-01
5.606207e-01
5.536263e-01
5.464729e-01
5.396897e-01
5.339896e-01
5.301486e-01
5.287882e-01
5.301486e-01
5.339896e-01
5.396897e-01
5.464729e-01
5.536263e-01
5.606207e-01
5.671312e-01
0.000000e+00
1.000000e+00
5.657587e-01
5.577257e-01
5.490955e-01
5.402692e-01
5.318997e-01
5.248665e-01
5.201272e-01
5.184487e-01
5.201272e-01
5.248665e-01
5.318997e-01
5.402692e-01
5.490955e-01
5.577257e-01
5.657587e-01
0.000000e+00
1.000000e+00
5.645800e-01
5.552394e-01
5.452045e-01
5.349415e-01
5.252096e-01
5.170316e-01
5.115209e-01
5.095691e-01
5.115209e-01
5.170316e-01
5.252096e-01
5.349415e-01
5.452045e-01
5.552394e-01
5.645800e-01
0.000000e+00
1.000000e+00
5.636650e-01
5.533093e-01
5.421839e-01
5.308056e-01
5.200162e-01
5.109495e-01
5.048399e-01
5.026761e-01
5.048399e-01
5.109495e-01
5.200162e-01
5.308056e-01
5.421839e-01
5.533093e-01
5.636650e-01
0.000000e+00
1.000000e+00
5.630574e-01
5.520278e-01
5.401783e-01
5.280595e-01
5.165678e-01
5.069110e-01
5.004037e-01
4.980991e-01
5.004037e-01
5.069110e-01
5.165678e-01
5.280595e-01
5.401783e-01
5.520278e-01
5.630574e-01
0.000000e+00
1.000000e+00
5.627712e-01
5.514240e-01
5.392333e-01
5.267657e-01
5.149432e-01
5.050083e-01
4.983137e-01
4.959427e-01
4.983137e-01
5.050083e-01
5.149432e-01
5.267657e-01
5.392333e-01
5.514240e-01
5.627712e-01
0.000000e+00
1.000000e+00
5.627923e-01
5.514686e-01
5.393031e-01
5.268612e-01
5.150631e-01
5.051488e-01
4.984681e-01
4.961020e-01
4.984681e-01
5.051488e-01
5.150631e-01
5.268612e-01
5.393031e-01
5.514686e-01
5.627923e-01
0.000000e+00
1.000000e+00
5.630854e-01
5.520868e-01
5.402707e-01
5.281861e-01
5.167268e-01
5.070971e-01
5.006082e-01
4.983101e-01
5.006082e-01
5.070971e-01
5.167268e-01
5.281861e-01
5.402707e-01
5.520868e-01
5.630854e-01
0.000000e+00
1.000000e+00
5.636020e-01
5.531765e-01
5.419761e-01
5.305211e-01
5.196589e-01
5.105310e-01
5.043802e-01