<?xml version="1.0"?>
<VTKFile type="StructuredGrid" version="0.1">
  <StructuredGrid WholeExtent="0 16 0 16 0 16">
    <Piece Extent="0 16 0 16 0 16">
      <PointData Scalars="temperature" Vectors="velocity">
        <DataArray type="Float32" Name="temperature" format="ascii">
1.000000e+00
5.732183e-01
5.730060e-01
5.730183e-01
5.730204e-01
5.730222e-01
5.730235e-01
5.730245e-01
5.730246e-01
5.730242e-01
5.730227e-01
5.730208e-01
5.730169e-01
5.730111e-01
5.730611e-01
5.722624e-01
0.000000e+00
1.000000e+00
5.733340e-01
5.729987e-01
5.730626e-01
5.730756e-01
5.730876e-01
5.730975e-01
5.731044e-01
5.731067e-01
5.731035e-01
5.730945e-01
5.730826e-01
5.730702e-01
5.730574e-01
5.731803e-01
5.724624e-01
0.000000e+00
1.000000e+00
5.734288e-01
5.730117e-01
5.731279e-01
5.731673e-01
5.732041e-01
5.732353e-01
5.732567e-01
5.732640e-01
5.732546e-01
5.732301e-01
5.731954e-01
5.731577e-01
5.731235e-01
5.731652e-01
5.729988e-01
0.000000e+00
1.000000e+00
5.734322e-01
5.730949e-01
5.732378e-01
5.733196e-01
5.733975e-01
5.734609e-01
5.735025e-01
5.735147e-01
5.734968e-01
5.734552e-01
5.733945e-01
5.733216e-01
5.732421e-01
5.731856e-01
5.728137e-01
0.000000e+00
1.000000e+00
5.734344e-01
5.732057e-01
5.733887e-01
5.735213e-01
5.736473e-01
5.737555e-01
5.738308e-01
5.738585e-01
5.738353e-01
5.737680e-01
5.736645e-01
5.735365e-01
5.733976e-01
5.732753e-01
5.729953e-01
0.000000e+00
1.000000e+00
5.734801e-01
5.733206e-01
5.735684e-01
5.737704e-01
5.739639e-01
5.741276e-01
5.742403e-01
5.742820e-01
5.742457e-01
5.741477e-01
5.739940e-01
5.737996e-01
5.735903e-01
5.734061e-01
5.730150e-01
0.000000e+00
1.000000e+00
5.735313e-01
5.734513e-01
5.737736e-01
5.740492e-01
5.743198e-01
5.745524e-01
5.747157e-01
5.747812e-01
5.747346e-01
5.746113e-01
5.744010e-01
5.741263e-01
5.738271e-01
5.735544e-01
5.731174e-01
0.000000e+00
1.000000e+00
5.735833e-01
5.736047e-01
5.739996e-01
5.743556e-01
5.747037e-01
5.750092e-01
5.752343e-01
5.753402e-01
5.752958e-01
5.751433e-01
5.748646e-01
5.744986e-01
5.740967e-01
5.737270e-01
5.731828e-01
0.000000e+00
1.000000e+00
5.736492e-01
5.737618e-01
5.742410e-01
5.746856e-01
5.751151e-01
5.754911e-01
5.757699e-01
5.759101e-01
5.758973e-01
5.757128e-01
5.753556e-01
5.748907e-01
5.743785e-01
5.739044e-01
5.731676e-01
0.000000e+00
1.000000e+00
5.736988e-01
5.739125e-01
5.744700e-01
5.749980e-01
5.755069e-01
5.759480e-01
5.762625e-01
5.764332e-01
5.764936e-01
5.763156e-01
5.758663e-01
5.752920e-01
5.746641e-01
5.740714e-01
5.730990e-01
0.000000e+00
1.000000e+00
5.737537e-01
5.740379e-01
5.746630e-01
5.752588e-01
5.758318e-01
5.763280e-01
5.767000e-01
5.769545e-01
5.770284e-01
5.768685e-01
5.763545e-01
5.756742e-01
5.749363e-01
5.742255e-01
5.731373e-01
0.000000e+00
1.000000e+00
5.738141e-01
5.741477e-01
5.748386e-01
5.754896e-01
5.761168e-01
5.766670e-01
5.771122e-01
5.774449e-01
5.775009e-01
5.773291e-01
5.767824e-01
5.760142e-01
5.751793e-01
5.743722e-01
5.731797e-01
0.000000e+00
1.000000e+00
5.738388e-01
5.742664e-01
5.749926e-01
5.756994e-01
5.763774e-01
5.769794e-01
5.774703e-01
5.778377e-01
5.779053e-01
5.777078e-01
5.771289e-01
5.762950e-01
5.753811e-01
5.745022e-01
5.732108e-01
0.000000e+00
1.000000e+00
5.738685e-01
5.743519e-01
5.751170e-01
5.758700e-01
5.765968e-01
5.772446e-01
5.777642e-01
5.781308e-01
5.782269e-01
5.779986e-01
5.773654e-01
5.764854e-01
5.755224e-01
5.745998e-01
5.731707e-01
0.000000e+00
1.000000e+00
5.738976e-01
5.744072e-01
5.752056e-01
5.759877e-01
5.767522e-01
5.774352e-01
5.779729e-01
5.783345e-01
5.784460e-01
5.781830e-01
5.775066e-01
5.765935e-01
5.756020e-01
5.746666e-01
5.732290e-01
0.000000e+00
1.000000e+00
5.738862e-01
5.744508e-01
5.752530e-01
5.760480e-01
5.768338e-01
5.775440e-01
5.781004e-01
5.784455e-01
5.785527e-01
5.782600e-01
5.775531e-01
5.766205e-01
5.756114e-01
5.746872e-01
5.732109e-01
0.000000e+00
1.000000e+00
5.737771e-01
5.744513e-01
5.752249e-01
5.760101e-01
5.767968e-01
5.775213e-01
5.781036e-01
5.784694e-01
5.785428e-01
5.782486e-01
5.775449e-01
5.766182e-01
5.756187e-01
5.746770e-01
5.729318e-01
0.000000e+00
1.000000e+00
5.733361e-01
5.729804e-01
5.730212e-01
5.730233e-01
5.730251e-01
5.730260e-01
5.730265e-01
5.730263e-01
5.730259e-01
5.730254e-01
5.730257e-01
5.730258e-01
5.730254e-01
5.730973e-01
5.722296e-01
0.000000e+00
1.000000e+00
5.734653e-01
5.729975e-01
5.730977e-01
5.731230e-01
5.731461e-01
5.731658e-01
5.731794e-01
5.731841e-01
5.731783e-01
5.731625e-01
5.731398e-01
5.731122e-01
5.730882e-01
5.732025e-01
5.721063e-01
0.000000e+00
1.000000e+00
5.734953e-01
5.730705e-01
5.732006e-01
5.732698e-01
5.733329e-01
5.733848e-01
5.734191e-01
5.734295e-01
5.734137e-01
5.733740e-01
5.733159e-01
5.732482e-01
5.731955e-01
5.732418e-01
5.727410e-01
0.000000e+00
1.000000e+00
5.734783e-01
5.732207e-01
5.733532e-01
5.734780e-01
5.735972e-01
5.736949e-01
5.737587e-01
5.737793e-01
5.737526e-01
5.736837e-01
5.735873e-01
5.734747e-01
5.733598e-01
5.733299e-01
5.726117e-01
0.000000e+00
1.000000e+00
5.735063e-01
5.733250e-01
5.735513e-01
5.737442e-01
5.739275e-01
5.740818e-01
5.741864e-01
5.742239e-01
5.741859e-01
5.740879e-01
5.739453e-01
5.737624e-01
5.735632e-01
5.734305e-01
5.728182e-01
0.000000e+00
1.000000e+00
5.735440e-01
5.734583e-01
5.737755e-01
5.740505e-01
5.743121e-01
5.745358e-01
5.746935e-01
5.747558e-01
5.747055e-01
5.745820e-01
5.743755e-01
5.741011e-01
5.738062e-01
5.735756e-01
5.728726e-01
0.000000e+00
1.000000e+00
5.736139e-01
5.736136e-01
5.740193e-01
5.743817e-01
5.747311e-01
5.750364e-01
5.752594e-01
5.753616e-01
5.753061e-01
5.751569e-01
5.748677e-01
5.744902e-01
5.740860e-01
5.737467e-01
5.729637e-01
0.000000e+00
1.000000e+00
5.736829e-01
5.737823e-01
5.742783e-01
5.747308e-01
5.751703e-01
5.755603e-01
5.758539e-01
5.760125e-01
5.759842e-01
5.757805e-01
5.753987e-01
5.749112e-01
5.743855e-01
5.739383e-01
5.729708e-01
0.000000e+00
1.000000e+00
5.737441e-01
5.739607e-01
5.745423e-01
5.750878e-01
5.756182e-01
5.760907e-01
5.764450e-01
5.766492e-01
5.766919e-01
5.764216e-01
5.759433e-01
5.753389e-01
5.746881e-01
5.741294e-01
5.730066e-01
0.000000e+00
1.000000e+00
5.738082e-01
5.741290e-01
5.747914e-01
5.754271e-01
5.760435e-01
5.765863e-01
5.769832e-01
5.772404e-01
5.773343e-01
5.770687e-01
5.764818e-01
5.757510e-01
5.749761e-01
5.743042e-01
5.730765e-01
0.000000e+00
1.000000e+00
5.738729e-01
5.742728e-01
5.750056e-01
5.757109e-01
5.763870e-01
5.769830e-01
5.774543e-01
5.778127e-01
5.778824e-01
5.776558e-01
5.769880e-01
5.761293e-01
5.752354e-01
5.744581e-01
5.731614e-01
0.000000e+00
1.000000e+00
5.739308e-01
5.743900e-01
5.751867e-01
5.759441e-01
5.766667e-01
5.773181e-01
5.778791e-01
5.782903e-01
5.783551e-01
5.781254e-01
5.774227e-01
5.764542e-01
5.754537e-01
5.745918e-01
5.731746e-01
0.000000e+00
1.000000e+00
5.739590e-01
5.744946e-01
5.753290e-01
5.761294e-01
5.768898e-01
5.775914e-01
5.782214e-01
5.786876e-01
5.787264e-01
5.784782e-01
5.777503e-01
5.767051e-01
5.756198e-01
5.746953e-01
5.731664e-01
0.000000e+00
1.000000e+00
5.739821e-01
5.745707e-01
5.754329e-01
5.762663e-01
5.770625e-01
5.778011e-01
5.784612e-01
5.789402e-01
5.790020e-01
5.787195e-01
5.779524e-01
5.768640e-01
5.757292e-01
5.747651e-01
5.731721e-01
0.000000e+00
1.000000e+00
5.739931e-01
5.746230e-01
5.755036e-01
5.763569e-01
5.771804e-01
5.779389e-01
5.785979e-01
5.790634e-01
5.791484e-01
5.788442e-01
5.780405e-01
5.769285e-01
5.757766e-01
5.748147e-01
5.732261e-01
0.000000e+00
1.000000e+00
5.739700e-01
5.746199e-01
5.754895e-01
5.763500e-01
5.771933e-01
5.779754e-01
5.786374e-01
5.790771e-01
5.791599e-01
5.788600e-01
5.780542e-01
5.769486e-01
5.757712e-01
5.747992e-01
5.731796e-01
0.000000e+00
1.000000e+00
5.739528e-01
5.745718e-01
5.754185e-01
5.762502e-01
5.770782e-01
5.778622e-01
5.785413e-01
5.789844e-01
5.790231e-01
5.787692e-01
5.780506e-01
5.770302e-01
5.759090e-01
5.748143e-01
5.732389e-01
0.000000e+00
1.000000e+00
5.733458e-01
5.729510e-01
5.729779e-01
5.729659e-01
5.729540e-01
5.729441e-01
5.729376e-01
5.729360e-01
5.729392e-01
5.729473e-01
5.729577e-01
5.729692e-01
5.729805e-01
5.730433e-01
5.725574e-01
0.000000e+00
1.000000e+00
5.735596e-01
5.729893e-01
5.730978e-01
5.731227e-01
5.731452e-01
5.731645e-01
5.731779e-01
5.731826e-01
5.731770e-01
5.731619e-01
5.731390e-01
5.731119e-01
5.730883e-01
5.731573e-01
5.726451e-01
0.000000e+00
1.000000e+00
5.734653e-01
5.730970e-01
5.732393e-01
5.733239e-01
5.734011e-01
5.734649e-01
5.735071e-01
5.735206e-01
5.735032e-01
5.734576e-01
5.733895e-01
5.733087e-01
5.732399e-01
5.733170e-01
5.725265e-01
0.000000e+00
1.000000e+00
5.734477e-01
5.732941e-01
5.734365e-01
5.735923e-01
5.737406e-01
5.738625e-01
5.739429e-01
5.739695e-01
5.739369e-01
5.738518e-01
5.737327e-01
5.735935e-01
5.734493e-01
5.734373e-01
5.724989e-01
0.000000e+00
1.000000e+00
5.735333e-01
5.734230e-01
5.736813e-01
5.739228e-01
5.741512e-01
5.743429e-01
5.744734e-01
5.745207e-01
5.744709e-01
5.743511e-01
5.741765e-01
5.739508e-01
5.737026e-01
5.735546e-01
5.725639e-01
0.000000e+00
1.000000e+00
5.736050e-01
5.735713e-01
5.739439e-01
5.742842e-01
5.746080e-01
5.748853e-01
5.750836e-01
5.751667e-01
5.751033e-01
5.749637e-01
5.747106e-01
5.743697e-01
5.740016e-01
5.737181e-01
5.727060e-01
0.000000e+00
1.000000e+00
5.736770e-01
5.737512e-01
5.742256e-01
5.746646e-01
5.750882e-01
5.754608e-01
5.757393e-01
5.758824e-01
5.758330e-01
5.756582e-01
5.752980e-01
5.748319e-01
5.743330e-01
5.739147e-01
5.728095e-01
0.000000e+00
1.000000e+00
5.737543e-01
5.739465e-01
5.745191e-01
5.750600e-01
5.755846e-01
5.760517e-01
5.764026e-01
5.766042e-01
5.766497e-01
5.763759e-01
5.759052e-01
5.753124e-01
5.746770e-01
5.741270e-01
5.728969e-01
0.000000e+00
1.000000e+00
5.738404e-01
5.741388e-01
5.748111e-01
5.754546e-01
5.760794e-01
5.766382e-01
5.770480e-01
5.772838e-01
5.774015e-01
5.771047e-01
5.765187e-01
5.757877e-01
5.750149e-01
5.743334e-01
5.729862e-01
0.000000e+00
1.000000e+00
5.739351e-01
5.743159e-01
5.750901e-01
5.758249e-01
5.765329e-01
5.771573e-01
5.776306e-01
5.779542e-01
5.780631e-01
5.778072e-01
5.771177e-01
5.762364e-01
5.753268e-01
5.745242e-01
5.731026e-01
0.000000e+00
1.000000e+00
5.739957e-01
5.744879e-01
5.753347e-01
5.761365e-01
5.768932e-01
5.775689e-01
5.781499e-01
5.785936e-01
5.785994e-01
5.783940e-01
5.776610e-01
5.766379e-01
5.755960e-01
5.746860e-01
5.731953e-01
0.000000e+00
1.000000e+00
5.740475e-01
5.746240e-01
5.755331e-01
5.763771e-01
5.771675e-01
5.779087e-01
5.786000e-01
5.790900e-01
5.790494e-01
5.788236e-01
5.780977e-01
5.769736e-01
5.758144e-01
5.748166e-01
5.732251e-01
0.000000e+00
1.000000e+00
5.740758e-01
5.747284e-01
5.756772e-01
5.765482e-01
5.773706e-01
5.781756e-01
5.789308e-01
5.794336e-01
5.793962e-01
5.791196e-01
5.783889e-01
5.772139e-01
5.759703e-01
5.749043e-01
5.731971e-01
0.000000e+00
1.000000e+00
5.740858e-01
5.747964e-01
5.757673e-01
5.766570e-01
5.775068e-01
5.783431e-01
5.791143e-01
5.796195e-01
5.796298e-01
5.793095e-01
5.785365e-01
5.773361e-01
5.760582e-01
5.749548e-01
5.732032e-01
0.000000e+00
1.000000e+00
5.740831e-01
5.748325e-01
5.758081e-01
5.767074e-01
5.775670e-01
5.784040e-01
5.791619e-01
5.796584e-01
5.797146e-01
5.793917e-01
5.785752e-01
5.773530e-01
5.760785e-01
5.749887e-01
5.732830e-01
0.000000e+00
1.000000e+00
5.740469e-01
5.747755e-01
5.757034e-01
5.765928e-01
5.774672e-01
5.783215e-01
5.790864e-01
5.795760e-01
5.796486e-01
5.793483e-01
5.785278e-01
5.773170e-01
5.760360e-01
5.749443e-01
5.732175e-01
0.000000e+00
1.000000e+00
5.740144e-01
5.746746e-01
5.755658e-01
5.764245e-01
5.772746e-01
5.781142e-01
5.788908e-01
5.793855e-01
5.794081e-01
5.791627e-01
5.784741e-01
5.774021e-01
5.761889e-01
5.749575e-01
5.733177e-01
0.000000e+00
1.000000e+00
5.733326e-01
5.728940e-01
5.728993e-01
5.728572e-01
5.728168e-01
5.727832e-01
5.727611e-01
5.727542e-01
5.727633e-01
5.727871e-01
5.728210e-01
5.728587e-01
5.729017e-01
5.729693e-01
5.727071e-01
0.000000e+00
1.000000e+00
5.735559e-01
5.729598e-01
5.730527e-01
5.730631e-01
5.730719e-01
5.730794e-01
5.730847e-01
5.730866e-01
5.730841e-01
5.730753e-01
5.730681e-01
5.730569e-01
5.730487e-01
5.730754e-01
5.728846e-01
0.000000e+00
1.000000e+00
5.734515e-01
5.730847e-01
5.732416e-01
5.733214e-01
5.733965e-01
5.734622e-01
5.735085e-01
5.735252e-01
5.735109e-01
5.734592e-01
5.733943e-01
5.733200e-01
5.732455e-01
5.732720e-01
5.728453e-01
0.000000e+00
1.000000e+00
5.734343e-01
5.732991e-01
5.734893e-01
5.736604e-01
5.738199e-01
5.739527e-01
5.740414e-01
5.740694e-01
5.740310e-01
5.739353e-01
5.738073e-01
5.736586e-01
5.734959e-01
5.734295e-01
5.727769e-01
0.000000e+00
1.000000e+00
5.735569e-01
5.734718e-01
5.737693e-01
5.740492e-01
5.743113e-01
5.745281e-01
5.746755e-01
5.747285e-01
5.746679e-01
5.745355e-01
5.743431e-01
5.740876e-01
5.738003e-01
5.735971e-01
5.728920e-01
0.000000e+00
1.000000e+00
5.736516e-01
5.736473e-01
5.740676e-01
5.744568e-01
5.748308e-01
5.751532e-01
5.753865e-01
5.754912e-01
5.754171e-01
5.752714e-01
5.749830e-01
5.745875e-01
5.741568e-01
5.738000e-01
5.729700e-01
0.000000e+00
1.000000e+00
5.737297e-01
5.738554e-01
5.743868e-01
5.748851e-01
5.753695e-01
5.757986e-01
5.761235e-01
5.763048e-01
5.762918e-01
5.760792e-01
5.756603e-01
5.751211e-01
5.745383e-01
5.740263e-01
5.730613e-01
0.000000e+00
1.000000e+00
5.738173e-01
5.740765e-01
5.747140e-01
5.753269e-01
5.759232e-01
5.764561e-01
5.768498e-01
5.770783e-01
5.772074e-01
5.768989e-01
5.763498e-01
5.756630e-01
5.749251e-01
5.742646e-01
5.731089e-01
0.000000e+00
1.000000e+00
5.739228e-01
5.742874e-01
5.750346e-01
5.757581e-01
5.764567e-01
5.770801e-01
5.775462e-01
5.778417e-01
5.779804e-01
5.777187e-01
5.770456e-01
5.761926e-01
5.752966e-01
5.744881e-01
5.731712e-01
0.000000e+00
1.000000e+00
5.740195e-01
5.744829e-01
5.753335e-01
5.761463e-01
5.769198e-01
5.776119e-01
5.781896e-01
5.786218e-01
5.786539e-01
5.784384e-01
5.777042e-01
5.766830e-01
5.756287e-01
5.746891e-01
5.732446e-01
0.000000e+00
1.000000e+00
5.740818e-01
5.746624e-01
5.755917e-01
5.764687e-01
5.772907e-01
5.780572e-01
5.787628e-01
5.792567e-01
5.792215e-01
5.789895e-01
5.782689e-01
5.771200e-01
5.759094e-01
5.748487e-01
5.733278e-01
0.000000e+00
1.000000e+00
5.741342e-01
5.747950e-01
5.757895e-01
5.767036e-01
5.775663e-01
5.784214e-01
5.792217e-01
5.797291e-01
5.796661e-01
5.793677e-01
5.786765e-01
5.774783e-01
5.761361e-01
5.749675e-01
5.733491e-01
0.000000e+00
1.000000e+00
5.741520e-01
5.748814e-01
5.759091e-01
5.768444e-01
5.777556e-01
5.786840e-01
5.795202e-01
5.800291e-01
5.799722e-01
5.796071e-01
5.788995e-01
5.777061e-01
5.762912e-01
5.750344e-01
5.733108e-01
0.000000e+00
1.000000e+00
5.741608e-01
5.749218e-01
5.759707e-01
5.769187e-01
5.778610e-01
5.788098e-01
5.796417e-01
5.801521e-01
5.801508e-01
5.797517e-01
5.789825e-01
5.777786e-01
5.763527e-01
5.750676e-01
5.732920e-01
0.000000e+00
1.000000e+00
5.741461e-01
5.749309e-01
5.759709e-01
5.769183e-01
5.778491e-01
5.787815e-01
5.796018e-01
5.801103e-01
5.801563e-01
5.797817e-01
5.789749e-01
5.777320e-01
5.763230e-01
5.750833e-01
5.733651e-01
0.000000e+00
1.000000e+00
5.740931e-01
5.748427e-01
5.758064e-01
5.767253e-01
5.776464e-01
5.785829e-01
5.794193e-01
5.799350e-01
5.800019e-01
5.796852e-01
5.788857e-01
5.776330e-01
5.762314e-01
5.750109e-01
5.733013e-01
0.000000e+00
1.000000e+00
5.740727e-01
5.747358e-01
5.756528e-01
5.765146e-01
5.773868e-01
5.782893e-01
5.791339e-01
5.796498e-01
5.796776e-01
5.794121e-01
5.787438e-01
5.776559e-01
5.763744e-01
5.750397e-01
5.733963e-01
0.000000e+00
1.000000e+00
5.733127e-01
5.728041e-01
5.727786e-01
5.726909e-01
5.726073e-01
5.725372e-01
5.724905e-01
5.724752e-01
5.724932e-01
5.725420e-01
5.726115e-01
5.726950e-01
5.727836e-01
5.729009e-01
5.725645e-01
0.000000e+00
1.000000e+00
5.735278e-01
5.729055e-01
5.729613e-01
5.729403e-01
5.729200e-01
5.729028e-01
5.728914e-01
5.728873e-01
5.728905e-01
5.729015e-01
5.729178e-01
5.729365e-01
5.729610e-01
5.730028e-01
5.726312e-01
0.000000e+00
1.000000e+00
5.734878e-01
5.730556e-01
5.731993e-01
5.732618e-01
5.733205e-01
5.733712e-01
5.734068e-01
5.734199e-01
5.734075e-01
5.733690e-01
5.733158e-01
5.732548e-01
5.731947e-01
5.731952e-01
5.725938e-01
0.000000e+00
1.000000e+00
5.734231e-01
5.732531e-01
5.734863e-01
5.736641e-01
5.738242e-01
5.739526e-01
5.740359e-01
5.740605e-01
5.740192e-01
5.739229e-01
5.738012e-01
5.736584e-01
5.734927e-01
5.734246e-01
5.726148e-01
0.000000e+00
1.000000e+00
5.735723e-01
5.734846e-01
5.738027e-01
5.741001e-01
5.743809e-01
5.746125e-01
5.747700e-01
5.748261e-01
5.747595e-01
5.746253e-01
5.744282e-01
5.741576e-01
5.738506e-01
5.736395e-01
5.727125e-01
0.000000e+00
1.000000e+00
5.736784e-01
5.736978e-01
5.741446e-01
5.745582e-01
5.749609e-01
5.753138e-01
5.755754e-01
5.756998e-01
5.756182e-01
5.754693e-01
5.751565e-01
5.747249e-01
5.742557e-01
5.738652e-01
5.728662e-01
0.000000e+00
1.000000e+00
5.737762e-01
5.739282e-01
5.745021e-01
5.750407e-01
5.755653e-01
5.760315e-01
5.763866e-01
5.765887e-01
5.766273e-01
5.763808e-01
5.759142e-01
5.753214e-01
5.746810e-01
5.741121e-01
5.729993e-01
0.000000e+00
1.000000e+00
5.738920e-01
5.741632e-01
5.748657e-01
5.755313e-01
5.761767e-01
5.767496e-01
5.771624e-01
5.774176e-01
5.775930e-01
5.773105e-01
5.766958e-01
5.759256e-01
5.751095e-01
5.743701e-01
5.731362e-01
0.000000e+00
1.000000e+00
5.739881e-01
5.744004e-01
5.752121e-01
5.759920e-01
5.767357e-01
5.773939e-01
5.779139e-01
5.783148e-01
5.784066e-01
5.781931e-01
5.774766e-01
5.765112e-01
5.755123e-01
5.746107e-01
5.732429e-01
0.000000e+00
1.000000e+00
5.740823e-01
5.746124e-01
5.755238e-01
5.763892e-01
5.772009e-01
5.779468e-01
5.786264e-01
5.791297e-01
5.791107e-01
5.789019e-01
5.781800e-01
5.770475e-01
5.758663e-01
5.748217e-01
5.733117e-01
0.000000e+00
1.000000e+00
5.741630e-01
5.747850e-01
5.757843e-01
5.767039e-01
5.775756e-01
5.784329e-01
5.792408e-01
5.797598e-01
5.797115e-01
5.794215e-01
5.787300e-01
5.775190e-01
5.761653e-01
5.749800e-01
5.733653e-01
0.000000e+00
1.000000e+00
5.742066e-01
5.749125e-01
5.759619e-01
5.769217e-01
5.778671e-01
5.788273e-01
5.796879e-01
5.802044e-01
5.801557e-01
5.797649e-01
5.790550e-01
5.778715e-01
5.764159e-01
5.750891e-01
5.733867e-01
0.000000e+00
1.000000e+00
5.742308e-01
5.749588e-01
5.760454e-01
5.770446e-01
5.780639e-01
5.790773e-01
5.799382e-01
5.804558e-01
5.804306e-01
5.799699e-01
5.791866e-01
5.780403e-01
5.765821e-01
5.751397e-01
5.733732e-01
0.000000e+00
1.000000e+00
5.742371e-01
5.749634e-01
5.760804e-01
5.771004e-01
5.781448e-01
5.791532e-01
5.799968e-01
5.805149e-01
5.805383e-01
5.800658e-01
5.792134e-01
5.780504e-01
5.766234e-01
5.751508e-01
5.733681e-01
0.000000e+00
1.000000e+00
5.741893e-01
5.749663e-01
5.760544e-01
5.770467e-01
5.780528e-01
5.790404e-01
5.798805e-01
5.803972e-01
5.804443e-01
5.800157e-01
5.791715e-01
5.779676e-01
5.765332e-01
5.751284e-01
5.734404e-01
0.000000e+00
1.000000e+00
5.741298e-01
5.748518e-01
5.758487e-01
5.767848e-01
5.777536e-01
5.787445e-01
5.796078e-01
5.801351e-01
5.801943e-01
5.798516e-01
5.790653e-01
5.778299e-01
5.763734e-01
5.750372e-01
5.733410e-01
0.000000e+00
1.000000e+00
5.741238e-01
5.747469e-01
5.756891e-01
5.765429e-01
5.774334e-01
5.783735e-01
5.792387e-01
5.797595e-01
5.797914e-01
5.795155e-01
5.788601e-01
5.777819e-01
5.764751e-01
5.750823e-01
5.734450e-01
0.000000e+00
1.000000e+00
5.732275e-01
5.727054e-01
5.726167e-01
5.724684e-01
5.723276e-01
5.722093e-01
5.721299e-01
5.721026e-01
5.721324e-01
5.722144e-01
5.723327e-01
5.724744e-01
5.726199e-01
5.728056e-01
5.725057e-01
0.000000e+00
1.000000e+00
5.734673e-01
5.728236e-01
5.728281e-01
5.727579e-01
5.726913e-01
5.726357e-01
5.725989e-01
5.725867e-01
5.726014e-01
5.726390e-01
5.726911e-01
5.727605e-01
5.728308e-01
5.729352e-01
5.726340e-01
0.000000e+00
1.000000e+00
5.735790e-01
5.729775e-01
5.731030e-01
5.731323e-01
5.731590e-01
5.731813e-01
5.731973e-01
5.732038e-01
5.731986e-01
5.731821e-01
5.731584e-01
5.731344e-01
5.731083e-01
5.731580e-01
5.724164e-01
0.000000e+00
1.000000e+00
5.734204e-01
5.731963e-01
5.734160e-01
5.735647e-01
5.737109e-01
5.738318e-01
5.739120e-01
5.739392e-01
5.739074e-01
5.738277e-01
5.737220e-01
5.735881e-01
5.734345e-01
5.734040e-01
5.725179e-01
0.000000e+00
1.000000e+00
5.735172e-01
5.734861e-01
5.737868e-01
5.740654e-01
5.743407e-01
5.745753e-01
5.747374e-01
5.747960e-01
5.747313e-01
5.745969e-01
5.744014e-01
5.741350e-01
5.738342e-01
5.736351e-01
5.726618e-01
0.000000e+00
1.000000e+00
5.736757e-01
5.737236e-01
5.741740e-01
5.745943e-01
5.750045e-01
5.753674e-01
5.756380e-01
5.757635e-01
5.756720e-01
5.755167e-01
5.752007e-01
5.747610e-01
5.742813e-01
5.738847e-01
5.728236e-01
0.000000e+00
1.000000e+00
5.737888e-01
5.739699e-01
5.745644e-01
5.751266e-01
5.756710e-01
5.761535e-01
5.765223e-01
5.767289e-01
5.767906e-01
5.765309e-01
5.760385e-01
5.754189e-01
5.747520e-01
5.741575e-01
5.730093e-01
0.000000e+00
1.000000e+00
5.739176e-01
5.742246e-01
5.749578e-01
5.756563e-01
5.763267e-01
5.769145e-01
5.773324e-01
5.776224e-01
5.778142e-01
5.775577e-01
5.769025e-01
5.760777e-01
5.752143e-01
5.744332e-01
5.731489e-01
0.000000e+00
1.000000e+00
5.740319e-01
5.744688e-01
5.753244e-01
5.761364e-01
5.768991e-01
5.775719e-01
5.781385e-01
5.786170e-01
5.786399e-01
5.784806e-01
5.777612e-01
5.767155e-01
5.756445e-01
5.746868e-01
5.732629e-01
0.000000e+00
1.000000e+00
5.741461e-01
5.746823e-01
5.756505e-01
5.765370e-01
5.773628e-01
5.781454e-01
5.789066e-01
5.794574e-01
5.793848e-01
5.791724e-01
5.785012e-01
5.773028e-01
5.760195e-01
5.748991e-01
5.733283e-01
0.000000e+00
1.000000e+00
5.742329e-01
5.748547e-01
5.759093e-01
5.768394e-01
5.777407e-01
5.786640e-01
5.795403e-01
5.800806e-01
5.800059e-01
5.796654e-01
5.790068e-01
5.777996e-01
5.763450e-01
5.750501e-01
5.733500e-01
0.000000e+00
1.000000e+00
5.742615e-01
5.749713e-01
5.760636e-01
5.770474e-01
5.780520e-01
5.790737e-01
5.799632e-01
5.804925e-01
5.804554e-01
5.800026e-01
5.792409e-01
5.780931e-01
5.766180e-01
5.751521e-01
5.733444e-01
0.000000e+00
1.000000e+00
5.742775e-01
5.749853e-01
5.761382e-01
5.771894e-01
5.782646e-01
5.793030e-01
5.801673e-01
5.806953e-01
5.807128e-01
5.802145e-01
5.793199e-01
5.781436e-01
5.767346e-01
5.751630e-01
5.733644e-01
0.000000e+00
1.000000e+00
5.742735e-01
5.749495e-01
5.761608e-01
5.772401e-01
5.783167e-01
5.793289e-01
5.801699e-01
5.806938e-01
5.807463e-01
5.802590e-01
5.793055e-01
5.780770e-01
5.767043e-01
5.751262e-01
5.733778e-01
0.000000e+00
1.000000e+00
5.742117e-01
5.749471e-01
5.761046e-01
5.771255e-01
5.781540e-01
5.791460e-01
5.799846e-01
5.805046e-01
5.805512e-01
5.801009e-01
5.792104e-01
5.779964e-01
5.765883e-01
5.750983e-01
5.734371e-01
0.000000e+00
1.000000e+00
5.741324e-01
5.748453e-01
5.758509e-01
5.767898e-01
5.777732e-01
5.787697e-01
5.796318e-01
5.801620e-01
5.802140e-01
5.798601e-01
5.790745e-01
5.778609e-01
5.764170e-01
5.750248e-01
5.733600e-01
0.000000e+00
1.000000e+00
5.741127e-01
5.747342e-01
5.756602e-01
5.765153e-01
5.774025e-01
5.783320e-01
5.791817e-01
5.797007e-01
5.797382e-01
5.794694e-01
5.788244e-01
5.777637e-01
5.764637e-01
5.750627e-01
5.734630e-01
0.000000e+00
1.000000e+00
5.730992e-01
5.725945e-01
5.724174e-01
5.721954e-01
5.719848e-01
5.718079e-01
5.716890e-01
5.716473e-01
5.716903e-01
5.718132e-01
5.719906e-01
5.722008e-01
5.724193e-01
5.726888e-01
5.723226e-01
0.000000e+00
1.000000e+00
5.733305e-01
5.727224e-01
5.726557e-01
5.725214e-01
5.723940e-01
5.722871e-01
5.722158e-01
5.721917e-01
5.722190e-01
5.722915e-01
5.723962e-01
5.725274e-01
5.726587e-01
5.728363e-01
5.726134e-01
0.000000e+00
1.000000e+00
5.735603e-01
5.728895e-01
5.729591e-01
5.729360e-01
5.729136e-01
5.728954e-01
5.728840e-01
5.728809e-01
5.728859e-01
5.728965e-01
5.729099e-01
5.729354e-01
5.729592e-01
5.730388e-01
5.724097e-01
0.000000e+00
1.000000e+00
5.734703e-01
5.731308e-01
5.733182e-01
5.734251e-01
5.735296e-01
5.736195e-01
5.736813e-01
5.737035e-01
5.736810e-01
5.736180e-01
5.735295e-01
5.734271e-01
5.733212e-01
5.732972e-01
5.724665e-01
0.000000e+00
1.000000e+00
5.734575e-01
5.734275e-01
5.737331e-01
5.739959e-01
5.742453e-01
5.744501e-01
5.745852e-01
5.746276e-01
5.745615e-01
5.744227e-01
5.742448e-01
5.740174e-01
5.737549e-01
5.735801e-01
5.726756e-01
0.000000e+00
1.000000e+00
5.736394e-01
5.737071e-01
5.741464e-01
5.745635e-01
5.749686e-01
5.753187e-01
5.755695e-01
5.756707e-01
5.755666e-01
5.754022e-01
5.751124e-01
5.746997e-01
5.742385e-01
5.738719e-01
5.728072e-01
0.000000e+00
1.000000e+00
5.737686e-01
5.739778e-01
5.745695e-01
5.751340e-01
5.756807e-01
5.761649e-01
5.765350e-01
5.767272e-01
5.767417e-01
5.764988e-01
5.760169e-01
5.754019e-01
5.747431e-01
5.741611e-01
5.730055e-01
0.000000e+00
1.000000e+00
5.739074e-01
5.742455e-01
5.749850e-01
5.756973e-01
5.763741e-01
5.769601e-01
5.773775e-01
5.776761e-01
5.778449e-01
5.776111e-01
5.769425e-01
5.761043e-01
5.752319e-01
5.744529e-01
5.731354e-01
0.000000e+00
1.000000e+00
5.740435e-01
5.744913e-01
5.753635e-01
5.761902e-01
5.769564e-01
5.776281e-01
5.782048e-01
5.786995e-01
5.786983e-01
5.785736e-01
5.778579e-01
5.767806e-01
5.756835e-01
5.747202e-01
5.731995e-01
0.000000e+00
1.000000e+00
5.741568e-01
5.747132e-01
5.756905e-01
5.765831e-01
5.774102e-01
5.782060e-01
5.789997e-01
5.795736e-01
5.794569e-01
5.792529e-01
5.786234e-01
5.774017e-01
5.760740e-01
5.749292e-01
5.732406e-01
0.000000e+00
1.000000e+00
5.742413e-01
5.748840e-01
5.759388e-01
5.768731e-01
5.777835e-01
5.787291e-01
5.796320e-01
5.801882e-01
5.800883e-01
5.797236e-01
5.790935e-01
5.779037e-01
5.764117e-01
5.750745e-01
5.732598e-01
0.000000e+00
1.000000e+00
5.742821e-01
5.749828e-01
5.760849e-01
5.770749e-01
5.780901e-01
5.791252e-01
5.800287e-01
5.805700e-01
5.805315e-01
5.800606e-01
5.792879e-01
5.781459e-01
5.766675e-01
5.751660e-01
5.732786e-01
0.000000e+00
1.000000e+00
5.742962e-01
5.750046e-01
5.761586e-01
5.772082e-01
5.782821e-01
5.793248e-01
5.801961e-01
5.807286e-01
5.807519e-01
5.802563e-01
5.793552e-01
5.781626e-01
5.767469e-01
5.751834e-01
5.733605e-01
0.000000e+00
1.000000e+00
5.742736e-01
5.749845e-01
5.761485e-01
5.772129e-01
5.782843e-01
5.793021e-01
5.801496e-01
5.806739e-01
5.807115e-01
5.802231e-01
5.792963e-01
5.780912e-01
5.767017e-01
5.751723e-01
5.734581e-01
0.000000e+00
1.000000e+00
5.742145e-01
5.749428e-01
5.760503e-01
5.770552e-01
5.780760e-01
5.790679e-01
5.799070e-01
5.804238e-01
5.804515e-01
5.799966e-01
5.791397e-01
5.779624e-01
5.765562e-01
5.751407e-01
5.734964e-01
0.000000e+00
1.000000e+00
5.741166e-01
5.748202e-01
5.758041e-01
5.767253e-01
5.776768e-01
5.786430e-01
5.794874e-01
5.800112e-01
5.800564e-01
5.797129e-01
5.789450e-01
5.777566e-01
5.763374e-01
5.750135e-01
5.734251e-01
0.000000e+00
1.000000e+00
5.740706e-01
5.746972e-01
5.755900e-01
5.764364e-01
5.772939e-01
5.781671e-01
5.789658e-01
5.794742e-01
5.795138e-01
5.792672e-01
5.786372e-01
5.775968e-01
5.763253e-01
5.749881e-01
5.734294e-01
0.000000e+00
1.000000e+00
5.729747e-01
5.724649e-01
5.721889e-01
5.718824e-01
5.715918e-01
5.713480e-01
5.711844e-01
5.711268e-01
5.711850e-01
5.713537e-01
5.715984e-01
5.718874e-01
5.721912e-01
5.725478e-01
5.722263e-01
0.000000e+00
1.000000e+00
5.731774e-01
5.726067e-01
5.724492e-01
5.722385e-01
5.720386e-01
5.718710e-01
5.717585e-01
5.717195e-01
5.717609e-01
5.718761e-01
5.720445e-01
5.722457e-01
5.724517e-01
5.727039e-01
5.725279e-01
0.000000e+00
1.000000e+00
5.734309e-01
5.727859e-01
5.727746e-01
5.726841e-01
5.725983e-01
5.725266e-01
5.724791e-01
5.724636e-01
5.724829e-01
5.725315e-01
5.725997e-01
5.726914e-01
5.727791e-01
5.729249e-01
5.725125e-01
0.000000e+00
1.000000e+00
5.734994e-01
5.730382e-01
5.731666e-01
5.732190e-01
5.732684e-01
5.733108e-01
5.733408e-01
5.733529e-01
5.733434e-01
5.733126e-01
5.732676e-01
5.732218e-01
5.731736e-01
5.732083e-01
5.723282e-01
0.000000e+00
1.000000e+00
5.734224e-01
5.733426e-01
5.736002e-01
5.738211e-01
5.740276e-01
5.741958e-01
5.743062e-01
5.743415e-01
5.742900e-01
5.741686e-01
5.740164e-01
5.738326e-01
5.736209e-01
5.735227e-01
5.726101e-01
0.000000e+00
1.000000e+00
5.735848e-01
5.736626e-01
5.740607e-01
5.744494e-01
5.748250e-01
5.751390e-01
5.753523e-01
5.754243e-01
5.753219e-01
5.751377e-01
5.748818e-01
5.745314e-01
5.741269e-01
5.738191e-01
5.727461e-01
0.000000e+00
1.000000e+00
5.737473e-01
5.739414e-01
5.745194e-01
5.750688e-01
5.756013e-01
5.760680e-01
5.764110e-01
5.765638e-01
5.764806e-01
5.762680e-01
5.758509e-01
5.752790e-01
5.746554e-01
5.741203e-01
5.729718e-01
0.000000e+00
1.000000e+00
5.738733e-01
5.742161e-01
5.749410e-01
5.756408e-01
5.763042e-01
5.768770e-01
5.772959e-01
5.775731e-01
5.776980e-01
5.774626e-01
5.768126e-01
5.760078e-01
5.751642e-01
5.744283e-01
5.730616e-01
0.000000e+00
1.000000e+00
5.740154e-01
5.744666e-01
5.753208e-01
5.761381e-01
5.768963e-01
5.775557e-01
5.780964e-01
5.785428e-01
5.786008e-01
5.784668e-01
5.777373e-01
5.766917e-01
5.756266e-01
5.747022e-01
5.731067e-01
0.000000e+00
1.000000e+00
5.741362e-01
5.746870e-01
5.756481e-01
5.765340e-01
5.773551e-01
5.781297e-01
5.788826e-01
5.794572e-01
5.793450e-01
5.791727e-01
5.785169e-01
5.773057e-01
5.760157e-01
5.749122e-01
5.731086e-01
0.000000e+00
1.000000e+00
5.742094e-01
5.748667e-01
5.758954e-01
5.768292e-01
5.777228e-01
5.786287e-01
5.794999e-01
5.800640e-01
5.799812e-01
5.796536e-01
5.790091e-01
5.777848e-01
5.763283e-01
5.750545e-01
5.731689e-01
0.000000e+00
1.000000e+00
5.742533e-01
5.749705e-01
5.760452e-01
5.770268e-01
5.780004e-01
5.789891e-01
5.798782e-01
5.804231e-01
5.803927e-01
5.799745e-01
5.792347e-01
5.780454e-01
5.765476e-01
5.751440e-01
5.732057e-01
0.000000e+00
1.000000e+00
5.742689e-01
5.749934e-01
5.760932e-01
5.771036e-01
5.781220e-01
5.791372e-01
5.800146e-01
5.805463e-01
5.805338e-01
5.800760e-01
5.792688e-01
5.780969e-01
5.766308e-01
5.751778e-01
5.733399e-01
0.000000e+00
1.000000e+00
5.742327e-01
5.749732e-01
5.760529e-01
5.770406e-01
5.780537e-01
5.790643e-01
5.799299e-01
5.804498e-01
5.804150e-01
5.799536e-01
5.791749e-01
5.780266e-01
5.765740e-01
5.751465e-01
5.734646e-01
0.000000e+00
1.000000e+00
5.741765e-01
5.748992e-01
5.759356e-01
5.768669e-01
5.778265e-01
5.787989e-01
5.796450e-01
5.801541e-01
5.801188e-01
5.797033e-01
5.789713e-01
5.778178e-01
5.763840e-01
5.750695e-01
5.734807e-01
0.000000e+00
1.000000e+00
5.740924e-01
5.747369e-01
5.756952e-01
5.765594e-01
5.774458e-01
5.783536e-01
5.791686e-01