<?xml version="1.0"?>
<VTKFile type="StructuredGrid" version="0.1">
  <StructuredGrid WholeExtent="0 16 0 16 0 16">
    <Piece Extent="0 16 0 16 0 16">
      <PointData Scalars="temperature" Vectors="velocity">
        <DataArray type="Float32" Name="temperature" format="ascii">
1.000000e+00
5.737813e-01
5.745029e-01
5.753510e-01
5.762173e-01
5.770545e-01
5.777798e-01
5.782954e-01
5.785295e-01
5.784307e-01
5.780058e-01
5.772944e-01
5.764290e-01
5.755073e-01
5.746093e-01
5.734578e-01
0.000000e+00
1.000000e+00
5.737064e-01
5.743355e-01
5.750904e-01
5.758573e-01
5.766011e-01
5.772423e-01
5.776906e-01
5.778826e-01
5.778039e-01
5.774208e-01
5.767902e-01
5.760279e-01
5.752118e-01
5.744270e-01
5.734334e-01
0.000000e+00
1.000000e+00
5.736214e-01
5.741311e-01
5.747861e-01
5.754431e-01
5.760756e-01
5.766184e-01
5.769977e-01
5.771573e-01
5.770921e-01
5.767583e-01
5.762313e-01
5.755881e-01
5.748949e-01
5.742248e-01
5.733178e-01
0.000000e+00
1.000000e+00
5.735169e-01
5.739134e-01
5.744513e-01
5.749887e-01
5.755033e-01
5.759427e-01
5.762499e-01
5.763740e-01
5.762979e-01
5.760343e-01
5.756108e-01
5.750917e-01
5.745322e-01
5.739965e-01
5.732519e-01
0.000000e+00
1.000000e+00
5.734071e-01
5.736900e-01
5.741019e-01
5.745111e-01
5.748997e-01
5.752274e-01
5.754499e-01
5.755322e-01
5.754541e-01
5.752560e-01
5.749443e-01
5.745563e-01
5.741384e-01
5.737498e-01
5.731395e-01
0.000000e+00
1.000000e+00
5.733043e-01
5.734604e-01
5.737406e-01
5.740121e-01
5.742694e-01
5.744842e-01
5.746276e-01
5.746777e-01
5.746235e-01
5.744821e-01
5.742739e-01
5.740206e-01
5.737489e-01
5.735061e-01
5.730162e-01
0.000000e+00
1.000000e+00
5.732060e-01
5.732284e-01
5.733803e-01
5.735167e-01
5.736459e-01
5.737535e-01
5.738251e-01
5.738496e-01
5.738230e-01
5.737499e-01
5.736424e-01
5.735148e-01
5.733790e-01
5.732677e-01
5.729628e-01
0.000000e+00
1.000000e+00
5.730725e-01
5.730180e-01
5.730439e-01
5.730578e-01
5.730711e-01
5.730823e-01
5.730906e-01
5.730944e-01
5.730929e-01
5.730865e-01
5.730759e-01
5.730631e-01
5.730486e-01
5.730567e-01
5.726887e-01
0.000000e+00
1.000000e+00
5.729868e-01
5.728384e-01
5.727602e-01
5.726691e-01
5.725830e-01
5.725110e-01
5.724630e-01
5.724465e-01
5.724641e-01
5.725129e-01
5.725852e-01
5.726712e-01
5.727616e-01
5.728919e-01
5.724965e-01
0.000000e+00
1.000000e+00
5.728905e-01
5.726972e-01
5.725371e-01
5.723635e-01
5.721988e-01
5.720606e-01
5.719676e-01
5.719348e-01
5.719680e-01
5.720615e-01
5.722002e-01
5.723646e-01
5.725376e-01
5.727565e-01
5.724716e-01
0.000000e+00
1.000000e+00
5.727988e-01
5.726027e-01
5.723856e-01
5.721563e-01
5.719387e-01
5.717560e-01
5.716331e-01
5.715898e-01
5.716337e-01
5.717573e-01
5.719407e-01
5.721582e-01
5.723870e-01
5.726606e-01
5.723845e-01
0.000000e+00
1.000000e+00
5.727433e-01
5.725599e-01
5.723105e-01
5.720537e-01
5.718100e-01
5.716054e-01
5.714679e-01
5.714196e-01
5.714688e-01
5.716070e-01
5.718122e-01
5.720560e-01
5.723125e-01
5.726205e-01
5.723258e-01
0.000000e+00
1.000000e+00
5.727301e-01
5.725659e-01
5.723107e-01
5.720539e-01
5.718103e-01
5.716058e-01
5.714684e-01
5.714202e-01
5.714695e-01
5.716076e-01
5.718124e-01
5.720561e-01
5.723126e-01
5.726280e-01
5.723492e-01
0.000000e+00
1.000000e+00
5.727482e-01
5.726145e-01
5.723798e-01
5.721484e-01
5.719289e-01
5.717447e-01
5.716210e-01
5.715778e-01
5.716224e-01
5.717468e-01
5.719310e-01
5.721503e-01
5.723814e-01
5.726727e-01
5.724437e-01
0.000000e+00
1.000000e+00
5.727891e-01
5.726981e-01
5.725081e-01
5.723240e-01
5.721493e-01
5.720028e-01
5.719044e-01
5.718702e-01
5.719060e-01
5.720052e-01
5.721516e-01
5.723256e-01
5.725093e-01
5.727523e-01
5.725389e-01
0.000000e+00
1.000000e+00
5.728487e-01
5.728126e-01
5.726838e-01
5.725646e-01
5.724514e-01
5.723564e-01
5.722926e-01
5.722706e-01
5.722941e-01
5.723588e-01
5.724540e-01
5.725664e-01
5.726847e-01
5.728849e-01
5.726987e-01
0.000000e+00
1.000000e+00
5.729321e-01
5.729512e-01
5.728947e-01
5.728532e-01
5.728137e-01
5.727805e-01
5.727583e-01
5.727507e-01
5.727591e-01
5.727821e-01
5.728158e-01
5.728551e-01
5.728957e-01
5.733431e-01
5.712851e-01
0.000000e+00
1.000000e+00
5.738696e-01
5.746611e-01
5.755896e-01
5.765313e-01
5.774429e-01
5.782428e-01
5.788337e-01
5.791191e-01
5.789941e-01
5.785651e-01
5.777970e-01
5.768348e-01
5.757981e-01
5.747745e-01
5.736762e-01
0.000000e+00
1.000000e+00
5.737902e-01
5.745265e-01
5.753768e-01
5.762248e-01
5.770421e-01
5.777546e-01
5.782710e-01
5.785247e-01
5.784192e-01
5.780266e-01
5.773076e-01
5.764185e-01
5.754652e-01
5.745763e-01
5.735470e-01
0.000000e+00
1.000000e+00
5.737034e-01
5.743314e-01
5.750832e-01
5.758421e-01
5.765647e-01
5.771840e-01
5.776172e-01
5.778138e-01
5.777533e-01
5.773672e-01
5.767242e-01
5.759506e-01
5.751345e-01
5.743803e-01
5.734516e-01
0.000000e+00
1.000000e+00
5.736067e-01
5.741165e-01
5.747537e-01
5.753947e-01
5.760078e-01
5.765300e-01
5.768935e-01
5.770528e-01
5.769850e-01
5.766495e-01
5.761218e-01
5.754867e-01
5.748101e-01
5.741750e-01
5.733717e-01
0.000000e+00
1.000000e+00
5.734993e-01
5.738886e-01
5.744003e-01
5.749126e-01
5.754020e-01
5.758186e-01
5.761069e-01
5.762251e-01
5.761290e-01
5.758809e-01
5.754720e-01
5.749698e-01
5.744336e-01
5.739368e-01
5.732591e-01
0.000000e+00
1.000000e+00
5.734043e-01
5.736511e-01
5.740330e-01
5.744115e-01
5.747723e-01
5.750768e-01
5.752835e-01
5.753596e-01
5.752813e-01
5.750926e-01
5.748004e-01
5.744392e-01
5.740516e-01
5.736985e-01
5.731372e-01
0.000000e+00
1.000000e+00
5.733100e-01
5.734198e-01
5.736698e-01
5.739150e-01
5.741476e-01
5.743414e-01
5.744714e-01
5.745159e-01
5.744658e-01
5.743353e-01
5.741436e-01
5.739123e-01
5.736689e-01
5.734613e-01
5.730336e-01
0.000000e+00
1.000000e+00
5.732125e-01
5.731967e-01
5.733248e-01
5.734423e-01
5.735531e-01
5.736461e-01
5.737090e-01
5.737312e-01
5.737091e-01
5.736463e-01
5.735530e-01
5.734409e-01
5.733242e-01
5.732303e-01
5.729695e-01
0.000000e+00
1.000000e+00
5.731117e-01
5.729955e-01
5.730273e-01
5.730348e-01
5.730422e-01
5.730487e-01
5.730533e-01
5.730554e-01
5.730547e-01
5.730516e-01
5.730461e-01
5.730396e-01
5.730312e-01
5.730401e-01
5.727439e-01
0.000000e+00
1.000000e+00
5.730417e-01
5.728454e-01
5.727944e-01
5.727156e-01
5.726410e-01
5.725785e-01
5.725366e-01
5.725218e-01
5.725367e-01
5.725786e-01
5.726410e-01
5.727156e-01
5.727939e-01
5.729019e-01
5.726528e-01
0.000000e+00
1.000000e+00
5.729571e-01
5.727400e-01
5.726311e-01
5.724924e-01
5.723606e-01
5.722498e-01
5.721752e-01
5.721489e-01
5.721753e-01
5.722501e-01
5.723610e-01
5.724926e-01
5.726309e-01
5.727996e-01
5.727082e-01
0.000000e+00
1.000000e+00
5.728811e-01
5.726936e-01
5.725470e-01
5.723774e-01
5.722164e-01
5.720811e-01
5.719901e-01
5.719580e-01
5.719904e-01
5.720817e-01
5.722173e-01
5.723784e-01
5.725477e-01
5.727590e-01
5.725802e-01
0.000000e+00
1.000000e+00
5.728634e-01
5.726987e-01
5.725409e-01
5.723691e-01
5.722060e-01
5.720690e-01
5.719769e-01
5.719445e-01
5.719774e-01
5.720698e-01
5.722070e-01
5.723702e-01
5.725419e-01
5.727753e-01
5.725387e-01
0.000000e+00
1.000000e+00
5.728766e-01
5.727463e-01
5.726060e-01
5.724582e-01
5.723178e-01
5.722000e-01
5.721209e-01
5.720932e-01
5.721216e-01
5.722011e-01
5.723188e-01
5.724591e-01
5.726069e-01
5.728304e-01
5.725448e-01
0.000000e+00
1.000000e+00
5.729177e-01
5.728307e-01
5.727319e-01
5.726306e-01
5.725343e-01
5.724534e-01
5.723993e-01
5.723804e-01
5.724002e-01
5.724548e-01
5.725355e-01
5.726314e-01
5.727326e-01
5.729154e-01
5.725666e-01
0.000000e+00
1.000000e+00
5.729796e-01
5.729458e-01
5.729064e-01
5.728693e-01
5.728339e-01
5.728043e-01
5.727846e-01
5.727779e-01
5.727855e-01
5.728059e-01
5.728357e-01
5.728707e-01
5.729071e-01
5.730664e-01
5.725470e-01
0.000000e+00
1.000000e+00
5.731073e-01
5.730773e-01
5.731162e-01
5.731562e-01
5.731940e-01
5.732257e-01
5.732473e-01
5.732551e-01
5.732479e-01
5.732269e-01
5.731954e-01
5.731572e-01
5.731161e-01
5.736425e-01
5.708363e-01
0.000000e+00
1.000000e+00
5.739330e-01
5.747845e-01
5.757719e-01
5.767716e-01
5.777471e-01
5.786195e-01
5.792817e-01
5.796039e-01
5.794664e-01
5.790168e-01
5.782236e-01
5.771897e-01
5.760639e-01
5.749340e-01
5.737418e-01
0.000000e+00
1.000000e+00
5.738593e-01
5.746784e-01
5.756069e-01
5.765216e-01
5.773986e-01
5.781790e-01
5.787724e-01
5.790729e-01
5.789238e-01
5.785371e-01
5.777807e-01
5.767972e-01
5.757351e-01
5.747371e-01
5.735847e-01
0.000000e+00
1.000000e+00
5.737767e-01
5.744969e-01
5.753379e-01
5.761795e-01
5.769710e-01
5.776510e-01
5.781459e-01
5.783876e-01
5.783081e-01
5.779109e-01
5.771826e-01
5.763007e-01
5.753883e-01
5.745465e-01
5.735048e-01
0.000000e+00
1.000000e+00
5.736860e-01
5.742818e-01
5.750113e-01
5.757443e-01
5.764428e-01
5.770360e-01
5.774457e-01
5.776322e-01
5.775775e-01
5.771928e-01
5.765769e-01
5.758460e-01
5.750770e-01
5.743494e-01
5.734257e-01
0.000000e+00
1.000000e+00
5.735837e-01
5.740541e-01
5.746578e-01
5.752630e-01
5.758410e-01
5.763340e-01
5.766765e-01
5.768243e-01
5.767402e-01
5.764292e-01
5.759353e-01
5.753386e-01
5.747050e-01
5.741122e-01
5.733148e-01
0.000000e+00
1.000000e+00
5.734799e-01
5.738140e-01
5.742862e-01
5.747571e-01
5.752072e-01
5.755900e-01
5.758550e-01
5.759630e-01
5.758682e-01
5.756391e-01
5.752655e-01
5.748072e-01
5.743201e-01
5.738705e-01
5.731934e-01
0.000000e+00
1.000000e+00
5.733754e-01
5.735764e-01
5.739188e-01
5.742565e-01
5.745785e-01
5.748495e-01
5.750331e-01
5.751003e-01
5.750312e-01
5.748607e-01
5.746001e-01
5.742782e-01
5.739353e-01
5.736314e-01
5.730795e-01
0.000000e+00
1.000000e+00
5.732852e-01
5.733647e-01
5.735752e-01
5.737850e-01
5.739830e-01
5.741484e-01
5.742590e-01
5.742970e-01
5.742549e-01
5.741430e-01
5.739805e-01
5.737819e-01
5.735717e-01
5.734057e-01
5.729854e-01
0.000000e+00
1.000000e+00
5.732217e-01
5.731705e-01
5.732624e-01
5.733569e-01
5.734464e-01
5.735223e-01
5.735734e-01
5.735917e-01
5.735743e-01
5.735238e-01
5.734491e-01
5.733598e-01
5.732647e-01
5.731975e-01
5.729208e-01
0.000000e+00
1.000000e+00
5.731482e-01
5.729745e-01
5.730182e-01
5.730214e-01
5.730249e-01
5.730280e-01
5.730303e-01
5.730315e-01
5.730312e-01
5.730297e-01
5.730270e-01
5.730239e-01
5.730195e-01
5.730408e-01
5.726925e-01
0.000000e+00
1.000000e+00
5.731129e-01
5.728546e-01
5.728475e-01
5.727885e-01
5.727320e-01
5.726844e-01
5.726523e-01
5.726409e-01
5.726518e-01
5.726833e-01
5.727302e-01
5.727865e-01
5.728455e-01
5.729374e-01
5.726729e-01
0.000000e+00
1.000000e+00
5.730299e-01
5.728008e-01
5.727533e-01
5.726598e-01
5.725709e-01
5.724961e-01
5.724458e-01
5.724280e-01
5.724458e-01
5.724961e-01
5.725707e-01
5.726595e-01
5.727528e-01
5.729034e-01
5.725452e-01
0.000000e+00
1.000000e+00
5.729860e-01
5.728089e-01
5.727409e-01
5.726428e-01
5.725496e-01
5.724713e-01
5.724186e-01
5.724000e-01
5.724187e-01
5.724714e-01
5.725496e-01
5.726428e-01
5.727408e-01
5.729321e-01
5.724163e-01
0.000000e+00
1.000000e+00
5.730026e-01
5.728578e-01
5.728020e-01
5.727265e-01
5.726547e-01
5.725944e-01
5.725538e-01
5.725395e-01
5.725540e-01
5.725946e-01
5.726547e-01
5.727265e-01
5.728020e-01
5.729919e-01
5.724108e-01
0.000000e+00
1.000000e+00
5.730483e-01
5.729412e-01
5.729254e-01
5.728955e-01
5.728668e-01
5.728427e-01
5.728266e-01
5.728211e-01
5.728269e-01
5.728430e-01
5.728668e-01
5.728952e-01
5.729251e-01
5.730750e-01
5.724202e-01
0.000000e+00
1.000000e+00
5.731427e-01
5.730480e-01
5.730980e-01
5.731316e-01
5.731633e-01
5.731900e-01
5.732083e-01
5.732152e-01
5.732093e-01
5.731915e-01
5.731643e-01
5.731319e-01
5.730980e-01
5.732951e-01
5.723847e-01
0.000000e+00
1.000000e+00
5.732733e-01
5.731668e-01
5.733063e-01
5.734165e-01
5.735209e-01
5.736087e-01
5.736679e-01
5.736891e-01
5.736687e-01
5.736099e-01
5.735217e-01
5.734157e-01
5.733038e-01
5.737326e-01
5.714427e-01
0.000000e+00
1.000000e+00
5.739818e-01
5.748704e-01
5.758990e-01
5.769400e-01
5.779721e-01
5.789039e-01
5.796123e-01
5.799526e-01
5.798216e-01
5.793384e-01
5.785281e-01
5.774553e-01
5.762560e-01
5.750391e-01
5.737880e-01
0.000000e+00
1.000000e+00
5.739151e-01
5.747859e-01
5.757664e-01
5.767226e-01
5.776530e-01
5.785012e-01
5.791583e-01
5.794774e-01
5.793111e-01
5.789036e-01
5.781333e-01
5.770853e-01
5.759272e-01
5.748397e-01
5.736407e-01
0.000000e+00
1.000000e+00
5.738394e-01
5.746162e-01
5.755227e-01
5.764202e-01
5.772602e-01
5.779939e-01
5.785563e-01
5.788510e-01
5.787164e-01
5.783352e-01
5.775540e-01
5.765835e-01
5.755816e-01
5.746601e-01
5.735629e-01
0.000000e+00
1.000000e+00
5.737523e-01
5.744052e-01
5.752076e-01
5.760121e-01
5.767762e-01
5.774221e-01
5.778718e-01
5.780853e-01
5.780389e-01
5.776361e-01
5.769490e-01
5.761400e-01
5.752891e-01
5.744787e-01
5.734839e-01
0.000000e+00
1.000000e+00
5.736440e-01
5.741837e-01
5.748599e-01
5.755405e-01
5.761897e-01
5.767423e-01
5.771240e-01
5.772936e-01
5.772331e-01
5.768703e-01
5.763099e-01
5.756381e-01
5.749218e-01
5.742452e-01
5.733734e-01
0.000000e+00
1.000000e+00
5.735362e-01
5.739473e-01
5.744916e-01
5.750372e-01
5.755578e-01
5.760017e-01
5.763112e-01
5.764444e-01
5.763419e-01
5.760796e-01
5.756401e-01
5.751039e-01
5.745347e-01
5.740044e-01
5.732535e-01
0.000000e+00
1.000000e+00
5.734353e-01
5.737068e-01
5.741204e-01
5.745303e-01
5.749210e-01
5.752524e-01
5.754803e-01
5.755701e-01
5.754847e-01
5.752848e-01
5.749664e-01
5.745698e-01
5.741458e-01
5.737608e-01
5.731373e-01
0.000000e+00
1.000000e+00
5.733464e-01
5.734811e-01
5.737668e-01
5.740474e-01
5.743139e-01
5.745377e-01
5.746888e-01
5.747435e-01
5.746867e-01
5.745412e-01
5.743276e-01
5.740631e-01
5.737781e-01
5.735343e-01
5.730089e-01
0.000000e+00
1.000000e+00
5.732817e-01
5.732970e-01
5.734543e-01
5.736178e-01
5.737725e-01
5.739026e-01
5.739893e-01
5.740193e-01
5.739866e-01
5.738971e-01
5.737685e-01
5.736141e-01
5.734503e-01
5.733296e-01
5.729301e-01
0.000000e+00
1.000000e+00
5.732291e-01
5.731183e-01
5.731883e-01
5.732579e-01
5.733240e-01
5.733798e-01
5.734173e-01
5.734311e-01
5.734188e-01
5.733824e-01
5.733277e-01
5.732627e-01
5.731942e-01
5.731536e-01
5.728779e-01
0.000000e+00
1.000000e+00
5.731756e-01
5.729630e-01
5.730157e-01
5.730153e-01
5.730167e-01
5.730179e-01
5.730189e-01
5.730192e-01
5.730189e-01
5.730181e-01
5.730166e-01
5.730150e-01
5.730128e-01
5.730324e-01
5.727900e-01
0.000000e+00
1.000000e+00
5.731217e-01
5.729005e-01
5.729142e-01
5.728800e-01
5.728469e-01
5.728188e-01
5.727997e-01
5.727928e-01
5.727990e-01
5.728174e-01
5.728449e-01
5.728777e-01
5.729123e-01
5.729969e-01
5.725015e-01
0.000000e+00
1.000000e+00
5.730666e-01
5.729059e-01
5.728950e-01
5.728537e-01
5.728144e-01
5.727814e-01
5.727591e-01
5.727512e-01
5.727589e-01
5.727809e-01
5.728138e-01
5.728530e-01
5.728940e-01
5.730353e-01
5.722696e-01
0.000000e+00
1.000000e+00
5.730993e-01
5.729521e-01
5.729529e-01
5.729329e-01
5.729138e-01
5.728977e-01
5.728868e-01
5.728829e-01
5.728866e-01
5.728972e-01
5.729130e-01
5.729319e-01
5.729518e-01
5.731228e-01
5.721070e-01
0.000000e+00
1.000000e+00
5.731778e-01
5.730237e-01
5.730746e-01
5.730994e-01
5.731227e-01
5.731422e-01
5.731556e-01
5.731605e-01
5.731558e-01
5.731423e-01
5.731221e-01
5.730980e-01
5.730727e-01
5.732822e-01
5.724381e-01
0.000000e+00
1.000000e+00
5.732889e-01
5.731125e-01
5.732445e-01
5.733330e-01
5.734164e-01
5.734864e-01
5.735338e-01
5.735508e-01
5.735343e-01
5.734866e-01
5.734155e-01
5.733312e-01
5.732454e-01
5.735045e-01
5.722584e-01
0.000000e+00
1.000000e+00
5.733383e-01
5.732374e-01
5.734495e-01
5.736135e-01
5.737694e-01
5.739005e-01
5.739892e-01
5.740212e-01
5.739914e-01
5.739037e-01
5.737720e-01
5.736152e-01
5.734515e-01
5.735182e-01
5.718281e-01
0.000000e+00
1.000000e+00
5.740120e-01
5.749201e-01
5.759678e-01
5.770353e-01
5.781051e-01
5.790687e-01
5.797951e-01
5.801456e-01
5.800212e-01
5.795139e-01
5.786925e-01
5.776202e-01
5.763887e-01
5.750997e-01
5.738133e-01
0.000000e+00
1.000000e+00
5.739480e-01
5.748558e-01
5.758637e-01
5.768403e-01
5.778069e-01
5.787018e-01
5.793923e-01
5.797172e-01
5.795476e-01
5.791165e-01
5.783438e-01
5.772627e-01
5.760435e-01
5.748995e-01
5.736754e-01
0.000000e+00
1.000000e+00
5.738731e-01
5.746936e-01
5.756373e-01
5.765662e-01
5.774348e-01
5.782097e-01
5.788204e-01
5.791374e-01
5.789757e-01
5.785983e-01
5.777919e-01
5.767612e-01
5.757010e-01
5.747319e-01
5.735990e-01
0.000000e+00
1.000000e+00
5.737869e-01
5.744883e-01
5.753324e-01
5.761814e-01
5.769840e-01
5.776615e-01
5.781446e-01
5.783820e-01
5.783422e-01
5.779276e-01
5.771954e-01
5.763315e-01
5.754269e-01
5.745645e-01
5.735230e-01
0.000000e+00
1.000000e+00
5.736851e-01
5.742671e-01
5.749923e-01
5.757224e-01
5.764186e-01
5.770098e-01
5.774156e-01
5.775994e-01
5.775536e-01
5.771656e-01
5.765619e-01
5.758378e-01
5.750654e-01
5.743346e-01
5.734146e-01
0.000000e+00
1.000000e+00
5.735782e-01
5.740344e-01
5.746296e-01
5.752258e-01
5.757943e-01
5.762784e-01
5.766165e-01
5.767619e-01
5.766590e-01
5.763707e-01
5.758879e-01
5.753003e-01
5.746769e-01
5.740944e-01
5.732955e-01
0.000000e+00
1.000000e+00
5.734735e-01
5.737951e-01
5.742554e-01
5.747139e-01
5.751502e-01
5.755202e-01
5.757762e-01
5.758800e-01
5.757840e-01
5.755634e-01
5.752057e-01
5.747584e-01
5.742824e-01
5.738482e-01
5.731773e-01
0.000000e+00
1.000000e+00
5.733753e-01
5.735634e-01
5.738911e-01
5.742166e-01
5.745270e-01
5.747897e-01
5.749689e-01
5.750366e-01
5.749703e-01
5.748027e-01
5.745552e-01
5.742450e-01
5.739095e-01
5.736157e-01
5.730563e-01
0.000000e+00
1.000000e+00
5.732958e-01
5.733634e-01
5.735691e-01
5.737765e-01
5.739743e-01
5.741391e-01
5.742496e-01
5.742888e-01
5.742481e-01
5.741368e-01
5.739775e-01
5.737858e-01
5.735767e-01
5.734071e-01
5.729738e-01
0.000000e+00
1.000000e+00
5.732539e-01
5.731974e-01
5.733062e-01
5.734171e-01
5.735210e-01
5.736075e-01
5.736655e-01
5.736849e-01
5.736629e-01
5.736025e-01
5.735147e-01
5.734116e-01
5.733035e-01
5.732381e-01
5.728465e-01
0.000000e+00
1.000000e+00
5.732034e-01
5.730472e-01
5.731098e-01
5.731511e-01
5.731899e-01
5.732221e-01
5.732443e-01
5.732523e-01
5.732453e-01
5.732239e-01
5.731924e-01
5.731550e-01
5.731148e-01
5.731009e-01
5.729028e-01
0.000000e+00
1.000000e+00
5.731124e-01
5.729815e-01
5.730127e-01
5.730137e-01
5.730140e-01
5.730142e-01
5.730143e-01
5.730144e-01
5.730141e-01
5.730134e-01
5.730122e-01
5.730108e-01
5.730091e-01
5.730424e-01
5.725198e-01
0.000000e+00
1.000000e+00
5.730449e-01
5.729808e-01
5.729879e-01
5.729807e-01
5.729738e-01
5.729679e-01
5.729639e-01
5.729626e-01
5.729639e-01
5.729677e-01
5.729732e-01
5.729797e-01
5.729864e-01
5.730957e-01
5.720341e-01
0.000000e+00
1.000000e+00
5.731282e-01
5.730228e-01
5.730442e-01
5.730576e-01
5.730700e-01
5.730802e-01
5.730870e-01
5.730892e-01
5.730863e-01
5.730788e-01
5.730679e-01
5.730551e-01
5.730414e-01
5.732553e-01
5.720107e-01
0.000000e+00
1.000000e+00
5.733394e-01
5.730760e-01
5.731642e-01
5.732213e-01
5.732758e-01
5.733220e-01
5.733532e-01
5.733643e-01
5.733530e-01
5.733215e-01
5.732742e-01
5.732175e-01
5.731599e-01
5.735039e-01
5.721764e-01
0.000000e+00
1.000000e+00
5.733572e-01
5.731651e-01
5.733346e-01
5.734559e-01
5.735699e-01
5.736657e-01
5.737299e-01
5.737520e-01
5.737283e-01
5.736624e-01
5.735637e-01
5.734485e-01
5.733349e-01
5.736156e-01
5.719001e-01
0.000000e+00
1.000000e+00
5.733527e-01
5.732944e-01
5.735355e-01
5.737309e-01
5.739163e-01
5.740729e-01
5.741804e-01
5.742211e-01
5.741879e-01
5.740846e-01
5.739286e-01
5.737427e-01
5.735477e-01
5.734360e-01
5.722918e-01
0.000000e+00
1.000000e+00
5.740133e-01
5.749231e-01
5.759702e-01
5.770422e-01
5.781199e-01
5.790883e-01
5.798156e-01
5.801688e-01
5.800498e-01
5.795343e-01
5.787075e-01
5.776466e-01
5.764322e-01
5.751141e-01
5.737986e-01
0.000000e+00
1.000000e+00
5.739502e-01
5.748792e-01
5.758883e-01
5.768683e-01
5.778447e-01
5.787531e-01
5.794503e-01
5.797758e-01
5.796064e-01
5.791649e-01
5.783923e-01
5.773066e-01
5.760708e-01
5.749059e-01
5.736759e-01
0.000000e+00
1.000000e+00
5.738787e-01
5.747203e-01
5.756740e-01
5.766126e-01
5.774904e-01
5.782793e-01
5.789050e-01
5.792265e-01
5.790570e-01
5.786790e-01
5.778660e-01
5.768167e-01
5.757377e-01
5.747514e-01
5.736094e-01
0.000000e+00
1.000000e+00
5.737963e-01
5.745186e-01
5.753775e-01
5.762425e-01
5.770584e-01
5.777467e-01
5.782419e-01
5.784946e-01
5.784439e-01
5.780301e-01
5.772815e-01
5.763986e-01
5.754755e-01
5.745944e-01
5.735338e-01
0.000000e+00
1.000000e+00
5.736993e-01
5.742987e-01
5.750416e-01
5.757904e-01
5.765045e-01
5.771103e-01
5.775257e-01
5.777168e-01
5.776702e-01
5.772780e-01
5.766575e-01
5.759135e-01
5.751200e-01
5.743686e-01
5.734259e-01
0.000000e+00
1.000000e+00
5.735915e-01
5.740676e-01
5.746818e-01
5.752984e-01
5.758859e-01
5.763861e-01
5.767358e-01
5.768825e-01
5.767794e-01
5.764805e-01
5.759833e-01
5.753761e-01
5.747316e-01
5.741300e-01
5.733041e-01
0.000000e+00
1.000000e+00
5.734826e-01
5.738297e-01
5.743065e-01
5.747847e-01
5.752391e-01
5.756241e-01
5.758891e-01
5.759940e-01
5.758943e-01
5.756625e-01
5.752916e-01
5.748274e-01
5.743326e-01
5.738820e-01
5.731884e-01
0.000000e+00
1.000000e+00
5.733820e-01
5.735940e-01
5.739359e-01
5.742786e-01
5.746055e-01
5.748810e-01
5.750680e-01
5.751378e-01
5.750684e-01
5.748909e-01
5.746303e-01
5.743046e-01
5.739529e-01
5.736459e-01
5.730589e-01
0.000000e+00
1.000000e+00
5.732991e-01
5.733902e-01
5.736056e-01
5.738286e-01
5.740394e-01
5.742151e-01
5.743322e-01
5.743737e-01
5.743297e-01
5.742107e-01
5.740411e-01
5.738374e-01
5.736140e-01
5.734307e-01
5.729785e-01
0.000000e+00
1.000000e+00
5.732764e-01
5.732305e-01
5.733393e-01
5.734598e-01
5.735731e-01
5.736683e-01
5.737315e-01
5.737528e-01
5.737277e-01
5.736616e-01
5.735674e-01
5.734565e-01
5.733348e-01
5.732566e-01
5.728635e-01
0.000000e+00
1.000000e+00
5.732126e-01
5.730866e-01
5.731381e-01
5.731867e-01
5.732330e-01
5.732719e-01
5.732980e-01
5.733073e-01
5.732978e-01
5.732716e-01
5.732330e-01
5.731875e-01
5.731388e-01
5.731165e-01
5.728676e-01
0.000000e+00
1.000000e+00
5.730745e-01
5.730098e-01
5.730306e-01
5.730388e-01
5.730464e-01
5.730528e-01
5.730571e-01
5.730584e-01
5.730564e-01
5.730516e-01
5.730449e-01
5.730376e-01
5.730297e-01
5.730668e-01
5.725337e-01
0.000000e+00
1.000000e+00
5.729897e-01
5.730044e-01
5.730059e-01
5.730056e-01
5.730051e-01
5.730047e-01
5.730043e-01
5.730042e-01
5.730041e-01
5.730042e-01
5.730043e-01
5.730046e-01
5.730054e-01
5.731580e-01
5.720248e-01
0.000000e+00
1.000000e+00
5.730902e-01
5.730477e-01
5.730625e-01
5.730827e-01
5.731015e-01
5.731167e-01
5.731269e-01
5.731304e-01
5.731263e-01
5.731153e-01
5.730990e-01
5.730795e-01
5.730603e-01
5.733565e-01
5.719047e-01
0.000000e+00
1.000000e+00
5.733692e-01
5.730995e-01
5.731825e-01
5.732452e-01
5.733064e-01
5.733585e-01
5.733928e-01
5.734043e-01
5.733910e-01
5.733556e-01
5.733021e-01
5.732383e-01
5.731756e-01
5.736189e-01
5.720860e-01
0.000000e+00
1.000000e+00
5.733873e-01
5.731979e-01
5.733543e-01
5.734803e-01
5.736011e-01
5.737043e-01
5.737734e-01
5.737974e-01
5.737724e-01
5.737034e-01
5.735992e-01
5.734767e-01
5.733534e-01
5.736500e-01
5.717891e-01
0.000000e+00
1.000000e+00
5.733702e-01
5.733128e-01
5.735583e-01
5.737602e-01
5.739518e-01
5.741151e-01
5.742284e-01
5.742728e-01
5.742398e-01
5.741335e-01
5.739720e-01
5.737791e-01
5.735747e-01
5.734287e-01
5.724444e-01
0.000000e+00
1.000000e+00
5.739836e-01
5.748943e-01
5.759114e-01
5.769563e-01
5.780061e-01
5.789533e-01
5.796657e-01
5.800110e-01
5.798977e-01
5.793967e-01
5.785870e-01
5.775377e-01
5.763499e-01
5.750718e-01
5.737798e-01
0.000000e+00
1.000000e+00
5.739266e-01
5.748475e-01
5.758379e-01
5.768004e-01
5.777538e-01
5.786385e-01
5.793188e-01
5.796406e-01
5.794752e-01
5.790415e-01
5.782740e-01
5.772074e-01
5.760042e-01
5.748655e-01
5.736507e-01
0.000000e+00
1.000000e+00
5.738603e-01
5.746878e-01
5.756268e-01
5.765531e-01
5.774190e-01
5.781884e-01
5.787910e-01
5.791030e-01
5.789447e-01
5.785645e-01
5.777624e-01
5.767400e-01
5.756864e-01
5.747186e-01
5.735902e-01
0.000000e+00
1.000000e+00
5.737756e-01
5.744918e-01
5.753357e-01
5.761879e-01
5.769922e-01
5.776701e-01
5.781481e-01
5.783817e-01
5.783388e-01
5.779252e-01
5.771913e-01
5.763291e-01
5.754260e-01
5.745648e-01
5.735167e-01
0.000000e+00
1.000000e+00
5.736778e-01
5.742741e-01
5.750000e-01
5.757342e-01
5.764340e-01
5.770286e-01
5.774405e-01
5.776192e-01
5.775694e-01
5.771812e-01
5.765765e-01
5.758496e-01
5.750742e-01
5.743421e-01
5.734059e-01
0.000000e+00
1.000000e+00
5.735737e-01
5.740406e-01
5.746390e-01
5.752405e-01
5.758145e-01
5.763039e-01
5.766462e-01
5.767839e-01
5.766759e-01
5.763854e-01
5.759071e-01
5.753166e-01
5.746881e-01
5.741053e-01
5.732887e-01
0.000000e+00
1.000000e+00
5.734653e-01
5.738024e-01
5.742639e-01
5.747276e-01
5.751691e-01
5.755411e-01
5.757939e-01
5.758876e-01
5.757912e-01
5.755599e-01
5.752060e-01
5.747625e-01
5.742858e-01
5.738554e-01
5.731733e-01
0.000000e+00
1.000000e+00
5.733642e-01
5.735652e-01
5.738908e-01
5.742190e-01
5.745299e-01
5.747884e-01
5.749614e-01
5.750223e-01
5.749557e-01
5.747816e-01
5.745332e-01
5.742290e-01
5.738992e-01
5.736148e-01
5.730486e-01
0.000000e+00
1.000000e+00
5.733009e-01
5.733595e-01
5.735555e-01
5.737582e-01
5.739488e-01
5.741078e-01
5.742134e-01
5.742494e-01
5.742080e-01
5.740976e-01
5.739425e-01
5.737571e-01
5.735546e-01
5.733947e-01
5.729550e-01
0.000000e+00
1.000000e+00
5.732276e-01
5.731875e-01
5.732759e-01
5.733745e-01
5.734683e-01
5.735472e-01
5.736002e-01
5.736186e-01
5.735987e-01
5.735441e-01
5.734656e-01
5.733733e-01
5.732742e-01
5.732143e-01
5.728539e-01
0.000000e+00
1.000000e+00
5.730644e-01
5.730546e-01
5.730754e-01
5.731008e-01
5.731248e-01
5.731447e-01
5.731581e-01
5.731626e-01
5.731573e-01
5.731433e-01
5.731228e-01
5.730991e-01
5.730743e-01
5.730891e-01
5.728448e-01
0.000000e+00
1.000000e+00
5.729764e-01
5.729835e-01
5.729642e-01
5.729481e-01
5.729326e-01
5.729195e-01
5.729106e-01
5.729072e-01
5.729098e-01
5.729181e-01
5.729308e-01
5.729463e-01
5.729627e-01
5.730667e-01
5.725011e-01
0.000000e+00
1.000000e+00
5.729638e-01
5.729689e-01
5.729407e-01
5.729162e-01
5.728929e-01
5.728731e-01
5.728598e-01
5.728548e-01
5.728592e-01
5.728722e-01
5.728916e-01
5.729149e-01
5.729396e-01
5.731652e-01
5.720051e-01
0.000000e+00
1.000000e+00
5.729955e-01
5.730100e-01
5.729987e-01
5.729955e-01
5.729922e-01
5.729892e-01
5.729872e-01
5.729864e-01
5.729868e-01
5.729884e-01
5.729908e-01
5.729938e-01
5.729972e-01
5.732981e-01
5.718686e-01
0.000000e+00
1.000000e+00
5.731900e-01
5.730840e-01
5.731244e-01
5.731669e-01
5.732073e-01
5.732414e-01
5.732644e-01
5.732724e-01
5.732639e-01
5.732404e-01
5.732054e-01
5.731634e-01
5.731206e-01
5.734808e-01
5.720996e-01
0.000000e+00
1.000000e+00
5.733525e-01
5.731776e-01
5.733013e-01
5.734099e-01
5.735128e-01
5.735991e-01
5.736568e-01
5.736763e-01
5.736550e-01
5.735962e-01
5.735085e-01
5.734054e-01
5.733019e-01
5.735589e-01
5.718017e-01
0.000000e+00
1.000000e+00
5.733778e-01
5.732947e-01
5.735105e-01
5.736946e-01
5.738706e-01
5.740201e-01
5.741232e-01
5.741624e-01
5.741314e-01
5.740335e-01
5.738851e-01
5.737078e-01
5.735211e-01
5.734014e-01
5.725980e-01
0.000000e+00
1.000000e+00
5.739277e-01
5.748181e-01
5.757915e-01
5.767818e-01
5.777693e-01
5.786665e-01
5.793469e-01
5.796739e-01
5.795625e-01
5.790966e-01
5.783278e-01
5.773059e-01
5.761530e-01
5.749502e-01
5.737560e-01
0.000000e+00
1.000000e+00
5.738779e-01
5.747556e-01
5.757047e-01
5.766302e-01
5.775333e-01
5.783595e-01
5.789967e-01
5.793064e-01
5.791555e-01
5.787414e-01
5.779874e-01
5.769684e-01
5.758422e-01
5.747770e-01
5.736128e-01
0.000000e+00
1.000000e+00
5.738108e-01
5.745966e-01
5.754901e-01
5.763811e-01
5.772147e-01
5.779361e-01
5.784781e-01
5.787460e-01
5.786535e-01
5.782536e-01
5.774886e-01
5.765344e-01
5.755468e-01
5.746319e-01
5.735462e-01
0.000000e+00
1.000000e+00
5.737256e-01
5.744074e-01
5.752052e-01
5.760117e-01
5.767745e-01
5.774169e-01
5.778630e-01
5.780676e-01
5.780211e-01
5.776128e-01
5.769300e-01
5.761254e-01
5.752790e-01
5.744753e-01
5.734786e-01
0.000000e+00
1.000000e+00
5.736280e-01
5.741905e-01
5.748688e-01
5.755549e-01
5.762088e-01
5.767662e-01
5.771557e-01
5.773155e-01
5.772275e-01
5.768729e-01
5.763194e-01
5.756453e-01
5.749263e-01
5.742529e-01
5.733666e-01
0.000000e+00
1.000000e+00
5.735216e-01
5.739541e-01
5.745002e-01
5.750528e-01
5.755818e-01
5.760316e-01
5.763415e-01
5.764570e-01
5.763479e-01
5.760753e-01
5.756462e-01
5.751129e-01
5.745413e-01
5.740169e-01
5.732442e-01
0.000000e+00
1.000000e+00
5.734126e-01
5.737102e-01
5.741211e-01
5.745366e-01
5.749317e-01
5.752608e-01
5.754800e-01
5.755556e-01
5.754703e-01
5.752546e-01
5.749416e-01
5.745560e-01
5.741376e-01
5.737645e-01
5.731300e-01
0.000000e+00
1.000000e+00
5.733332e-01
5.734759e-01
5.737486e-01
5.740246e-01
5.742833e-01
5.744967e-01
5.746383e-01
5.746856e-01
5.746280e-01
5.744780e-01
5.742700e-01
5.740202e-01
5.737472e-01
5.735182e-01
5.730052e-01
0.000000e+00
1.000000e+00
5.732357e-01
5.732700e-01
5.734037e-01
5.735492e-01
5.736870e-01
5.738030e-01
5.738810e-01
5.739080e-01
5.738787e-01
5.737980e-01
5.736820e-01
5.735461e-01
5.734011e-01
5.732945e-01
5.729199e-01
0.000000e+00
1.000000e+00
5.730449e-01
5.730900e-01
5.731211e-01
5.731634e-01
5.732031e-01
5.732364e-01
5.732586e-01
5.732662e-01
5.732578e-01
5.732347e-01
5.732011e-01
5.731614e-01
5.731194e-01
5.731150e-01
5.727979e-01
0.000000e+00
1.000000e+00
5.729349e-01
5.729597e-01
5.729203e-01
5.728881e-01
5.728573e-01
5.728313e-01
5.728136e-01
5.728071e-01
5.728128e-01
5.728298e-01
5.728553e-01
5.728860e-01
5.729183e-01
5.729921e-01
5.727209e-01
0.000000e+00
1.000000e+00
5.728956e-01
5.728888e-01
5.728097e-01
5.727368e-01
5.726672e-01
5.726087e-01
5.725690e-01
5.725546e-01
5.725681e-01
5.726070e-01
5.726650e-01
5.727344e-01
5.728076e-01
5.729602e-01
5.724179e-01
0.000000e+00
1.000000e+00
5.729022e-01
5.728765e-01
5.727894e-01
5.727089e-01
5.726324e-01
5.725679e-01
5.725243e-01
5.725086e-01
5.725236e-01
5.725665e-01
5.726305e-01
5.727070e-01
5.727876e-01
5.730193e-01
5.721140e-01
0.000000e+00
1.000000e+00
5.729445e-01
5.729155e-01
5.728516e-01
5.727942e-01
5.727396e-01
5.726936e-01
5.726625e-01
5.726513e-01
5.726620e-01
5.726927e-01
5.727384e-01
5.727930e-01
5.728505e-01
5.731202e-01
5.719769e-01
0.000000e+00
1.000000e+00
5.730114e-01
5.730002e-01
5.729838e-01
5.729751e-01
5.729667e-01
5.729595e-01
5.729547e-01
5.729529e-01
5.729544e-01
5.729589e-01
5.729658e-01
5.729742e-01
5.729830e-01
5.732447e-01
5.719591e-01
0.000000e+00
1.000000e+00
5.731874e-01
5.731085e-01
5.731694e-01
5.732291e-01
5.732857e-01
5.733332e-01
5.733653e-01