<?xml version="1.0"?>
<VTKFile type="StructuredGrid" version="0.1">
  <StructuredGrid WholeExtent="0 16 0 16 0 16">
    <Piece Extent="0 16 0 16 0 16">
      <PointData Scalars="temperature" Vectors="velocity">
        <DataArray type="Float32" Name="temperature" format="ascii">
1.000000e+00
5.726444e-01
5.722889e-01
5.718634e-01
5.714406e-01
5.710405e-01
5.707055e-01
5.704803e-01
5.704000e-01
5.704780e-01
5.707043e-01
5.710519e-01
5.716106e-01
5.720491e-01
5.733835e-01
5.681868e-01
0.000000e+00
1.000000e+00
5.734601e-01
5.738601e-01
5.743293e-01
5.748167e-01
5.752794e-01
5.756683e-01
5.759294e-01
5.760180e-01
5.759163e-01
5.756432e-01
5.752488e-01
5.749283e-01
5.745052e-01
5.747771e-01
5.699270e-01
0.000000e+00
1.000000e+00
5.744207e-01
5.757098e-01
5.772350e-01
5.787951e-01
5.802743e-01
5.815169e-01
5.823518e-01
5.826414e-01
5.823334e-01
5.814849e-01
5.802411e-01
5.788534e-01
5.774245e-01
5.766691e-01
5.695783e-01
0.000000e+00
1.000000e+00
5.755217e-01
5.778013e-01
5.805254e-01
5.833009e-01
5.859326e-01
5.881428e-01
5.896289e-01
5.901493e-01
5.896135e-01
5.881256e-01
5.859366e-01
5.833811e-01
5.807119e-01
5.788326e-01
5.703206e-01
0.000000e+00
1.000000e+00
5.767256e-01
5.800713e-01
5.841032e-01
5.881998e-01
5.920856e-01
5.953508e-01
5.975488e-01
5.983245e-01
5.975457e-01
5.953630e-01
5.921370e-01
5.883204e-01
5.842776e-01
5.809166e-01
5.720468e-01
0.000000e+00
1.000000e+00
5.779749e-01
5.824362e-01
5.878339e-01
5.933070e-01
5.984987e-01
6.028631e-01
6.058054e-01
6.068505e-01
6.058199e-01
6.029077e-01
5.985889e-01
5.934589e-01
5.880057e-01
5.830917e-01
5.735185e-01
0.000000e+00
1.000000e+00
5.792257e-01
5.847879e-01
5.915502e-01
5.983946e-01
6.048869e-01
6.103457e-01
6.140282e-01
6.153421e-01
6.140613e-01
6.104213e-01
6.050146e-01
5.985817e-01
5.917282e-01
5.851969e-01
5.762147e-01
0.000000e+00
1.000000e+00
5.804264e-01
5.870045e-01
5.950631e-01
6.032037e-01
6.109260e-01
6.174210e-01
6.218071e-01
6.233792e-01
6.218651e-01
6.175394e-01
6.111109e-01
6.034520e-01
5.952683e-01
5.873332e-01
5.781683e-01
0.000000e+00
1.000000e+00
5.815180e-01
5.889632e-01
5.981818e-01
6.074730e-01
6.162877e-01
6.237048e-01
6.287197e-01
6.305278e-01
6.288140e-01
6.238884e-01
6.165597e-01
6.078061e-01
5.984261e-01
5.892656e-01
5.797809e-01
0.000000e+00
1.000000e+00
5.824284e-01
5.905562e-01
6.007356e-01
6.109688e-01
6.206787e-01
6.288533e-01
6.343881e-01
6.363965e-01
6.345279e-01
6.291199e-01
6.210517e-01
6.113913e-01
6.010346e-01
5.908919e-01
5.810251e-01
0.000000e+00
1.000000e+00
5.831138e-01
5.917003e-01
6.025905e-01
6.135083e-01
6.238705e-01
6.325989e-01
6.385161e-01
6.406759e-01
6.387018e-01
6.329493e-01
6.243421e-01
6.140044e-01
6.029465e-01
5.920831e-01
5.815678e-01
0.000000e+00
1.000000e+00
5.835366e-01
5.923470e-01
6.036644e-01
6.149806e-01
6.257237e-01
6.347764e-01
6.409186e-01
6.431689e-01
6.411372e-01
6.351894e-01
6.262714e-01
6.155213e-01
6.040326e-01
5.927580e-01
5.817684e-01
0.000000e+00
1.000000e+00
5.836719e-01
5.924920e-01
6.039350e-01
6.153532e-01
6.261947e-01
6.353317e-01
6.415331e-01
6.438075e-01
6.417647e-01
6.357773e-01
6.267909e-01
6.159131e-01
6.042836e-01
5.929254e-01
5.818310e-01
0.000000e+00
1.000000e+00
5.835050e-01
5.921762e-01
6.034357e-01
6.146673e-01
6.253300e-01
6.343157e-01
6.404176e-01
6.426580e-01
6.406477e-01
6.347714e-01
6.259378e-01
6.152089e-01
6.037427e-01
5.926035e-01
5.817840e-01
0.000000e+00
1.000000e+00
5.830956e-01
5.914285e-01
6.022231e-01
6.130032e-01
6.232407e-01
6.318716e-01
6.377355e-01
6.398932e-01
6.379529e-01
6.323224e-01
6.238444e-01
6.135293e-01
6.025271e-01
5.918165e-01
5.814249e-01
0.000000e+00
1.000000e+00
5.825592e-01
5.902472e-01
6.004068e-01
6.105219e-01
6.201283e-01
6.282252e-01
6.337231e-01
6.357442e-01
6.339230e-01
6.286489e-01
6.207052e-01
6.110322e-01
6.007280e-01
5.906417e-01
5.810465e-01
0.000000e+00
1.000000e+00
5.817299e-01
5.887871e-01
5.981159e-01
6.073869e-01
6.161907e-01
6.236091e-01
6.286429e-01
6.304887e-01
6.288265e-01
6.240001e-01
6.167289e-01
6.078739e-01
5.984662e-01
5.891605e-01
5.803655e-01
0.000000e+00
1.000000e+00
5.733718e-01
5.736988e-01
5.740780e-01
5.744725e-01
5.748468e-01
5.751613e-01
5.753722e-01
5.754436e-01
5.753611e-01
5.751404e-01
5.748229e-01
5.745758e-01
5.742233e-01
5.746067e-01
5.681141e-01
0.000000e+00
1.000000e+00
5.742176e-01
5.753124e-01
5.766130e-01
5.779433e-01
5.792046e-01
5.802639e-01
5.809756e-01
5.812227e-01
5.809599e-01
5.802357e-01
5.791724e-01
5.779979e-01
5.767771e-01
5.757161e-01
5.728789e-01
0.000000e+00
1.000000e+00
5.752114e-01
5.772082e-01
5.795951e-01
5.820267e-01
5.843320e-01
5.862681e-01
5.875698e-01
5.880258e-01
5.875559e-01
5.862503e-01
5.843278e-01
5.820878e-01
5.797841e-01
5.776558e-01
5.730247e-01
0.000000e+00
1.000000e+00
5.763432e-01
5.793476e-01
5.829645e-01
5.866405e-01
5.901267e-01
5.930556e-01
5.950270e-01
5.957224e-01
5.950223e-01
5.930611e-01
5.901640e-01
5.867442e-01
5.831504e-01
5.797321e-01
5.744278e-01
0.000000e+00
1.000000e+00
5.775678e-01
5.816633e-01
5.866172e-01
5.916410e-01
5.964060e-01
6.004113e-01
6.031106e-01
6.040681e-01
6.031201e-01
6.004451e-01
5.964795e-01
5.917801e-01
5.868108e-01
5.819967e-01
5.763038e-01
0.000000e+00
1.000000e+00
5.788389e-01
5.840632e-01
5.904067e-01
5.968286e-01
6.029198e-01
6.080407e-01
6.114943e-01
6.127249e-01
6.115207e-01
6.081029e-01
6.030275e-01
5.970089e-01
5.906152e-01
5.843814e-01
5.771660e-01
0.000000e+00
1.000000e+00
5.801110e-01
5.864273e-01
5.941491e-01
6.019519e-01
6.093531e-01
6.155770e-01
6.197783e-01
6.212815e-01
6.198263e-01
6.156762e-01
6.095101e-01
6.021955e-01
5.943864e-01
5.867104e-01
5.788627e-01
0.000000e+00
1.000000e+00
5.813221e-01
5.886235e-01
5.976395e-01
6.067296e-01
6.153527e-01
6.226070e-01
6.275096e-01
6.292734e-01
6.275913e-01
6.227666e-01
6.155916e-01
6.070636e-01
5.979265e-01
5.889448e-01
5.801255e-01
0.000000e+00
1.000000e+00
5.824038e-01
5.905190e-01
6.006729e-01
6.108814e-01
6.205668e-01
6.287194e-01
6.342376e-01
6.362371e-01
6.343691e-01
6.289689e-01
6.209184e-01
6.113127e-01
6.010275e-01
5.908797e-01
5.810468e-01
0.000000e+00
1.000000e+00
5.832902e-01
5.919987e-01
6.030679e-01
6.141596e-01
6.246862e-01
6.335530e-01
6.395648e-01
6.417602e-01
6.397552e-01
6.339064e-01
6.251580e-01
6.146811e-01
6.035013e-01
5.924063e-01
5.817267e-01
0.000000e+00
1.000000e+00
5.839357e-01
5.929750e-01
6.046878e-01
6.163793e-01
6.274798e-01
6.368368e-01
6.431900e-01
6.455244e-01
6.434315e-01
6.372808e-01
6.280587e-01
6.169866e-01
6.051686e-01
5.934375e-01
5.821855e-01
0.000000e+00
1.000000e+00
5.843049e-01
5.934006e-01
6.054575e-01
6.174399e-01
6.288208e-01
6.384176e-01
6.449378e-01
6.473408e-01
6.452085e-01
6.389182e-01
6.294790e-01
6.181099e-01
6.059319e-01
5.939333e-01
5.823358e-01
0.000000e+00
1.000000e+00
5.843698e-01
5.932814e-01
6.053692e-01
6.173281e-01
6.286871e-01
6.382654e-01
6.447735e-01
6.471722e-01
6.450498e-01
6.387885e-01
6.293883e-01
6.180215e-01
6.058122e-01
5.938727e-01
5.823157e-01
0.000000e+00
1.000000e+00
5.841216e-01
5.926877e-01
6.044763e-01
6.161068e-01
6.271526e-01
6.364669e-01
6.427977e-01
6.451303e-01
6.430625e-01
6.369893e-01
6.278572e-01
6.167710e-01
6.048869e-01
5.932860e-01
5.823556e-01
0.000000e+00
1.000000e+00
5.836146e-01
5.916659e-01
6.028632e-01
6.138988e-01
6.243791e-01
6.332155e-01
6.392216e-01
6.414362e-01
6.394646e-01
6.337164e-01
6.250548e-01
6.145197e-01
6.032673e-01
5.922519e-01
5.819037e-01
0.000000e+00
1.000000e+00
5.828359e-01
5.903031e-01
6.006618e-01
6.108819e-01
6.205866e-01
6.287659e-01
6.343211e-01
6.363680e-01
6.345416e-01
6.292231e-01
6.212024e-01
6.114461e-01
6.010664e-01
5.908427e-01
5.812828e-01
0.000000e+00
1.000000e+00
5.817787e-01
5.886921e-01
5.980060e-01
6.072398e-01
6.160066e-01
6.233923e-01
6.284029e-01
6.302432e-01
6.285985e-01
6.237870e-01
6.165321e-01
6.077242e-01
5.983694e-01
5.891617e-01
5.811898e-01
0.000000e+00
1.000000e+00
5.740021e-01
5.749095e-01
5.759817e-01
5.770789e-01
5.781190e-01
5.789923e-01
5.795791e-01
5.797828e-01
5.795661e-01
5.789685e-01
5.780924e-01
5.771261e-01
5.760958e-01
5.755430e-01
5.694068e-01
0.000000e+00
1.000000e+00
5.748700e-01
5.765490e-01
5.785601e-01
5.806093e-01
5.825520e-01
5.841834e-01
5.852804e-01
5.856648e-01
5.852686e-01
5.841667e-01
5.825421e-01
5.806497e-01
5.787093e-01
5.767962e-01
5.739465e-01
0.000000e+00
1.000000e+00
5.758863e-01
5.784731e-01
5.815902e-01
5.847584e-01
5.877625e-01
5.902863e-01
5.919848e-01
5.925836e-01
5.919795e-01
5.902868e-01
5.877848e-01
5.848357e-01
5.817671e-01
5.787974e-01
5.741793e-01
0.000000e+00
1.000000e+00
5.770353e-01
5.806412e-01
5.850093e-01
5.894395e-01
5.936411e-01
5.971722e-01
5.995514e-01
6.003949e-01
5.995580e-01
5.971969e-01
5.936969e-01
5.895592e-01
5.852002e-01
5.809136e-01
5.754993e-01
0.000000e+00
1.000000e+00
5.782748e-01
5.829838e-01
5.887067e-01
5.945013e-01
5.999970e-01
6.046166e-01
6.077318e-01
6.088408e-01
6.077531e-01
6.046672e-01
6.000833e-01
5.946653e-01
5.889234e-01
5.832648e-01
5.771401e-01
0.000000e+00
1.000000e+00
5.795637e-01
5.853979e-01
5.925242e-01
5.997271e-01
6.065590e-01
6.123034e-01
6.161802e-01
6.175656e-01
6.162199e-01
6.123853e-01
6.066872e-01
5.999529e-01
5.927711e-01
5.856969e-01
5.781466e-01
0.000000e+00
1.000000e+00
5.808501e-01
5.877546e-01
5.962636e-01
6.048460e-01
6.129866e-01
6.198340e-01
6.244596e-01
6.261205e-01
6.245275e-01
6.199676e-01
6.131888e-01
6.051603e-01
5.965547e-01
5.880658e-01
5.796186e-01
0.000000e+00
1.000000e+00
5.820637e-01
5.899111e-01
5.997051e-01
6.095564e-01
6.189018e-01
6.267662e-01
6.320863e-01
6.340096e-01
6.322007e-01
6.269864e-01
6.192194e-01
6.099730e-01
6.000671e-01
5.902698e-01
5.806978e-01
0.000000e+00
1.000000e+00
5.831322e-01
5.917258e-01
6.026303e-01
6.135598e-01
6.239308e-01
6.326645e-01
6.385833e-01
6.407418e-01
6.387624e-01
6.329994e-01
6.243879e-01
6.140916e-01
6.030407e-01
5.921313e-01
5.815454e-01
0.000000e+00
1.000000e+00
5.839899e-01
5.930756e-01
6.048493e-01
6.165983e-01
6.277520e-01
6.371531e-01
6.435363e-01
6.458828e-01
6.437808e-01
6.375999e-01
6.283382e-01
6.172304e-01
6.053069e-01
5.935435e-01
5.821990e-01
0.000000e+00
1.000000e+00
5.845915e-01
5.938681e-01
6.062249e-01
6.184887e-01
6.301370e-01
6.399612e-01
6.466391e-01
6.491058e-01
6.469284e-01
6.404862e-01
6.308143e-01
6.191820e-01
6.067308e-01
5.944375e-01
5.825852e-01
0.000000e+00
1.000000e+00
5.848989e-01
5.940561e-01
6.066928e-01
6.191442e-01
6.309717e-01
6.409471e-01
6.477284e-01
6.502357e-01
6.480329e-01
6.415070e-01
6.317054e-01
6.198739e-01
6.072195e-01
5.947497e-01
5.827320e-01
0.000000e+00
1.000000e+00
5.848681e-01
5.936611e-01
6.062641e-01
6.185711e-01
6.302551e-01
6.401063e-01
6.468008e-01
6.492712e-01
6.470955e-01
6.406675e-01
6.310127e-01
6.193227e-01
6.067943e-01
5.944612e-01
5.828038e-01
0.000000e+00
1.000000e+00
5.844879e-01
5.928049e-01
6.050078e-01
6.168497e-01
6.280885e-01
6.375632e-01
6.440023e-01
6.463753e-01
6.442716e-01
6.381065e-01
6.288386e-01
6.175777e-01
6.055080e-01
5.936436e-01
5.828286e-01
0.000000e+00
1.000000e+00
5.838141e-01
5.915790e-01
6.030226e-01
6.141278e-01
6.246674e-01
6.335519e-01
6.395891e-01
6.418149e-01
6.398296e-01
6.340586e-01
6.253750e-01
6.147955e-01
6.034707e-01
5.923852e-01
5.821901e-01
0.000000e+00
1.000000e+00
5.827974e-01
5.901041e-01
6.004616e-01
6.106121e-01
6.202477e-01
6.283677e-01
6.338810e-01
6.359107e-01
6.340968e-01
6.288167e-01
6.208763e-01
6.111970e-01
6.008822e-01
5.907874e-01
5.815944e-01
0.000000e+00
1.000000e+00
5.815826e-01
5.883497e-01
5.974727e-01
6.065106e-01
6.150908e-01
6.223188e-01
6.272210e-01
6.290200e-01
6.274113e-01
6.226995e-01
6.156160e-01
6.070007e-01
5.978532e-01
5.889801e-01
5.815075e-01
0.000000e+00
1.000000e+00
5.744922e-01
5.758408e-01
5.774484e-01
5.790870e-01
5.806403e-01
5.819447e-01
5.828218e-01
5.831290e-01
5.828118e-01
5.819289e-01
5.806279e-01
5.791141e-01
5.775550e-01
5.762186e-01
5.713072e-01
0.000000e+00
1.000000e+00
5.753696e-01
5.774824e-01
5.800323e-01
5.826252e-01
5.850835e-01
5.871484e-01
5.885380e-01
5.890278e-01
5.885326e-01
5.871449e-01
5.850926e-01
5.826764e-01
5.801727e-01
5.776218e-01
5.750700e-01
0.000000e+00
1.000000e+00
5.763939e-01
5.794090e-01
5.830697e-01
5.867838e-01
5.903058e-01
5.932655e-01
5.952592e-01
5.959654e-01
5.952622e-01
5.932804e-01
5.903415e-01
5.868765e-01
5.832451e-01
5.796845e-01
5.751129e-01
0.000000e+00
1.000000e+00
5.775442e-01
5.815808e-01
5.864968e-01
5.914756e-01
5.961974e-01
6.001662e-01
6.028418e-01
6.037935e-01
6.028574e-01
6.002038e-01
5.962609e-01
5.916130e-01
5.867008e-01
5.818246e-01
5.762181e-01
0.000000e+00
1.000000e+00
5.787859e-01
5.839230e-01
5.901968e-01
5.965410e-01
6.025580e-01
6.076167e-01
6.110297e-01
6.122481e-01
6.110606e-01
6.076804e-01
6.026564e-01
5.967362e-01
5.904320e-01
5.841944e-01
5.776711e-01
0.000000e+00
1.000000e+00
5.800804e-01
5.863259e-01
5.940020e-01
6.017500e-01
6.090989e-01
6.152791e-01
6.194524e-01
6.209477e-01
6.195048e-01
6.153828e-01
6.092618e-01
6.020236e-01
5.942772e-01
5.866241e-01
5.787806e-01
0.000000e+00
1.000000e+00
5.813667e-01
5.886527e-01
5.977029e-01
6.068156e-01
6.154598e-01
6.227321e-01
6.276482e-01
6.294192e-01
6.277370e-01
6.229084e-01
6.157291e-01
6.071891e-01
5.980339e-01
5.889823e-01
5.800409e-01
0.000000e+00
1.000000e+00
5.825707e-01
5.907512e-01
6.010667e-01
6.114195e-01
6.212414e-01
6.295094e-01
6.351076e-01
6.371405e-01
6.352559e-01
6.297975e-01
6.216495e-01
6.118953e-01
6.014715e-01
5.911301e-01
5.810539e-01
0.000000e+00
1.000000e+00
5.836184e-01
5.924718e-01
6.038640e-01
6.152482e-01
6.260527e-01
6.351554e-01
6.413314e-01
6.435954e-01
6.415542e-01
6.355726e-01
6.266020e-01
6.158363e-01
6.043216e-01
5.929135e-01
5.818773e-01
0.000000e+00
1.000000e+00
5.844419e-01
5.936839e-01
6.058984e-01
6.180371e-01
6.295639e-01
6.392842e-01
6.458908e-01
6.483311e-01
6.461783e-01
6.398073e-01
6.302319e-01
6.187225e-01
6.063995e-01
5.942203e-01
5.824191e-01
0.000000e+00
1.000000e+00
5.850021e-01
5.942871e-01
6.070351e-01
6.196071e-01
6.315504e-01
6.416254e-01
6.484779e-01
6.510166e-01
6.487984e-01
6.422069e-01
6.322925e-01
6.203363e-01
6.075644e-01
5.949906e-01
5.828260e-01
0.000000e+00
1.000000e+00
5.852673e-01
5.942229e-01
6.072227e-01
6.198858e-01
6.319095e-01
6.420490e-01
6.489429e-01
6.514950e-01
6.492647e-01
6.426433e-01
6.326872e-01
6.206334e-01
6.077959e-01
5.951486e-01
5.831286e-01
0.000000e+00
1.000000e+00
5.851501e-01
5.935210e-01
6.064899e-01
6.188926e-01
6.306584e-01
6.405776e-01
6.473176e-01
6.498041e-01
6.476166e-01
6.411554e-01
6.314460e-01
6.196761e-01
6.070746e-01
5.946879e-01
5.831912e-01
0.000000e+00
1.000000e+00
5.846738e-01
5.924190e-01
6.049133e-01
6.167261e-01
6.279304e-01
6.373760e-01
6.437932e-01
6.461558e-01
6.440540e-01
6.379188e-01
6.287001e-01
6.174855e-01
6.054425e-01
5.936970e-01
5.830729e-01
0.000000e+00
1.000000e+00
5.837584e-01
5.911506e-01
6.026086e-01
6.135630e-01
6.239557e-01
6.327159e-01
6.386664e-01
6.408563e-01
6.388926e-01
6.332060e-01
6.246689e-01
6.142502e-01
6.030761e-01
5.922457e-01
5.824224e-01
0.000000e+00
1.000000e+00
5.825225e-01
5.896530e-01
5.997486e-01
6.096352e-01
6.190190e-01
6.269262e-01
6.322929e-01
6.342632e-01
6.324936e-01
6.273463e-01
6.196387e-01
6.102210e-01
6.001862e-01
5.904704e-01
5.818525e-01
0.000000e+00
1.000000e+00
5.812051e-01
5.877572e-01
5.964923e-01
6.051679e-01
6.134037e-01
6.203406e-01
6.250436e-01
6.267641e-01
6.252169e-01
6.206880e-01
6.139043e-01
6.056383e-01
5.968739e-01
5.883735e-01
5.811635e-01
0.000000e+00
1.000000e+00
5.748002e-01
5.764161e-01
5.783555e-01
5.803289e-01
5.821998e-01
5.837711e-01
5.848283e-01
5.852004e-01
5.848222e-01
5.837635e-01
5.821965e-01
5.803571e-01
5.784594e-01
5.766678e-01
5.724662e-01
0.000000e+00
1.000000e+00
5.756692e-01
5.780288e-01
5.808951e-01
5.838066e-01
5.865671e-01
5.888864e-01
5.904482e-01
5.910004e-01
5.904473e-01
5.888907e-01
5.865836e-01
5.838671e-01
5.810419e-01
5.781373e-01
5.756608e-01
0.000000e+00
1.000000e+00
5.766788e-01
5.799252e-01
5.838869e-01
5.879024e-01
5.917103e-01
5.949104e-01
5.970669e-01
5.978327e-01
5.970753e-01
5.949331e-01
5.917490e-01
5.880033e-01
5.840787e-01
5.801736e-01
5.758310e-01
0.000000e+00
1.000000e+00
5.778150e-01
5.820667e-01
5.872676e-01
5.925307e-01
5.975223e-01
6.017181e-01
6.045479e-01
6.055564e-01
6.045692e-01
6.017623e-01
5.975900e-01
5.926830e-01
5.874889e-01
5.822998e-01
5.768963e-01
0.000000e+00
1.000000e+00
5.790422e-01
5.843751e-01
5.909167e-01
5.975262e-01
6.037951e-01
6.090661e-01
6.126237e-01
6.138957e-01
6.126607e-01
6.091392e-01
6.039144e-01
5.977559e-01
5.911684e-01
5.846535e-01
5.780450e-01
0.000000e+00
1.000000e+00
5.803212e-01
5.867373e-01
5.946607e-01
6.026514e-01
6.102306e-01
6.166053e-01
6.209115e-01
6.224569e-01
6.209727e-01
6.167291e-01
6.104447e-01
6.029694e-01
5.949520e-01
5.870473e-01
5.791464e-01
0.000000e+00
1.000000e+00
5.815885e-01
5.890105e-01
5.982822e-01
6.076082e-01
6.164550e-01
6.238988e-01
6.289329e-01
6.307503e-01
6.290369e-01
6.241130e-01
6.167987e-01
6.080291e-01
5.986145e-01
5.893605e-01
5.802141e-01
0.000000e+00
1.000000e+00
5.827674e-01
5.910364e-01
6.015395e-01
6.120665e-01
6.220543e-01
6.304637e-01
6.361602e-01
6.382349e-01
6.363317e-01
6.308047e-01
6.225387e-01
6.125832e-01
6.019399e-01
5.914235e-01
5.811704e-01
0.000000e+00
1.000000e+00
5.837781e-01
5.926604e-01
6.041959e-01
6.157033e-01
6.266259e-01
6.358303e-01
6.420786e-01
6.443761e-01
6.423275e-01
6.363040e-01
6.272352e-01
6.163064e-01
6.046953e-01
5.931004e-01
5.819758e-01
0.000000e+00
1.000000e+00
5.845534e-01
5.937478e-01
6.060517e-01
6.182503e-01
6.298356e-01
6.396066e-01
6.462496e-01
6.487084e-01
6.465574e-01
6.401750e-01
6.305454e-01
6.189295e-01
6.066609e-01
5.942815e-01
5.825782e-01
0.000000e+00
1.000000e+00
5.850603e-01
5.941944e-01
6.069760e-01
6.195336e-01
6.314621e-01
6.415235e-01
6.483663e-01
6.509029e-01
6.486954e-01
6.421317e-01
6.322398e-01
6.202978e-01
6.075819e-01
5.949564e-01
5.831370e-01
0.000000e+00
1.000000e+00
5.852668e-01
5.939324e-01
6.069282e-01
6.194894e-01
6.314117e-01
6.414644e-01
6.482968e-01
6.508235e-01
6.486144e-01
6.420653e-01
6.322172e-01
6.202833e-01
6.075244e-01
5.950255e-01
5.834499e-01
0.000000e+00
1.000000e+00
5.849855e-01
5.930255e-01
6.059519e-01
6.181525e-01
6.297234e-01
6.394792e-01
6.461071e-01
6.485435e-01
6.463866e-01
6.400441e-01
6.305179e-01
6.189474e-01
6.065274e-01
5.944548e-01
5.833791e-01
0.000000e+00
1.000000e+00
5.843895e-01
5.918108e-01
6.041232e-01
6.156346e-01
6.265537e-01
6.357610e-01
6.420182e-01
6.443132e-01
6.422496e-01
6.362763e-01
6.273143e-01
6.163874e-01
6.046372e-01
5.933172e-01
5.832157e-01
0.000000e+00
1.000000e+00
5.833343e-01
5.905209e-01
6.015757e-01
6.121402e-01
6.221640e-01
6.306139e-01
6.363562e-01
6.384660e-01
6.365565e-01
6.310664e-01
6.228559e-01
6.128137e-01
6.020401e-01
5.916099e-01
5.822448e-01
0.000000e+00
1.000000e+00
5.819950e-01
5.889520e-01
5.985045e-01
6.079234e-01
6.168627e-01
6.243946e-01
6.295076e-01
6.313841e-01
6.296892e-01
6.247703e-01
6.174490e-01
6.084784e-01
5.989306e-01
5.896411e-01
5.812996e-01
0.000000e+00
1.000000e+00
5.806524e-01
5.869070e-01
5.950697e-01
6.032164e-01
6.109477e-01
6.174572e-01
6.218682e-01
6.234782e-01
6.220183e-01
6.177570e-01
6.114036e-01
6.036427e-01
5.954288e-01
5.873353e-01
5.798110e-01
0.000000e+00
1.000000e+00
5.748814e-01
5.765700e-01
5.785979e-01
5.806608e-01
5.826165e-01
5.842592e-01
5.853647e-01
5.857544e-01
5.853599e-01
5.842529e-01
5.826121e-01
5.806867e-01
5.787093e-01
5.767402e-01
5.727798e-01
0.000000e+00
1.000000e+00
5.757220e-01
5.781172e-01
5.810343e-01
5.839970e-01
5.868061e-01
5.891664e-01
5.907561e-01
5.913184e-01
5.907559e-01
5.891713e-01
5.868199e-01
5.840554e-01
5.811933e-01
5.782345e-01
5.754781e-01
0.000000e+00
1.000000e+00
5.766986e-01
5.799445e-01
5.839176e-01
5.879443e-01
5.917628e-01
5.949719e-01
5.971347e-01
5.979031e-01
5.971442e-01
5.949950e-01
5.917987e-01
5.880523e-01
5.841139e-01
5.801830e-01
5.757646e-01
0.000000e+00
1.000000e+00
5.777988e-01
5.820157e-01
5.871876e-01
5.924212e-01
5.973847e-01
6.015570e-01
6.043712e-01
6.053745e-01
6.043933e-01
6.016011e-01
5.974577e-01
5.925993e-01
5.874154e-01
5.822506e-01
5.768561e-01
0.000000e+00
1.000000e+00
5.789890e-01
5.842526e-01
5.907238e-01
5.972621e-01
6.034634e-01
6.086777e-01
6.121973e-01
6.134561e-01
6.122348e-01
6.087527e-01
6.036083e-01
5.975264e-01
5.909771e-01
5.845335e-01
5.778811e-01
0.000000e+00
1.000000e+00
5.802294e-01
5.865414e-01
5.943517e-01
6.022282e-01
6.096992e-01
6.159829e-01
6.202278e-01
6.217516e-01
6.202898e-01
6.161141e-01
6.099556e-01
6.025759e-01
5.946369e-01
5.868500e-01
5.789969e-01
0.000000e+00
1.000000e+00
5.814542e-01
5.887380e-01
5.978509e-01
6.070176e-01
6.157134e-01
6.230302e-01
6.279784e-01
6.297650e-01
6.280837e-01
6.232582e-01
6.160994e-01
6.074580e-01
5.981656e-01
5.890807e-01
5.800301e-01
0.000000e+00
1.000000e+00
5.825834e-01
5.906824e-01
6.009761e-01
6.112953e-01
6.210862e-01
6.293294e-01
6.349132e-01
6.369464e-01
6.350860e-01
6.296864e-01
6.215990e-01
6.118311e-01
6.013588e-01
5.910430e-01
5.809557e-01
0.000000e+00
1.000000e+00
5.835373e-01
5.922193e-01
6.034878e-01
6.147347e-01
6.254101e-01
6.344053e-01
6.405100e-01
6.427533e-01
6.407577e-01
6.348902e-01
6.260321e-01
6.153668e-01
6.039792e-01
5.926181e-01
5.818673e-01
0.000000e+00
1.000000e+00
5.842402e-01
5.932182e-01
6.051865e-01
6.170668e-01
6.283493e-01
6.378627e-01
6.443277e-01
6.467173e-01
6.446279e-01
6.384345e-01
6.290658e-01
6.177657e-01
6.058036e-01
5.937073e-01
5.826151e-01
0.000000e+00
1.000000e+00
5.846415e-01
5.935876e-01
6.059449e-01
6.181206e-01
6.296848e-01
6.394374e-01
6.460661e-01
6.485166e-01
6.463774e-01
6.400368e-01
6.304639e-01
6.188833e-01
6.065655e-01
5.943094e-01
5.831835e-01
0.000000e+00
1.000000e+00
5.847365e-01
5.932628e-01
6.057291e-01
6.178385e-01
6.293322e-01
6.390240e-01
6.456107e-01
6.480355e-01
6.458970e-01
6.396015e-01
6.301299e-01
6.186327e-01
6.063103e-01
5.943038e-01
5.834260e-01
0.000000e+00
1.000000e+00
5.844726e-01
5.922020e-01
6.045725e-01
6.162570e-01
6.273413e-01
6.366886e-01
6.430423e-01
6.453710e-01
6.432828e-01
6.372181e-01
6.281171e-01
6.170380e-01
6.051165e-01
5.936004e-01
5.832662e-01
0.000000e+00
1.000000e+00
5.838741e-01
5.908430e-01
6.025815e-01
6.135214e-01
6.238999e-01
6.326523e-01
6.386029e-01
6.407874e-01
6.387978e-01
6.331187e-01
6.246224e-01
6.142371e-01
6.030778e-01
5.922589e-01
5.826724e-01
0.000000e+00
1.000000e+00
5.827206e-01
5.895422e-01
5.998997e-01
6.098423e-01
6.192776e-01
6.272322e-01
6.326406e-01
6.346322e-01
6.328159e-01
6.276302e-01
6.199223e-01
6.104698e-01
6.003463e-01
5.904104e-01
5.812244e-01
0.000000e+00
1.000000e+00
5.813484e-01
5.878970e-01
5.967283e-01
6.054853e-01
6.137975e-01
6.208008e-01
6.255560e-01
6.273053e-01
6.257206e-01
6.211250e-01
6.143305e-01
6.059886e-01
5.971222e-01
5.883876e-01
5.800850e-01
0.000000e+00
1.000000e+00
5.799699e-01
5.857805e-01
5.932257e-01
6.006866e-01
6.077660e-01
6.137250e-01
6.177610e-01
6.192335e-01
6.178874e-01
6.139789e-01
6.081638e-01
6.010565e-01
5.935399e-01
5.861075e-01
5.789315e-01
0.000000e+00
1.000000e+00
5.747204e-01
5.762567e-01
5.781039e-01
5.799841e-01
5.817666e-01
5.832636e-01
5.842707e-01
5.846248e-01
5.842633e-01
5.832517e-01
5.817513e-01
5.799867e-01
5.782274e-01
5.763757e-01
5.729815e-01
0.000000e+00
1.000000e+00
5.755065e-01
5.776981e-01
5.803729e-01
5.830915e-01
5.856692e-01
5.878350e-01
5.892934e-01
5.898087e-01
5.892909e-01
5.878336e-01
5.856708e-01
5.831399e-01
5.805374e-01
5.778224e-01
5.752857e-01
0.000000e+00
1.000000e+00
5.764226e-01
5.794149e-01
5.830803e-01
5.867979e-01
5.903233e-01
5.932860e-01
5.952823e-01
5.959905e-01
5.952874e-01
5.933007e-01
5.903501e-01
5.869228e-01
5.832814e-01
5.796442e-01
5.755168e-01
0.000000e+00
1.000000e+00
5.774651e-01
5.813738e-01
5.861714e-01
5.910298e-01
5.956375e-01
5.995105e-01
6.021219e-01
6.030518e-01
6.021390e-01
5.995459e-01
5.957107e-01
5.912339e-01
5.864032e-01
5.816047e-01
5.765758e-01
0.000000e+00
1.000000e+00
5.785955e-01
5.834995e-01
5.895298e-01
5.956276e-01
6.014110e-01
6.062734e-01
6.095545e-01
6.107266e-01
6.095859e-01
6.063379e-01
6.015659e-01
5.959103e-01
5.897846e-01
5.837750e-01
5.775362e-01
0.000000e+00
1.000000e+00
5.797731e-01
5.856815e-01
5.929855e-01
6.003579e-01
6.073509e-01
6.132319e-01
6.172033e-01
6.186269e-01
6.172557e-01
6.133489e-01
6.076170e-01
6.007118e-01
5.932646e-01
5.859764e-01
5.785818e-01
0.000000e+00
1.000000e+00
5.809327e-01
5.877791e-01
5.963214e-01
6.049241e-01
6.130846e-01
6.199501e-01
6.245910e-01
6.262626e-01
6.246803e-01
6.201585e-01
6.134716e-01
6.053650e-01
5.966263e-01
5.880930e-01
5.795801e-01
0.000000e+00
1.000000e+00
5.819936e-01
5.896355e-01
5.992946e-01
6.089939e-01
6.181966e-01
6.259426e-01
6.311857e-01
6.330881e-01
6.313342e-01
6.262722e-01
6.186977e-01
6.095336e-01
5.996556e-01
5.899510e-01
5.805955e-01
0.000000e+00
1.000000e+00
5.828734e-01
5.910986e-01
6.016679e-01
6.122439e-01
6.222816e-01
6.307363e-01
6.364683e-01
6.385650e-01
6.366845e-01
6.311845e-01
6.228757e-01
6.128856e-01
6.021073e-01
5.914537e-01
5.816513e-01
0.000000e+00
1.000000e+00
5.834887e-01
5.920449e-01
6.032440e-01
6.144060e-01
6.250045e-01
6.339385e-01
6.400026e-01
6.422321e-01
6.402657e-01
6.344658e-01
6.256764e-01
6.151054e-01
6.037825e-01
5.924915e-01
5.823999e-01
0.000000e+00
1.000000e+00
5.838309e-01
5.923770e-01
6.038962e-01
6.153081e-01
6.261469e-01
6.352868e-01
6.414966e-01
6.437800e-01
6.417655e-01
6.358404e-01
6.268783e-01
6.160309e-01
6.044690e-01
5.930251e-01
5.828863e-01
0.000000e+00
1.000000e+00
5.839416e-01
5.919934e-01
6.035823e-01
6.148906e-01
6.256272e-01
6.346829e-01
6.408420e-01
6.431035e-01
6.410843e-01
6.352158e-01
6.263806e-01
6.156272e-01
6.041329e-01
5.929201e-01
5.830159e-01
0.000000e+00
1.000000e+00
5.837183e-01
5.909102e-01
6.023534e-01
6.132163e-01
6.235229e-01
6.322142e-01
6.381255e-01
6.402982e-01
6.383282e-01
6.326879e-01
6.242396e-01
6.139299e-01
6.028600e-01
5.920712e-01
5.824709e-01
0.000000e+00
1.000000e+00
5.831147e-01
5.895436e-01
6.003216e-01
6.104291e-01
6.200171e-01
6.281006e-01
6.335961e-01
6.356222e-01
6.337669e-01
6.285007e-01
6.206654e-01
6.110648e-01
6.007840e-01
5.906528e-01
5.811728e-01
0.000000e+00
1.000000e+00
5.819781e-01
5.881959e-01
5.976333e-01
6.067378e-01
6.153779e-01
6.226598e-01
6.276085e-01
6.294351e-01
6.277720e-01
6.229891e-01
6.159421e-01
6.072813e-01
5.980347e-01
5.889216e-01
5.799355e-01
0.000000e+00
1.000000e+00
5.806077e-01
5.865038e-01
5.944811e-01
6.024064e-01
6.099289e-01
6.162646e-01
6.205628e-01
6.221439e-01
6.207131e-01
6.165319e-01
6.103844e-01
6.028355e-01
5.948228e-01
5.869175e-01
5.792106e-01
0.000000e+00
1.000000e+00
5.792204e-01
5.844033e-01
5.910225e-01
5.976679e-01
6.039731e-01
6.092788e-01
6.128688e-01
6.141752e-01
6.129718e-01
6.094887e-01
6.043043e-01
5.979772e-01
5.912886e-01
5.846826e-01
5.780015e-01
0.000000e+00
1.000000e+00
5.743043e-01
5.754592e-01
5.768477e-01
5.782638e-01
5.796061e-01
5.807331e-01
5.814903e-01
5.817541e-01
5.814771e-01
5.807091e-01
5.795712e-01
5.782431e-01
5.769691e-01
5.755696e-01
5.727421e-01
0.000000e+00
1.000000e+00
5.750149e-01
5.767552e-01
5.788874e-01
5.810575e-01
5.831151e-01
5.848434e-01
5.860063e-01
5.864157e-01
5.859991e-01
5.848314e-01
5.830968e-01
5.810835e-01
5.790605e-01
5.768920e-01
5.747387e-01
0.000000e+00
1.000000e+00
5.758428e-01
5.783216e-01
5.813544e-01
5.844353e-01
5.873570e-01
5.898122e-01
5.914658e-01
5.920505e-01
5.914643e-01
5.898119e-01
5.873594e-01
5.845573e-01
5.815745e-01
5.785497e-01
5.749963e-01
0.000000e+00
1.000000e+00
5.768064e-01
5.801278e-01
5.842021e-01
5.883339e-01
5.922525e-01
5.955462e-01
5.977664e-01
5.985544e-01
5.977732e-01
5.955628e-01
5.923036e-01
5.885456e-01
5.844496e-01
5.803598e-01
5.759649e-01
0.000000e+00
1.000000e+00
5.778591e-01
5.821050e-01
5.873227e-01
5.926061e-01
5.976171e-01
6.018296e-01
6.046704e-01
6.056823e-01
6.046891e-01
6.018703e-01
5.977536e-01
5.928930e-01
5.875914e-01
5.823757e-01
5.768644e-01
0.000000e+00
1.000000e+00
5.789547e-01
5.841494e-01
5.905561e-01
5.970323e-01
6.031752e-01
6.083405e-01
6.118262e-01
6.130716e-01
6.118605e-01
6.084223e-01
6.034188e-01
5.973828e-01
5.908466e-01
5.844261e-01
5.778226e-01
0.000000e+00
1.000000e+00
5.800327e-01
5.861279e-01
5.936948e-01
6.013290e-01
6.085709e-01
6.146621e-01
6.187760e-01
6.202515e-01
6.188360e-01
6.148205e-01
6.089323e-01
6.017565e-01
5.940051e-01
5.864012e-01
5.788557e-01
0.000000e+00
1.000000e+00
5.810173e-01
5.878902e-01
5.965048e-01
6.051759e-01
6.134026e-01
6.203249e-01
6.250052e-01
6.266928e-01
6.251091e-01
6.205925e-01
6.138721e-01
6.056873e-01
5.968549e-01
5.881672e-01
5.799957e-01
0.000000e+00
1.000000e+00
5.818265e-01
5.892896e-01
5.987555e-01
6.082578e-01
6.172757e-01
6.248679e-01
6.300076e-01
6.318733e-01
6.301676e-01
6.252451e-01
6.178241e-01
6.088569e-01
5.991547e-01
5.896214e-01
5.810584e-01
0.000000e+00
1.000000e+00
5.824104e-01
5.902002e-01
6.002540e-01
6.103110e-01
6.198572e-01
6.279004e-01
6.333557e-01
6.353471e-01
6.335611e-01
6.283540e-01
6.204604e-01
6.109684e-01
6.007213e-01
5.906282e-01
5.817425e-01
0.000000e+00
1.000000e+00
5.827440e-01
5.905281e-01
6.008746e-01
6.111609e-01
6.209286e-01
6.291647e-01
6.347627e-01
6.368158e-01
6.349830e-01
6.296488e-01
6.215705e-01
6.118296e-01
6.013788e-01
5.911048e-01
5.821604e-01
0.000000e+00
1.000000e+00
5.828517e-01
5.901924e-01
6.005667e-01
6.107491e-01
6.204188e-01
6.285740e-01
6.341232e-01
6.361686e-01
6.343306e-01
6.290397e-01
6.210755e-01
6.113938e-01
6.010628e-01
5.909043e-01
5.818681e-01
0.000000e+00
1.000000e+00
5.826125e-01
5.892614e-01
5.993846e-01
6.091412e-01
6.184019e-01
6.262095e-01
6.315196e-01
6.334805e-01
6.317012e-01
6.266139e-01
6.190227e-01
6.097450e-01
5.998348e-01
5.900338e-01
5.806630e-01
0.000000e+00
1.000000e+00
5.819087e-01
5.880400e-01
5.974415e-01
6.064768e-01
6.150506e-01
6.222761e-01
6.271862e-01
6.289988e-01
6.273482e-01
6.226047e-01
6.155991e-01
6.070018e-01
5.978337e-01
5.887774e-01
5.796291e-01
0.000000e+00
1.000000e+00
5.808930e-01
5.865977e-01
5.948723e-01
6.029511e-01
6.106187e-01
6.170783e-01
6.214642e-01
6.230815e-01
6.216176e-01
6.173436e-01
6.110847e-01
6.033922e-01
5.952053e-01
5.871699e-01
5.790323e-01
0.000000e+00
1.000000e+00
5.796732e-01
5.848767e-01
5.918605e-01
5.988160e-01
6.054173e-01
6.109747e-01
6.147400e-01