<?xml version="1.0"?>
<VTKFile type="StructuredGrid" version="0.1">
  <StructuredGrid WholeExtent="0 16 0 16 0 16">
    <Piece Extent="0 16 0 16 0 16">
      <PointData Scalars="temperature" Vectors="velocity">
        <DataArray type="Float32" Name="temperature" format="ascii">
1.000000e+00
5.658089e-01
5.579512e-01
5.494429e-01
5.407467e-01
5.325044e-01
5.255834e-01
5.209272e-01
5.192896e-01
5.209597e-01
5.256422e-01
5.325791e-01
5.408464e-01
5.495437e-01
5.580863e-01
5.655462e-01
0.000000e+00
1.000000e+00
5.666796e-01
5.597913e-01
5.523184e-01
5.446827e-01
5.374453e-01
5.313681e-01
5.272796e-01
5.258419e-01
5.273089e-01
5.314210e-01
5.375137e-01
5.447841e-01
5.524172e-01
5.599505e-01
5.662264e-01
0.000000e+00
1.000000e+00
5.676792e-01
5.618593e-01
5.555542e-01
5.491121e-01
5.430056e-01
5.378774e-01
5.344267e-01
5.332124e-01
5.344489e-01
5.379175e-01
5.430561e-01
5.492044e-01
5.556499e-01
5.620884e-01
5.669516e-01
0.000000e+00
1.000000e+00
5.687576e-01
5.640955e-01
5.590549e-01
5.539049e-01
5.490230e-01
5.449231e-01
5.421642e-01
5.411932e-01
5.421816e-01
5.449545e-01
5.490600e-01
5.539896e-01
5.591462e-01
5.643558e-01
5.678438e-01
0.000000e+00
1.000000e+00
5.698812e-01
5.664250e-01
5.627025e-01
5.588988e-01
5.552931e-01
5.522648e-01
5.502269e-01
5.495091e-01
5.502388e-01
5.522868e-01
5.553161e-01
5.589746e-01
5.627876e-01
5.666535e-01
5.689874e-01
0.000000e+00
1.000000e+00
5.710013e-01
5.687505e-01
5.663441e-01
5.638847e-01
5.615532e-01
5.595950e-01
5.582769e-01
5.578119e-01
5.582829e-01
5.596070e-01
5.615620e-01
5.639494e-01
5.664222e-01
5.689245e-01
5.702280e-01
0.000000e+00
1.000000e+00
5.720719e-01
5.709612e-01
5.698062e-01
5.686247e-01
5.675046e-01
5.665638e-01
5.659302e-01
5.657057e-01
5.659304e-01
5.665650e-01
5.674983e-01
5.686723e-01
5.698782e-01
5.710756e-01
5.715826e-01
0.000000e+00
1.000000e+00
5.730415e-01
5.729417e-01
5.729096e-01
5.728738e-01
5.728399e-01
5.728113e-01
5.727918e-01
5.727837e-01
5.727882e-01
5.728044e-01
5.728239e-01
5.728902e-01
5.729665e-01
5.730178e-01
5.727045e-01
0.000000e+00
1.000000e+00
5.738550e-01
5.745862e-01
5.754894e-01
5.764062e-01
5.772755e-01
5.780058e-01
5.784975e-01
5.786704e-01
5.784935e-01
5.779980e-01
5.772613e-01
5.764045e-01
5.755389e-01
5.746406e-01
5.735702e-01
0.000000e+00
1.000000e+00
5.744595e-01
5.758120e-01
5.774139e-01
5.790413e-01
5.805846e-01
5.818815e-01
5.827552e-01
5.830641e-01
5.827533e-01
5.818776e-01
5.805781e-01
5.790518e-01
5.774696e-01
5.758571e-01
5.742785e-01
0.000000e+00
1.000000e+00
5.748367e-01
5.765661e-01
5.785999e-01
5.806652e-01
5.826238e-01
5.842698e-01
5.853790e-01
5.857720e-01
5.853794e-01
5.842706e-01
5.826278e-01
5.806962e-01
5.786548e-01
5.766085e-01
5.747168e-01
0.000000e+00
1.000000e+00
5.749732e-01
5.768324e-01
5.790198e-01
5.812404e-01
5.833461e-01
5.851158e-01
5.863085e-01
5.867312e-01
5.863101e-01
5.851196e-01
5.833577e-01
5.812796e-01
5.790694e-01
5.768735e-01
5.748671e-01
0.000000e+00
1.000000e+00
5.748763e-01
5.766285e-01
5.787003e-01
5.808029e-01
5.827969e-01
5.844726e-01
5.856020e-01
5.860024e-01
5.856035e-01
5.844766e-01
5.828099e-01
5.808407e-01
5.787472e-01
5.766726e-01
5.747475e-01
0.000000e+00
1.000000e+00
5.745648e-01
5.760003e-01
5.777150e-01
5.794536e-01
5.811024e-01
5.824881e-01
5.834219e-01
5.837527e-01
5.834222e-01
5.824901e-01
5.811120e-01
5.794828e-01
5.777602e-01
5.760440e-01
5.743598e-01
0.000000e+00
1.000000e+00
5.740771e-01
5.750158e-01
5.761702e-01
5.773384e-01
5.784463e-01
5.793775e-01
5.800050e-01
5.802269e-01
5.800040e-01
5.793769e-01
5.784508e-01
5.773565e-01
5.762111e-01
5.750596e-01
5.738104e-01
0.000000e+00
1.000000e+00
5.734557e-01
5.737535e-01
5.741900e-01
5.746272e-01
5.750421e-01
5.753910e-01
5.756263e-01
5.757093e-01
5.756252e-01
5.753901e-01
5.750452e-01
5.746432e-01
5.742265e-01
5.738022e-01
5.732067e-01
0.000000e+00
1.000000e+00
5.727452e-01
5.722944e-01
5.719023e-01
5.714950e-01
5.711094e-01
5.707861e-01
5.705688e-01
5.704921e-01
5.705696e-01
5.707888e-01
5.711197e-01
5.715202e-01
5.719374e-01
5.723495e-01
5.725005e-01
0.000000e+00
1.000000e+00
5.650715e-01
5.562949e-01
5.468527e-01
5.372002e-01
5.280511e-01
5.203683e-01
5.151988e-01
5.133797e-01
5.152322e-01
5.204286e-01
5.281285e-01
5.372947e-01
5.469536e-01
5.565056e-01
5.645967e-01
0.000000e+00
1.000000e+00
5.658582e-01
5.580235e-01
5.495571e-01
5.409026e-01
5.326998e-01
5.258123e-01
5.211790e-01
5.195501e-01
5.212130e-01
5.258733e-01
5.327821e-01
5.410026e-01
5.496673e-01
5.583450e-01
5.650054e-01
0.000000e+00
1.000000e+00
5.668147e-01
5.600195e-01
5.526782e-01
5.451748e-01
5.380624e-01
5.320896e-01
5.280708e-01
5.266566e-01
5.280968e-01
5.321359e-01
5.381250e-01
5.452659e-01
5.527846e-01
5.603868e-01
5.657660e-01
0.000000e+00
1.000000e+00
5.678701e-01
5.622203e-01
5.561221e-01
5.498895e-01
5.439815e-01
5.390201e-01
5.356815e-01
5.345065e-01
5.357024e-01
5.390573e-01
5.440295e-01
5.499754e-01
5.562216e-01
5.625310e-01
5.668785e-01
0.000000e+00
1.000000e+00
5.689919e-01
5.645520e-01
5.597718e-01
5.548862e-01
5.502550e-01
5.463655e-01
5.437479e-01
5.428263e-01
5.437634e-01
5.463931e-01
5.502876e-01
5.549631e-01
5.598627e-01
5.647549e-01
5.682594e-01
0.000000e+00
1.000000e+00
5.701255e-01
5.669140e-01
5.634698e-01
5.599493e-01
5.566119e-01
5.538087e-01
5.519220e-01
5.512571e-01
5.519318e-01
5.538268e-01
5.566300e-01
5.600146e-01
5.635494e-01
5.670303e-01
5.696902e-01
0.000000e+00
1.000000e+00
5.712182e-01
5.691892e-01
5.670319e-01
5.648262e-01
5.627351e-01
5.609786e-01
5.597959e-01
5.593783e-01
5.598001e-01
5.609871e-01
5.627399e-01
5.648776e-01
5.671013e-01
5.692609e-01
5.710434e-01
0.000000e+00
1.000000e+00
5.722202e-01
5.712530e-01
5.702638e-01
5.692511e-01
5.682909e-01
5.674842e-01
5.669406e-01
5.667478e-01
5.669399e-01
5.674834e-01
5.682838e-01
5.692838e-01
5.703213e-01
5.713112e-01
5.720428e-01
0.000000e+00
1.000000e+00
5.730728e-01
5.729877e-01
5.729830e-01
5.729742e-01
5.729657e-01
5.729585e-01
5.729532e-01
5.729503e-01
5.729498e-01
5.729518e-01
5.729523e-01
5.729817e-01
5.730251e-01
5.730263e-01
5.728649e-01
0.000000e+00
1.000000e+00
5.737132e-01
5.742997e-01
5.750411e-01
5.757923e-01
5.765045e-01
5.771029e-01
5.775057e-01
5.776474e-01
5.775024e-01
5.770962e-01
5.764933e-01
5.757906e-01
5.750769e-01
5.743263e-01
5.736671e-01
0.000000e+00
1.000000e+00
5.741214e-01
5.751283e-01
5.763421e-01
5.775735e-01
5.787413e-01
5.797226e-01
5.803836e-01
5.806172e-01
5.803818e-01
5.797189e-01
5.787362e-01
5.775824e-01
5.763787e-01
5.751594e-01
5.740717e-01
0.000000e+00
1.000000e+00
5.742903e-01
5.754505e-01
5.768507e-01
5.782700e-01
5.796159e-01
5.807470e-01
5.815091e-01
5.817788e-01
5.815087e-01
5.807463e-01
5.796168e-01
5.782886e-01
5.768853e-01
5.754825e-01
5.741776e-01
0.000000e+00
1.000000e+00
5.742138e-01
5.752849e-01
5.765928e-01
5.779171e-01
5.791729e-01
5.802282e-01
5.809393e-01
5.811911e-01
5.809392e-01
5.802285e-01
5.791760e-01
5.779354e-01
5.766244e-01
5.753174e-01
5.741198e-01
0.000000e+00
1.000000e+00
5.739169e-01
5.746812e-01
5.756458e-01
5.766204e-01
5.775446e-01
5.783212e-01
5.788445e-01
5.790297e-01
5.788441e-01
5.783210e-01
5.775470e-01
5.766329e-01
5.756745e-01
5.747122e-01
5.737580e-01
0.000000e+00
1.000000e+00
5.734356e-01
5.737102e-01
5.741229e-01
5.745351e-01
5.749261e-01
5.752547e-01
5.754761e-01
5.755543e-01
5.754754e-01
5.752541e-01
5.749284e-01
5.745451e-01
5.741490e-01
5.737497e-01
5.731527e-01
0.000000e+00
1.000000e+00
5.728207e-01
5.724554e-01
5.721556e-01
5.718416e-01
5.715442e-01
5.712945e-01
5.711264e-01
5.710668e-01
5.711265e-01
5.712955e-01
5.715507e-01
5.718576e-01
5.721809e-01
5.725041e-01
5.725535e-01
0.000000e+00
1.000000e+00
5.721185e-01
5.710027e-01
5.698791e-01
5.687248e-01
5.676309e-01
5.667124e-01
5.660940e-01
5.658757e-01
5.660963e-01
5.667182e-01
5.676464e-01
5.687484e-01
5.699102e-01
5.710543e-01
5.719077e-01
0.000000e+00
1.000000e+00
5.644179e-01
5.549210e-01
5.447012e-01
5.342546e-01
5.243528e-01
5.160379e-01
5.104432e-01
5.084747e-01
5.104798e-01
5.161043e-01
5.244371e-01
5.343550e-01
5.448090e-01
5.551561e-01
5.639229e-01
0.000000e+00
1.000000e+00
5.651528e-01
5.565342e-01
5.472265e-01
5.377117e-01
5.286937e-01
5.211219e-01
5.160282e-01
5.142374e-01
5.160657e-01
5.211895e-01
5.287831e-01
5.378177e-01
5.473376e-01
5.568428e-01
5.645076e-01
0.000000e+00
1.000000e+00
5.660677e-01
5.584462e-01
5.502168e-01
5.418047e-01
5.338311e-01
5.271353e-01
5.226302e-01
5.210450e-01
5.226596e-01
5.271878e-01
5.339023e-01
5.418966e-01
5.503223e-01
5.587591e-01
5.652759e-01
0.000000e+00
1.000000e+00
5.670961e-01
5.605996e-01
5.535863e-01
5.464177e-01
5.396226e-01
5.339161e-01
5.300763e-01
5.287249e-01
5.301004e-01
5.339590e-01
5.396801e-01
5.465017e-01
5.536842e-01
5.608442e-01
5.662916e-01
0.000000e+00
1.000000e+00
5.682121e-01
5.629223e-01
5.572211e-01
5.513940e-01
5.458702e-01
5.412311e-01
5.381091e-01
5.370099e-01
5.381275e-01
5.412638e-01
5.459123e-01
5.514677e-01
5.573086e-01
5.630659e-01
5.676629e-01
0.000000e+00
1.000000e+00
5.693590e-01
5.653110e-01
5.609604e-01
5.565134e-01
5.522977e-01
5.487569e-01
5.463737e-01
5.455340e-01
5.463863e-01
5.487796e-01
5.523247e-01
5.565746e-01
5.610347e-01
5.653918e-01
5.690167e-01
0.000000e+00
1.000000e+00
5.704785e-01
5.676424e-01
5.646104e-01
5.615106e-01
5.585719e-01
5.561034e-01
5.544414e-01
5.538551e-01
5.544485e-01
5.561166e-01
5.585854e-01
5.615579e-01
5.646734e-01
5.676989e-01
5.703018e-01
0.000000e+00
1.000000e+00
5.715123e-01
5.697830e-01
5.679620e-01
5.660995e-01
5.643335e-01
5.628499e-01
5.618505e-01
5.614972e-01
5.618526e-01
5.628544e-01
5.643354e-01
5.661331e-01
5.680150e-01
5.698344e-01
5.713277e-01
0.000000e+00
1.000000e+00
5.724017e-01
5.716043e-01
5.708155e-01
5.700063e-01
5.692390e-01
5.685941e-01
5.681593e-01
5.680048e-01
5.681577e-01
5.685914e-01
5.692314e-01
5.700226e-01
5.708554e-01
5.716337e-01
5.721751e-01
0.000000e+00
1.000000e+00
5.730825e-01
5.730009e-01
5.730053e-01
5.730046e-01
5.730039e-01
5.730030e-01
5.730021e-01
5.730008e-01
5.729990e-01
5.729970e-01
5.729931e-01
5.730033e-01
5.730304e-01
5.730116e-01
5.730254e-01
0.000000e+00
1.000000e+00
5.735218e-01
5.739036e-01
5.744215e-01
5.749437e-01
5.754388e-01
5.758547e-01
5.761347e-01
5.762332e-01
5.761324e-01
5.758501e-01
5.754313e-01
5.749409e-01
5.744388e-01
5.739207e-01
5.734961e-01
0.000000e+00
1.000000e+00
5.737156e-01
5.742844e-01
5.750210e-01
5.757645e-01
5.764696e-01
5.770620e-01
5.774610e-01
5.776020e-01
5.774599e-01
5.770599e-01
5.764667e-01
5.757673e-01
5.750360e-01
5.743042e-01
5.736211e-01
0.000000e+00
1.000000e+00
5.736614e-01
5.741590e-01
5.748276e-01
5.754998e-01
5.761372e-01
5.766729e-01
5.770337e-01
5.771613e-01
5.770331e-01
5.766721e-01
5.761368e-01
5.755042e-01
5.748420e-01
5.741797e-01
5.735903e-01
0.000000e+00
1.000000e+00
5.733790e-01
5.735806e-01
5.739216e-01
5.742594e-01
5.745798e-01
5.748491e-01
5.750304e-01
5.750944e-01
5.750298e-01
5.748485e-01
5.745806e-01
5.742638e-01
5.739365e-01
5.736014e-01
5.732537e-01
0.000000e+00
1.000000e+00
5.729126e-01
5.726252e-01
5.724229e-01
5.722075e-01
5.720033e-01
5.718319e-01
5.717164e-01
5.716754e-01
5.717163e-01
5.718325e-01
5.720073e-01
5.722149e-01
5.724386e-01
5.726580e-01
5.726377e-01
0.000000e+00
1.000000e+00
5.723047e-01
5.713802e-01
5.704712e-01
5.695352e-01
5.686479e-01
5.679025e-01
5.674006e-01
5.672234e-01
5.674023e-01
5.679067e-01
5.686585e-01
5.695504e-01
5.704927e-01
5.714264e-01
5.720292e-01
0.000000e+00
1.000000e+00
5.716074e-01
5.699356e-01
5.682079e-01
5.664364e-01
5.647572e-01
5.633467e-01
5.623970e-01
5.620621e-01
5.624015e-01
5.633564e-01
5.647749e-01
5.664581e-01
5.682377e-01
5.699811e-01
5.713986e-01
0.000000e+00
1.000000e+00
5.639335e-01
5.539083e-01
5.431168e-01
5.320855e-01
5.216296e-01
5.128497e-01
5.069425e-01
5.048645e-01
5.069824e-01
5.129226e-01
5.217207e-01
5.321908e-01
5.432357e-01
5.541393e-01
5.634519e-01
0.000000e+00
1.000000e+00
5.646185e-01
5.554082e-01
5.454647e-01
5.352997e-01
5.256656e-01
5.175765e-01
5.121350e-01
5.102223e-01
5.121756e-01
5.176500e-01
5.257583e-01
5.354140e-01
5.455819e-01
5.556671e-01
5.640874e-01
0.000000e+00
1.000000e+00
5.654958e-01
5.572342e-01
5.483205e-01
5.392084e-01
5.305715e-01
5.233189e-01
5.184393e-01
5.167227e-01
5.184720e-01
5.233775e-01
5.306456e-01
5.393082e-01
5.484280e-01
5.574756e-01
5.648741e-01
0.000000e+00
1.000000e+00
5.664974e-01
5.593351e-01
5.516082e-01
5.437095e-01
5.362223e-01
5.299349e-01
5.257043e-01
5.242156e-01
5.257314e-01
5.299833e-01
5.362833e-01
5.437983e-01
5.517074e-01
5.595239e-01
5.658464e-01
0.000000e+00
1.000000e+00
5.676005e-01
5.616419e-01
5.552180e-01
5.486515e-01
5.424269e-01
5.371993e-01
5.336815e-01
5.324430e-01
5.337025e-01
5.372369e-01
5.424729e-01
5.487276e-01
5.553048e-01
5.617514e-01
5.671751e-01
0.000000e+00
1.000000e+00
5.687561e-01
5.640504e-01
5.589876e-01
5.538123e-01
5.489062e-01
5.447856e-01
5.420123e-01
5.410353e-01
5.420273e-01
5.448125e-01
5.489373e-01
5.538732e-01
5.590589e-01
5.641180e-01
5.685121e-01
0.000000e+00
1.000000e+00
5.699005e-01
5.664314e-01
5.627148e-01
5.589152e-01
5.553131e-01
5.522873e-01
5.502503e-01
5.495319e-01
5.502595e-01
5.523040e-01
5.553307e-01
5.589600e-01
5.627723e-01
5.664875e-01
5.697704e-01
0.000000e+00
1.000000e+00
5.709644e-01
5.686427e-01
5.661769e-01
5.636552e-01
5.612644e-01
5.592558e-01
5.579031e-01
5.574253e-01
5.579072e-01
5.592637e-01
5.612708e-01
5.636848e-01
5.662228e-01
5.686970e-01
5.707789e-01
0.000000e+00
1.000000e+00
5.718868e-01
5.705456e-01
5.691569e-01
5.677352e-01
5.663872e-01
5.652544e-01
5.644912e-01
5.642208e-01
5.644913e-01
5.652551e-01
5.663848e-01
5.677505e-01
5.691910e-01
5.705754e-01
5.716453e-01
0.000000e+00
1.000000e+00
5.726082e-01
5.720229e-01
5.714722e-01
5.709054e-01
5.703678e-01
5.699159e-01
5.696110e-01
5.695024e-01
5.696090e-01
5.699120e-01
5.703598e-01
5.709064e-01
5.714918e-01
5.720247e-01
5.725436e-01
0.000000e+00
1.000000e+00
5.730833e-01
5.729964e-01
5.729991e-01
5.729960e-01
5.729930e-01
5.729903e-01
5.729882e-01
5.729869e-01
5.729862e-01
5.729861e-01
5.729855e-01
5.729890e-01
5.730056e-01
5.730020e-01
5.730672e-01
0.000000e+00
1.000000e+00
5.733015e-01
5.734334e-01
5.736860e-01
5.739365e-01
5.741740e-01
5.743734e-01
5.745077e-01
5.745550e-01
5.745068e-01
5.743714e-01
5.741702e-01
5.739328e-01
5.736887e-01
5.734427e-01
5.732251e-01
0.000000e+00
1.000000e+00
5.732671e-01
5.733475e-01
5.735543e-01
5.737562e-01
5.739476e-01
5.741083e-01
5.742166e-01
5.742548e-01
5.742162e-01
5.741076e-01
5.739460e-01
5.737545e-01
5.735564e-01
5.733581e-01
5.732118e-01
0.000000e+00
1.000000e+00
5.729971e-01
5.727925e-01
5.726869e-01
5.725686e-01
5.724564e-01
5.723620e-01
5.722984e-01
5.722758e-01
5.722981e-01
5.723617e-01
5.724561e-01
5.725678e-01
5.726894e-01
5.728026e-01
5.729077e-01
0.000000e+00
1.000000e+00
5.725356e-01
5.718496e-01
5.712091e-01
5.705454e-01
5.699161e-01
5.693874e-01
5.690313e-01
5.689052e-01
5.690318e-01
5.693890e-01
5.699202e-01
5.705499e-01
5.712173e-01
5.718762e-01
5.722874e-01
0.000000e+00
1.000000e+00
5.719355e-01
5.706113e-01
5.692677e-01
5.678875e-01
5.665790e-01
5.654798e-01
5.647397e-01
5.644784e-01
5.647423e-01
5.654857e-01
5.665895e-01
5.679001e-01
5.692861e-01
5.706524e-01
5.716634e-01
0.000000e+00
1.000000e+00
5.712486e-01
5.691716e-01
5.670113e-01
5.647983e-01
5.627004e-01
5.609384e-01
5.597522e-01
5.593339e-01
5.597579e-01
5.609500e-01
5.627178e-01
5.648175e-01
5.670355e-01
5.692091e-01
5.710292e-01
0.000000e+00
1.000000e+00
5.636589e-01
5.533301e-01
5.422129e-01
5.308479e-01
5.200760e-01
5.110310e-01
5.049459e-01
5.028058e-01
5.049886e-01
5.111093e-01
5.201731e-01
5.309580e-01
5.423422e-01
5.535514e-01
5.631888e-01
0.000000e+00
1.000000e+00
5.642969e-01
5.547271e-01
5.443999e-01
5.338419e-01
5.238354e-01
5.154338e-01
5.097824e-01
5.077961e-01
5.098253e-01
5.155120e-01
5.239304e-01
5.339651e-01
5.445251e-01
5.549321e-01
5.638723e-01
0.000000e+00
1.000000e+00
5.651375e-01
5.564742e-01
5.471315e-01
5.375806e-01
5.285278e-01
5.209264e-01
5.158123e-01
5.140138e-01
5.158477e-01
5.209901e-01
5.286031e-01
5.376926e-01
5.472432e-01
5.566469e-01
5.647122e-01
0.000000e+00
1.000000e+00
5.661182e-01
5.585259e-01
5.503422e-01
5.419760e-01
5.340459e-01
5.273867e-01
5.229064e-01
5.213301e-01
5.229361e-01
5.274400e-01
5.341073e-01
5.420770e-01
5.504430e-01
5.586655e-01
5.656432e-01
0.000000e+00
1.000000e+00
5.672118e-01
5.608160e-01
5.539262e-01
5.468828e-01
5.402062e-01
5.345992e-01
5.308263e-01
5.294984e-01
5.308497e-01
5.346411e-01
5.402531e-01
5.469693e-01
5.540138e-01
5.609042e-01
5.669216e-01
0.000000e+00
1.000000e+00
5.683722e-01
5.632407e-01
5.577209e-01
5.520781e-01
5.467288e-01
5.422361e-01
5.392124e-01
5.381475e-01
5.392294e-01
5.422664e-01
5.467613e-01
5.521479e-01
5.577937e-01
5.633090e-01
5.681930e-01
0.000000e+00
1.000000e+00
5.695355e-01
5.656662e-01
5.615173e-01
5.572757e-01
5.532545e-01
5.498769e-01
5.476031e-01
5.468016e-01
5.476139e-01
5.498964e-01
5.532740e-01
5.573273e-01
5.615765e-01
5.657341e-01
5.693724e-01
0.000000e+00
1.000000e+00
5.706297e-01
5.679422e-01
5.650802e-01
5.621536e-01
5.593790e-01
5.570480e-01
5.554783e-01
5.549241e-01
5.554836e-01
5.570580e-01
5.593871e-01
5.621871e-01
5.651269e-01
5.680080e-01
5.703782e-01
0.000000e+00
1.000000e+00
5.715865e-01
5.699195e-01
5.681762e-01
5.663926e-01
5.647013e-01
5.632802e-01
5.623227e-01
5.619839e-01
5.623238e-01
5.632825e-01
5.647006e-01
5.664090e-01
5.682102e-01
5.699577e-01
5.713017e-01
0.000000e+00
1.000000e+00
5.723424e-01
5.714706e-01
5.706066e-01
5.697202e-01
5.688796e-01
5.681730e-01
5.676966e-01
5.675274e-01
5.676950e-01
5.681700e-01
5.688727e-01
5.697221e-01
5.706262e-01
5.714756e-01
5.722306e-01
0.000000e+00
1.000000e+00
5.728500e-01
5.725084e-01
5.722338e-01
5.719482e-01
5.716772e-01
5.714494e-01
5.712955e-01
5.712404e-01
5.712935e-01
5.714451e-01
5.716694e-01
5.719403e-01
5.722377e-01
5.725099e-01
5.728098e-01
0.000000e+00
1.000000e+00
5.730935e-01
5.729950e-01
5.729981e-01
5.729946e-01
5.729912e-01
5.729882e-01
5.729860e-01
5.729849e-01
5.729849e-01
5.729857e-01
5.729864e-01
5.729882e-01
5.729949e-01
5.729965e-01
5.730213e-01
0.000000e+00
1.000000e+00
5.730773e-01
5.729425e-01
5.729182e-01
5.728851e-01
5.728537e-01
5.728272e-01
5.728092e-01
5.728027e-01
5.728087e-01
5.728260e-01
5.728510e-01
5.728806e-01
5.729134e-01
5.729458e-01
5.730275e-01
0.000000e+00
1.000000e+00
5.728202e-01
5.724059e-01
5.720794e-01
5.717366e-01
5.714115e-01
5.711382e-01
5.709540e-01
5.708887e-01
5.709537e-01
5.711375e-01
5.714100e-01
5.717333e-01
5.720770e-01
5.724109e-01
5.727636e-01
0.000000e+00
1.000000e+00
5.723623e-01
5.714692e-01
5.706125e-01
5.697282e-01
5.688897e-01
5.681851e-01
5.677103e-01
5.675423e-01
5.677107e-01
5.681861e-01
5.688917e-01
5.697299e-01
5.706177e-01
5.714854e-01
5.721423e-01
0.000000e+00
1.000000e+00
5.717568e-01
5.702299e-01
5.686704e-01
5.670692e-01
5.655512e-01
5.642759e-01
5.634170e-01
5.631135e-01
5.634194e-01
5.642810e-01
5.655589e-01
5.670780e-01
5.686834e-01
5.702593e-01
5.715176e-01
0.000000e+00
1.000000e+00
5.710615e-01
5.687861e-01
5.664077e-01
5.639715e-01
5.616620e-01
5.597221e-01
5.584160e-01
5.579552e-01
5.584215e-01
5.597330e-01
5.616768e-01
5.639872e-01
5.664265e-01
5.688175e-01
5.708479e-01
0.000000e+00
1.000000e+00
5.636202e-01
5.532414e-01
5.420742e-01
5.306578e-01
5.198374e-01
5.107522e-01
5.046405e-01
5.024916e-01
5.046849e-01
5.108342e-01
5.199393e-01
5.307752e-01
5.421914e-01
5.534245e-01
5.632461e-01
0.000000e+00
1.000000e+00
5.642207e-01
5.545557e-01
5.441322e-01
5.334754e-01
5.233754e-01
5.148954e-01
5.091915e-01
5.071871e-01
5.092357e-01
5.149762e-01
5.234729e-01
5.336088e-01
5.442443e-01
5.546956e-01
5.639630e-01
0.000000e+00
1.000000e+00
5.650276e-01
5.562393e-01
5.467644e-01
5.370780e-01
5.278971e-01
5.201883e-01
5.150024e-01
5.131791e-01
5.150396e-01
5.202557e-01
5.279752e-01
5.372021e-01
5.468690e-01
5.563547e-01
5.647872e-01
0.000000e+00
1.000000e+00
5.659915e-01
5.582530e-01
5.499151e-01
5.413912e-01
5.333119e-01
5.265276e-01
5.219634e-01
5.203580e-01
5.219949e-01
5.265843e-01
5.333760e-01
5.415034e-01
5.500103e-01
5.583591e-01
5.656915e-01
0.000000e+00
1.000000e+00
5.670819e-01
5.605325e-01
5.534826e-01
5.462753e-01
5.394436e-01
5.337065e-01
5.298464e-01
5.284881e-01
5.298714e-01
5.337516e-01
5.394936e-01
5.463721e-01
5.535659e-01
5.606223e-01
5.668313e-01
0.000000e+00
1.000000e+00
5.682490e-01
5.629742e-01
5.573040e-01
5.515073e-01
5.460122e-01
5.413972e-01
5.382915e-01
5.371981e-01
5.383099e-01
5.414302e-01
5.460484e-01
5.515873e-01
5.573756e-01
5.630619e-01
5.680018e-01
0.000000e+00
1.000000e+00
5.694290e-01
5.654409e-01
5.611648e-01
5.567932e-01
5.526487e-01
5.491676e-01
5.468245e-01
5.459987e-01
5.468363e-01
5.491891e-01
5.526715e-01
5.568552e-01
5.612244e-01
5.655290e-01
5.691716e-01
0.000000e+00
1.000000e+00
5.705507e-01
5.677753e-01
5.648187e-01
5.617957e-01
5.589296e-01
5.565219e-01
5.549007e-01
5.543285e-01
5.549066e-01
5.565330e-01
5.589399e-01
5.618397e-01
5.648657e-01
5.678588e-01
5.702087e-01
0.000000e+00
1.000000e+00
5.715418e-01
5.698186e-01
5.680179e-01
5.661758e-01
5.644292e-01
5.629616e-01
5.619728e-01
5.616230e-01
5.619740e-01
5.629640e-01
5.644290e-01
5.662011e-01
5.680520e-01
5.698713e-01
5.711722e-01
0.000000e+00
1.000000e+00
5.723292e-01
5.714336e-01
5.705483e-01
5.696404e-01
5.687795e-01
5.680558e-01
5.675678e-01
5.673944e-01
5.675660e-01
5.680522e-01
5.687717e-01
5.696476e-01
5.705696e-01
5.714490e-01
5.721557e-01
0.000000e+00
1.000000e+00
5.728631e-01
5.725254e-01
5.722600e-01
5.719841e-01
5.717224e-01
5.715023e-01
5.713536e-01
5.713002e-01
5.713511e-01
5.714972e-01
5.717133e-01
5.719784e-01
5.722665e-01
5.725318e-01
5.727784e-01
0.000000e+00
1.000000e+00
5.731268e-01
5.730511e-01
5.730854e-01
5.731142e-01
5.731415e-01
5.731643e-01
5.731794e-01
5.731843e-01
5.731778e-01
5.731611e-01
5.731361e-01
5.731081e-01
5.730837e-01
5.730525e-01
5.730205e-01
0.000000e+00
1.000000e+00
5.731238e-01
5.730214e-01
5.730407e-01
5.730531e-01
5.730647e-01
5.730744e-01
5.730807e-01
5.730827e-01
5.730799e-01
5.730728e-01
5.730620e-01
5.730489e-01
5.730366e-01
5.730218e-01
5.730701e-01
0.000000e+00
1.000000e+00
5.728761e-01
5.724926e-01
5.722137e-01
5.719206e-01
5.716426e-01
5.714090e-01
5.712514e-01
5.711954e-01
5.712509e-01
5.714080e-01
5.716410e-01
5.719173e-01
5.722113e-01
5.724986e-01
5.728374e-01
0.000000e+00
1.000000e+00
5.724225e-01
5.715519e-01
5.707400e-01
5.699029e-01
5.691091e-01
5.684421e-01
5.679927e-01
5.678335e-01
5.679927e-01
5.684427e-01
5.691104e-01
5.699040e-01
5.707447e-01
5.715670e-01
5.722256e-01
0.000000e+00
1.000000e+00
5.718170e-01
5.703010e-01
5.687786e-01
5.672176e-01
5.657376e-01
5.644941e-01
5.636564e-01
5.633603e-01
5.636582e-01
5.644980e-01
5.657436e-01
5.672251e-01
5.687906e-01
5.703210e-01
5.716425e-01
0.000000e+00
1.000000e+00
5.711260e-01
5.688417e-01
5.664898e-01
5.640841e-01
5.618033e-01
5.598875e-01
5.585974e-01
5.581420e-01
5.586021e-01
5.598969e-01
5.618158e-01
5.640974e-01
5.665059e-01
5.688555e-01
5.709216e-01
0.000000e+00
1.000000e+00
5.638240e-01
5.536695e-01
5.427437e-01
5.315739e-01
5.209877e-01
5.120995e-01
5.061208e-01
5.040194e-01
5.061660e-01
5.121832e-01
5.210925e-01
5.316950e-01
5.428447e-01
5.538102e-01
5.635964e-01
0.000000e+00
1.000000e+00
5.644035e-01
5.549296e-01
5.447172e-01
5.342761e-01
5.243806e-01
5.160725e-01
5.104845e-01
5.085212e-01
5.105287e-01
5.161537e-01
5.244801e-01
5.344110e-01
5.448164e-01
5.550283e-01
5.642736e-01
0.000000e+00
1.000000e+00
5.651879e-01
5.565727e-01
5.472866e-01
5.377930e-01
5.287951e-01
5.212401e-01
5.161581e-01
5.143718e-01
5.161961e-01
5.213091e-01
5.288769e-01
5.379213e-01
5.473753e-01
5.566557e-01
5.650655e-01
0.000000e+00
1.000000e+00
5.661397e-01
5.585656e-01
5.504048e-01
5.420619e-01
5.341540e-01
5.275140e-01
5.230473e-01
5.214767e-01
5.230796e-01
5.275725e-01
5.342221e-01
5.421786e-01
5.504877e-01
5.586561e-01
5.659692e-01
0.000000e+00
1.000000e+00
5.672288e-01
5.608461e-01
5.539732e-01
5.469471e-01
5.402872e-01
5.346946e-01
5.309320e-01
5.296086e-01
5.309578e-01
5.347412e-01
5.403414e-01
5.470494e-01
5.540509e-01
5.609504e-01
5.669753e-01
0.000000e+00
1.000000e+00
5.684100e-01
5.633096e-01
5.578286e-01
5.522255e-01
5.469141e-01
5.424535e-01
5.394520e-01
5.383957e-01
5.394710e-01
5.424877e-01
5.469541e-01
5.523126e-01
5.578991e-01
5.634205e-01
5.680747e-01
0.000000e+00
1.000000e+00
5.696100e-01
5.658157e-01
5.617515e-01
5.575964e-01
5.536574e-01
5.503490e-01
5.481223e-01
5.473378e-01
5.481344e-01
5.503710e-01
5.536830e-01
5.576674e-01
5.618119e-01
5.659222e-01
5.692863e-01
0.000000e+00
1.000000e+00
5.707531e-01
5.682018e-01
5.654863e-01
5.627098e-01
5.600775e-01
5.578664e-01
5.563776e-01
5.558521e-01
5.563832e-01
5.578770e-01
5.600889e-01
5.627641e-01
5.655380e-01
5.683052e-01
5.703445e-01
0.000000e+00
1.000000e+00
5.717713e-01
5.703013e-01
5.687732e-01
5.672100e-01
5.657279e-01
5.644825e-01
5.636434e-01
5.633462e-01
5.636436e-01
5.644831e-01
5.657258e-01
5.672457e-01
5.688155e-01
5.703748e-01
5.713366e-01
0.000000e+00
1.000000e+00
5.725875e-01
5.719682e-01
5.713851e-01
5.707862e-01
5.702182e-01
5.697407e-01
5.694184e-01
5.693034e-01
5.694155e-01
5.697348e-01
5.702067e-01
5.707993e-01
5.714138e-01
5.720013e-01
5.723611e-01
0.000000e+00
1.000000e+00
5.731431e-01
5.731007e-01
5.731613e-01
5.732182e-01
5.732721e-01
5.733172e-01
5.733471e-01
5.733568e-01
5.733440e-01
5.733107e-01
5.732610e-01
5.732149e-01
5.731759e-01
5.731195e-01
5.730097e-01
0.000000e+00
1.000000e+00
5.734183e-01
5.736523e-01
5.740275e-01
5.744042e-01
5.747614e-01
5.750614e-01
5.752634e-01
5.753345e-01
5.752618e-01
5.750583e-01
5.747564e-01
5.744015e-01
5.740345e-01
5.736630e-01
5.732616e-01
0.000000e+00
1.000000e+00
5.734199e-01
5.736321e-01
5.739980e-01
5.743638e-01
5.747107e-01
5.750021e-01
5.751984e-01
5.752677e-01
5.751980e-01
5.750013e-01
5.747093e-01
5.743627e-01
5.740012e-01
5.736384e-01
5.733497e-01
0.000000e+00
1.000000e+00
5.731693e-01
5.730975e-01
5.731622e-01
5.732193e-01
5.732735e-01
5.733189e-01
5.733494e-01
5.733601e-01
5.733490e-01
5.733183e-01
5.732722e-01
5.732172e-01
5.731637e-01
5.731041e-01
5.731234e-01
0.000000e+00
1.000000e+00
5.727037e-01
5.721388e-01
5.716603e-01
5.711629e-01
5.706913e-01
5.702948e-01
5.700276e-01
5.699328e-01
5.700272e-01
5.702946e-01
5.706916e-01
5.711632e-01
5.716656e-01
5.721475e-01
5.725052e-01
0.000000e+00
1.000000e+00
5.720818e-01
5.708610e-01
5.696568e-01
5.684199e-01
5.672472e-01
5.662619e-01
5.655980e-01
5.653630e-01
5.655987e-01
5.662641e-01
5.672521e-01
5.684267e-01
5.696715e-01
5.708717e-01
5.720077e-01
0.000000e+00
1.000000e+00
5.713763e-01
5.693695e-01
5.673173e-01
5.652171e-01
5.632260e-01
5.615534e-01
5.604270e-01
5.600291e-01
5.604304e-01
5.615607e-01
5.632366e-01
5.652291e-01
5.673352e-01
5.693676e-01
5.712584e-01
0.000000e+00
1.000000e+00
5.642624e-01
5.546075e-01
5.442112e-01
5.335830e-01
5.235101e-01
5.150533e-01
5.093651e-01
5.073665e-01
5.094099e-01
5.151362e-01
5.236144e-01
5.337030e-01
5.443042e-01
5.547848e-01
5.641047e-01
0.000000e+00
1.000000e+00
5.648404e-01
5.558468e-01
5.461520e-01
5.362402e-01
5.268463e-01
5.189596e-01
5.136552e-01
5.117919e-01
5.136983e-01
5.190388e-01
5.269450e-01
5.363691e-01
5.462451e-01
5.559394e-01
5.647436e-01
0.000000e+00
1.000000e+00
5.656171e-01
5.574773e-01
5.487023e-01
5.397313e-01
5.312287e-01
5.240899e-01
5.192882e-01
5.176010e-01
5.193257e-01
5.241581e-01
5.313120e-01
5.398545e-01
5.487878e-01
5.575543e-01
5.655300e-01
0.000000e+00
1.000000e+00
5.665689e-01
5.594709e-01
5.518215e-01
5.440015e-01
5.365895e-01
5.303660e-01
5.261798e-01
5.247085e-01
5.262117e-01
5.304240e-01
5.366597e-01
5.441155e-01
5.519020e-01
5.595596e-01
5.664682e-01
0.000000e+00
1.000000e+00
5.676636e-01
5.617657e-01
5.554124e-01
5.489177e-01
5.427615e-01
5.375921e-01
5.341145e-01
5.328920e-01
5.341400e-01
5.376382e-01
5.428178e-01
5.490211e-01
5.554894e-01
5.618857e-01
5.674310e-01
0.000000e+00
1.000000e+00
5.688598e-01
5.642572e-01
5.593112e-01
5.542555e-01
5.494630e-01
5.454384e-01
5.427306e-01
5.417782e-01
5.427492e-01
5.454719e-01
5.495048e-01
5.543474e-01
5.593854e-01
5.643974e-01
5.684773e-01
0.000000e+00
1.000000e+00
5.700794e-01
5.668014e-01
5.632942e-01
5.597087e-01
5.563098e-01
5.534552e-01
5.515341e-01
5.508575e-01
5.515453e-01
5.534757e-01
5.563358e-01
5.597886e-01
5.633647e-01
5.669390e-01
5.696887e-01
0.000000e+00
1.000000e+00
5.712413e-01
5.692320e-01
5.670988e-01
5.649177e-01
5.628500e-01
5.611131e-01
5.599437e-01
5.595307e-01
5.599476e-01
5.611207e-01
5.628586e-01
5.649843e-01
5.671640e-01
5.693629e-01
5.707694e-01
0.000000e+00
1.000000e+00
5.722828e-01
5.713764e-01
5.704557e-01
5.695137e-01
5.686206e-01
5.678701e-01
5.673642e-01
5.671843e-01
5.673621e-01
5.678660e-01
5.686117e-01
5.695582e-01
5.705082e-01
5.714733e-01
5.717846e-01
0.000000e+00
1.000000e+00
5.731243e-01
5.730812e-01
5.731278e-01
5.731724e-01
5.732146e-01
5.732497e-01
5.732728e-01
5.732795e-01
5.732680e-01
5.732398e-01
5.731974e-01
5.731847e-01
5.731652e-01
5.731335e-01
5.728002e-01
0.000000e+00
1.000000e+00
5.736953e-01
5.742398e-01
5.749464e-01
5.756624e-01
5.763414e-01
5.769117e-01
5.772955e-01
5.774302e-01
5.772914e-01
5.769036e-01
5.763298e-01
5.756642e-01
5.749761e-01
5.742732e-01
5.734934e-01
0.000000e+00
1.000000e+00
5.739755e-01
5.748031e-01
5.758320e-01
5.768749e-01
5.778639e-01
5.786949e-01
5.792546e-01
5.794523e-01
5.792527e-01
5.786916e-01
5.778621e-01
5.768833e-01
5.758564e-01
5.748283e-01
5.737738e-01
0.000000e+00
1.000000e+00
5.739756e-01
5.747786e-01
5.757972e-01
5.768272e-01
5.778040e-01
5.786247e-01
5.791777e-01
5.793735e-01
5.791774e-01
5.786245e-01
5.778063e-01
5.768366e-01
5.758157e-01
5.747991e-01
5.738486e-01
0.000000e+00
1.000000e+00
5.737082e-01
5.742249e-01
5.749326e-01
5.756433e-01
5.763172e-01
5.768835e-01
5.772650e-01
5.773999e-01
5.772646e-01
5.768831e-01
5.763181e-01
5.756475e-01
5.749471e-01
5.742472e-01
5.736435e-01
0.000000e+00
1.000000e+00
5.732171e-01
5.732349e-01
5.733820e-01
5.735201e-01
5.736510e-01
5.737610e-01
5.738349e-01
5.738607e-01
5.738338e-01
5.737598e-01
5.736507e-01
5.735218e-01
5.733944e-01
5.732523e-01
5.730008e-01
0.000000e+00
1.000000e+00
5.725681e-01
5.719161e-01
5.713144e-01
5.706894e-01
5.700969e-01
5.695990e-01
5.692634e-01