<?xml version="1.0"?>
<VTKFile type="StructuredGrid" version="0.1">
  <StructuredGrid WholeExtent="0 16 0 16 0 16">
    <Piece Extent="0 16 0 16 0 16">
      <PointData Scalars="temperature" Vectors="velocity">
        <DataArray type="Float32" Name="temperature" format="ascii">
1.000000e+00
5.729612e-01
5.730760e-01
5.731179e-01
5.731582e-01
5.731959e-01
5.732273e-01
5.732484e-01
5.732555e-01
5.732470e-01
5.732247e-01
5.731920e-01
5.731535e-01
5.731131e-01
5.730950e-01
5.729027e-01
0.000000e+00
1.000000e+00
5.728882e-01
5.729314e-01
5.728779e-01
5.728298e-01
5.727842e-01
5.727458e-01
5.727197e-01
5.727100e-01
5.727185e-01
5.727436e-01
5.727815e-01
5.728267e-01
5.728745e-01
5.729453e-01
5.727832e-01
0.000000e+00
1.000000e+00
5.728520e-01
5.727460e-01
5.725943e-01
5.724423e-01
5.722977e-01
5.721760e-01
5.720938e-01
5.720643e-01
5.720928e-01
5.721741e-01
5.722952e-01
5.724396e-01
5.725918e-01
5.727631e-01
5.727177e-01
0.000000e+00
1.000000e+00
5.727728e-01
5.725362e-01
5.722734e-01
5.720025e-01
5.717453e-01
5.715290e-01
5.713831e-01
5.713311e-01
5.713821e-01
5.715272e-01
5.717429e-01
5.719997e-01
5.722706e-01
5.725588e-01
5.725846e-01
0.000000e+00
1.000000e+00
5.726785e-01
5.723101e-01
5.719231e-01
5.715229e-01
5.711431e-01
5.708238e-01
5.706085e-01
5.705319e-01
5.706076e-01
5.708222e-01
5.711408e-01
5.715203e-01
5.719205e-01
5.723363e-01
5.724867e-01
0.000000e+00
1.000000e+00
5.725751e-01
5.720752e-01
5.715573e-01
5.710221e-01
5.705143e-01
5.700874e-01
5.697996e-01
5.696975e-01
5.697989e-01
5.700859e-01
5.705122e-01
5.710197e-01
5.715549e-01
5.721032e-01
5.723728e-01
0.000000e+00
1.000000e+00
5.724668e-01
5.718420e-01
5.711927e-01
5.705228e-01
5.698874e-01
5.693534e-01
5.689934e-01
5.688657e-01
5.689927e-01
5.693521e-01
5.698857e-01
5.705208e-01
5.711906e-01
5.718713e-01
5.722546e-01
0.000000e+00
1.000000e+00
5.723573e-01
5.716224e-01
5.708480e-01
5.700508e-01
5.692947e-01
5.686593e-01
5.682310e-01
5.680792e-01
5.682305e-01
5.686583e-01
5.692933e-01
5.700491e-01
5.708460e-01
5.716521e-01
5.721390e-01
0.000000e+00
1.000000e+00
5.722535e-01
5.714278e-01
5.705419e-01
5.696318e-01
5.687686e-01
5.680432e-01
5.675544e-01
5.673812e-01
5.675541e-01
5.680426e-01
5.687676e-01
5.696304e-01
5.705402e-01
5.714568e-01
5.720638e-01
0.000000e+00
1.000000e+00
5.721601e-01
5.712697e-01
5.702915e-01
5.692890e-01
5.683383e-01
5.675394e-01
5.670012e-01
5.668106e-01
5.670013e-01
5.675395e-01
5.683381e-01
5.692884e-01
5.702904e-01
5.712954e-01
5.719927e-01
0.000000e+00
1.000000e+00
5.720835e-01
5.711561e-01
5.701101e-01
5.690409e-01
5.680268e-01
5.671747e-01
5.666008e-01
5.663977e-01
5.666013e-01
5.671756e-01
5.680276e-01
5.690413e-01
5.701100e-01
5.711746e-01
5.719409e-01
0.000000e+00
1.000000e+00
5.720402e-01
5.710897e-01
5.700061e-01
5.688985e-01
5.678481e-01
5.669656e-01
5.663713e-01
5.661612e-01
5.663724e-01
5.669675e-01
5.678502e-01
5.689002e-01
5.700071e-01
5.711067e-01
5.718195e-01
0.000000e+00
1.000000e+00
5.720170e-01
5.710755e-01
5.699819e-01
5.688655e-01
5.678068e-01
5.669173e-01
5.663184e-01
5.661068e-01
5.663200e-01
5.669201e-01
5.678101e-01
5.688687e-01
5.699844e-01
5.710946e-01
5.717317e-01
0.000000e+00
1.000000e+00
5.720255e-01
5.711115e-01
5.700349e-01
5.689380e-01
5.678979e-01
5.670241e-01
5.664358e-01
5.662281e-01
5.664378e-01
5.670276e-01
5.679022e-01
5.689423e-01
5.700385e-01
5.711540e-01
5.715104e-01
0.000000e+00
1.000000e+00
5.720619e-01
5.711893e-01
5.701578e-01
5.691062e-01
5.681090e-01
5.672714e-01
5.667075e-01
5.665086e-01
5.667097e-01
5.672753e-01
5.681139e-01
5.691112e-01
5.701621e-01
5.712675e-01
5.713738e-01
0.000000e+00
1.000000e+00
5.721036e-01
5.713067e-01
5.703403e-01
5.693560e-01
5.684227e-01
5.676387e-01
5.671109e-01
5.669248e-01
5.671130e-01
5.676425e-01
5.684275e-01
5.693610e-01
5.703448e-01
5.714022e-01
5.715256e-01
0.000000e+00
1.000000e+00
5.721269e-01
5.714603e-01
5.705711e-01
5.696715e-01
5.688187e-01
5.681022e-01
5.676200e-01
5.674499e-01
5.676219e-01
5.681057e-01
5.688230e-01
5.696760e-01
5.705751e-01
5.716154e-01
5.711454e-01
0.000000e+00
1.000000e+00
5.728958e-01
5.729356e-01
5.728912e-01
5.728463e-01
5.728034e-01
5.727673e-01
5.727431e-01
5.727343e-01
5.727422e-01
5.727654e-01
5.728002e-01
5.728418e-01
5.728857e-01
5.729546e-01
5.727869e-01
0.000000e+00
1.000000e+00
5.728428e-01
5.727781e-01
5.726395e-01
5.725037e-01
5.723748e-01
5.722666e-01
5.721935e-01
5.721673e-01
5.721926e-01
5.722650e-01
5.723728e-01
5.725014e-01
5.726370e-01
5.727940e-01
5.726962e-01
0.000000e+00
1.000000e+00
5.727915e-01
5.725852e-01
5.723462e-01
5.721025e-01
5.718713e-01
5.716766e-01
5.715453e-01
5.714984e-01
5.715443e-01
5.716749e-01
5.718690e-01
5.721001e-01
5.723440e-01
5.726067e-01
5.726187e-01
0.000000e+00
1.000000e+00
5.727124e-01
5.723684e-01
5.720150e-01
5.716486e-01
5.713010e-01
5.710087e-01
5.708115e-01
5.707414e-01
5.708107e-01
5.710070e-01
5.712987e-01
5.716461e-01
5.720124e-01
5.723951e-01
5.725104e-01
0.000000e+00
1.000000e+00
5.726091e-01
5.721356e-01
5.716550e-01
5.711558e-01
5.706821e-01
5.702839e-01
5.700155e-01
5.699201e-01
5.700147e-01
5.702824e-01
5.706801e-01
5.711534e-01
5.716527e-01
5.721663e-01
5.723918e-01
0.000000e+00
1.000000e+00
5.724984e-01
5.718957e-01
5.712815e-01
5.706444e-01
5.700400e-01
5.695320e-01
5.691895e-01
5.690680e-01
5.691888e-01
5.695307e-01
5.700382e-01
5.706423e-01
5.712794e-01
5.719290e-01
5.722738e-01
0.000000e+00
1.000000e+00
5.723838e-01
5.716605e-01
5.709127e-01
5.701395e-01
5.694061e-01
5.687896e-01
5.683741e-01
5.682268e-01
5.683736e-01
5.687885e-01
5.694045e-01
5.701377e-01
5.709109e-01
5.716946e-01
5.721563e-01
0.000000e+00
1.000000e+00
5.722711e-01
5.714420e-01
5.705692e-01
5.696691e-01
5.688154e-01
5.680979e-01
5.676144e-01
5.674430e-01
5.676140e-01
5.680971e-01
5.688142e-01
5.696676e-01
5.705675e-01
5.714764e-01
5.720396e-01
0.000000e+00
1.000000e+00
5.721697e-01
5.712531e-01
5.702711e-01
5.692609e-01
5.683029e-01
5.674978e-01
5.669554e-01
5.667632e-01
5.669552e-01
5.674974e-01
5.683021e-01
5.692598e-01
5.702697e-01
5.712874e-01
5.719456e-01
0.000000e+00
1.000000e+00
5.720789e-01
5.711051e-01
5.700364e-01
5.689397e-01
5.678996e-01
5.670257e-01
5.664369e-01
5.662284e-01
5.664370e-01
5.670258e-01
5.678995e-01
5.689391e-01
5.700354e-01
5.711397e-01
5.718667e-01
0.000000e+00
1.000000e+00
5.720111e-01
5.710069e-01
5.698787e-01
5.687239e-01
5.676288e-01
5.667086e-01
5.660888e-01
5.658695e-01
5.660894e-01
5.667095e-01
5.676295e-01
5.687241e-01
5.698782e-01
5.710395e-01
5.718454e-01
0.000000e+00
1.000000e+00
5.719738e-01
5.709616e-01
5.698056e-01
5.686239e-01
5.675033e-01
5.665618e-01
5.659278e-01
5.657036e-01
5.659288e-01
5.665636e-01
5.675051e-01
5.686250e-01
5.698057e-01
5.709925e-01
5.718276e-01
0.000000e+00
1.000000e+00
5.719588e-01
5.709719e-01
5.698182e-01
5.686414e-01
5.675253e-01
5.665876e-01
5.659563e-01
5.657332e-01
5.659578e-01
5.665903e-01
5.675281e-01
5.686436e-01
5.698192e-01
5.709952e-01
5.718709e-01
0.000000e+00
1.000000e+00
5.719659e-01
5.710366e-01
5.699121e-01
5.687697e-01
5.676864e-01
5.667764e-01
5.661637e-01
5.659474e-01
5.661657e-01
5.667798e-01
5.676903e-01
5.687730e-01
5.699140e-01
5.710582e-01
5.717744e-01
0.000000e+00
1.000000e+00
5.720127e-01
5.711439e-01
5.700775e-01
5.689961e-01
5.679707e-01
5.671093e-01
5.665293e-01
5.663247e-01
5.665314e-01
5.671130e-01
5.679752e-01
5.690002e-01
5.700801e-01
5.711863e-01
5.716597e-01
0.000000e+00
1.000000e+00
5.720721e-01
5.712897e-01
5.703021e-01
5.693036e-01
5.683567e-01
5.675613e-01
5.670257e-01
5.668368e-01
5.670277e-01
5.675649e-01
5.683612e-01
5.693082e-01
5.703057e-01
5.713299e-01
5.718505e-01
0.000000e+00
1.000000e+00
5.721703e-01
5.714633e-01
5.705724e-01
5.696735e-01
5.688211e-01
5.681050e-01
5.676229e-01
5.674527e-01
5.676245e-01
5.681079e-01
5.688248e-01
5.696774e-01
5.705761e-01
5.715697e-01
5.714324e-01
0.000000e+00
1.000000e+00
5.728742e-01
5.728107e-01
5.726922e-01
5.725744e-01
5.724625e-01
5.723686e-01
5.723054e-01
5.722830e-01
5.723051e-01
5.723675e-01
5.724604e-01
5.725712e-01
5.726881e-01
5.728281e-01
5.727060e-01
0.000000e+00
1.000000e+00
5.728248e-01
5.726415e-01
5.724344e-01
5.722229e-01
5.720221e-01
5.718536e-01
5.717400e-01
5.716996e-01
5.717394e-01
5.718525e-01
5.720207e-01
5.722210e-01
5.724323e-01
5.726609e-01
5.726644e-01
0.000000e+00
1.000000e+00
5.727538e-01
5.724417e-01
5.721334e-01
5.718110e-01
5.715053e-01
5.712482e-01
5.710747e-01
5.710130e-01
5.710739e-01
5.712467e-01
5.715034e-01
5.718091e-01
5.721316e-01
5.724694e-01
5.725447e-01
0.000000e+00
1.000000e+00
5.726675e-01
5.722220e-01
5.717943e-01
5.713465e-01
5.709217e-01
5.705644e-01
5.703236e-01
5.702381e-01
5.703229e-01
5.705630e-01
5.709197e-01
5.713444e-01
5.717922e-01
5.722541e-01
5.724444e-01
0.000000e+00
1.000000e+00
5.725611e-01
5.719851e-01
5.714274e-01
5.708440e-01
5.702906e-01
5.698255e-01
5.695119e-01
5.694006e-01
5.695113e-01
5.698242e-01
5.702889e-01
5.708421e-01
5.714254e-01
5.720202e-01
5.723318e-01
0.000000e+00
1.000000e+00
5.724454e-01
5.717422e-01
5.710488e-01
5.703257e-01
5.696398e-01
5.690633e-01
5.686748e-01
5.685370e-01
5.686743e-01
5.690623e-01
5.696384e-01
5.703240e-01
5.710470e-01
5.717796e-01
5.722106e-01
0.000000e+00
1.000000e+00
5.723244e-01
5.715067e-01
5.706786e-01
5.698188e-01
5.690033e-01
5.683179e-01
5.678561e-01
5.676924e-01
5.678557e-01
5.683171e-01
5.690021e-01
5.698174e-01
5.706770e-01
5.715442e-01
5.720897e-01
0.000000e+00
1.000000e+00
5.722131e-01
5.712903e-01
5.703386e-01
5.693533e-01
5.684189e-01
5.676336e-01
5.671044e-01
5.669169e-01
5.671041e-01
5.676330e-01
5.684180e-01
5.693522e-01
5.703373e-01
5.713277e-01
5.719843e-01
0.000000e+00
1.000000e+00
5.721116e-01
5.711079e-01
5.700507e-01
5.689591e-01
5.679239e-01
5.670540e-01
5.664679e-01
5.662603e-01
5.664678e-01
5.670537e-01
5.679233e-01
5.689582e-01
5.700495e-01
5.711440e-01
5.718957e-01
0.000000e+00
1.000000e+00
5.720306e-01
5.709713e-01
5.698336e-01
5.686619e-01
5.675508e-01
5.666171e-01
5.659881e-01
5.657654e-01
5.659882e-01
5.666172e-01
5.675506e-01
5.686614e-01
5.698327e-01
5.710060e-01
5.718278e-01
0.000000e+00
1.000000e+00
5.719718e-01
5.708884e-01
5.697008e-01
5.684802e-01
5.673228e-01
5.663502e-01
5.656950e-01
5.654632e-01
5.656955e-01
5.663508e-01
5.673231e-01
5.684801e-01
5.697002e-01
5.709225e-01
5.717821e-01
0.000000e+00
1.000000e+00
5.719431e-01
5.708637e-01
5.696592e-01
5.684233e-01
5.672514e-01
5.662667e-01
5.656035e-01
5.653690e-01
5.656043e-01
5.662680e-01
5.672524e-01
5.684237e-01
5.696589e-01
5.708983e-01
5.717578e-01
0.000000e+00
1.000000e+00
5.719399e-01
5.708971e-01
5.697083e-01
5.684906e-01
5.673359e-01
5.663658e-01
5.657125e-01
5.654816e-01
5.657137e-01
5.663678e-01
5.673377e-01
5.684916e-01
5.697083e-01
5.709292e-01
5.717884e-01
0.000000e+00
1.000000e+00
5.719669e-01
5.709844e-01
5.698414e-01
5.686728e-01
5.675646e-01
5.666337e-01
5.660069e-01
5.657855e-01
5.660085e-01
5.666363e-01
5.675673e-01
5.686745e-01
5.698420e-01
5.710134e-01
5.717716e-01
0.000000e+00
1.000000e+00
5.720242e-01
5.711176e-01
5.700468e-01
5.689540e-01
5.679177e-01
5.670471e-01
5.664610e-01
5.662540e-01
5.664628e-01
5.670502e-01
5.679211e-01
5.689565e-01
5.700478e-01
5.711566e-01
5.717032e-01
0.000000e+00
1.000000e+00
5.721037e-01
5.712889e-01
5.703100e-01
5.693144e-01
5.683703e-01
5.675771e-01
5.670430e-01
5.668545e-01
5.670447e-01
5.675801e-01
5.683739e-01
5.693178e-01
5.703122e-01
5.713263e-01
5.718451e-01
0.000000e+00
1.000000e+00
5.722119e-01
5.714871e-01
5.706160e-01
5.697333e-01
5.688962e-01
5.681929e-01
5.677193e-01
5.675520e-01
5.677205e-01
5.681952e-01
5.688990e-01
5.697362e-01
5.706187e-01
5.715723e-01
5.715459e-01
0.000000e+00
1.000000e+00
5.728844e-01
5.727062e-01
5.725375e-01
5.723628e-01
5.721969e-01
5.720576e-01
5.719639e-01
5.719308e-01
5.719639e-01
5.720571e-01
5.721954e-01
5.723603e-01
5.725341e-01
5.727181e-01
5.726424e-01
0.000000e+00
1.000000e+00
5.728188e-01
5.725290e-01
5.722762e-01
5.720063e-01
5.717502e-01
5.715350e-01
5.713903e-01
5.713389e-01
5.713899e-01
5.715344e-01
5.717492e-01
5.720049e-01
5.722746e-01
5.725581e-01
5.725902e-01
0.000000e+00
1.000000e+00
5.727370e-01
5.723268e-01
5.719711e-01
5.715888e-01
5.712262e-01
5.709215e-01
5.707160e-01
5.706430e-01
5.707154e-01
5.709204e-01
5.712249e-01
5.715875e-01
5.719698e-01
5.723650e-01
5.725060e-01
0.000000e+00
1.000000e+00
5.726455e-01
5.721076e-01
5.716278e-01
5.711188e-01
5.706358e-01
5.702297e-01
5.699560e-01
5.698589e-01
5.699554e-01
5.702286e-01
5.706343e-01
5.711172e-01
5.716263e-01
5.721477e-01
5.723867e-01
0.000000e+00
1.000000e+00
5.725343e-01
5.718700e-01
5.712579e-01
5.706119e-01
5.699992e-01
5.694842e-01
5.691371e-01
5.690140e-01
5.691366e-01
5.694833e-01
5.699979e-01
5.706104e-01
5.712562e-01
5.719122e-01
5.722756e-01
0.000000e+00
1.000000e+00
5.724145e-01
5.716269e-01
5.708779e-01
5.700917e-01
5.693460e-01
5.687192e-01
5.682969e-01
5.681472e-01
5.682965e-01
5.687185e-01
5.693449e-01
5.700904e-01
5.708765e-01
5.716705e-01
5.721524e-01
0.000000e+00
1.000000e+00
5.722935e-01
5.713928e-01
5.705094e-01
5.695872e-01
5.687125e-01
5.679774e-01
5.674820e-01
5.673065e-01
5.674818e-01
5.679769e-01
5.687117e-01
5.695862e-01
5.705082e-01
5.714367e-01
5.720382e-01
0.000000e+00
1.000000e+00
5.721815e-01
5.711807e-01
5.701758e-01
5.691304e-01
5.681390e-01
5.673058e-01
5.667444e-01
5.665455e-01
5.667443e-01
5.673055e-01
5.681384e-01
5.691296e-01
5.701747e-01
5.712246e-01
5.719338e-01
0.000000e+00
1.000000e+00
5.720865e-01
5.710060e-01
5.698999e-01
5.687527e-01
5.676648e-01
5.667505e-01
5.661345e-01
5.659164e-01
5.661345e-01
5.667504e-01
5.676644e-01
5.687521e-01
5.698990e-01
5.710487e-01
5.718507e-01
0.000000e+00
1.000000e+00
5.720097e-01
5.708811e-01
5.697013e-01
5.684808e-01
5.673233e-01
5.663508e-01
5.656955e-01
5.654635e-01
5.656956e-01
5.663509e-01
5.673232e-01
5.684804e-01
5.697005e-01
5.709218e-01
5.717894e-01
0.000000e+00
1.000000e+00
5.719640e-01
5.708143e-01
5.695932e-01
5.683329e-01
5.671377e-01
5.661335e-01
5.654569e-01
5.652174e-01
5.654572e-01
5.661338e-01
5.671378e-01
5.683327e-01
5.695926e-01
5.708527e-01
5.717561e-01
0.000000e+00
1.000000e+00
5.719452e-01
5.708089e-01
5.695816e-01
5.683170e-01
5.671179e-01
5.661103e-01
5.654316e-01
5.651914e-01
5.654320e-01
5.661109e-01
5.671183e-01
5.683170e-01
5.695811e-01
5.708457e-01
5.717514e-01
0.000000e+00
1.000000e+00
5.719544e-01
5.708634e-01
5.696643e-01
5.684303e-01
5.672602e-01
5.662771e-01
5.656149e-01
5.653806e-01
5.656156e-01
5.662781e-01
5.672610e-01
5.684306e-01
5.696640e-01
5.708991e-01
5.717955e-01
0.000000e+00
1.000000e+00
5.719971e-01
5.709729e-01
5.698328e-01
5.686609e-01
5.675497e-01
5.666161e-01
5.659873e-01
5.657650e-01
5.659883e-01
5.666176e-01
5.675510e-01
5.686615e-01
5.698326e-01
5.710038e-01
5.718524e-01
0.000000e+00
1.000000e+00
5.720677e-01
5.711286e-01
5.700731e-01
5.689899e-01
5.679629e-01
5.671000e-01
5.665188e-01
5.663135e-01
5.665200e-01
5.671019e-01
5.679648e-01
5.689911e-01
5.700732e-01
5.711589e-01
5.718584e-01
0.000000e+00
1.000000e+00
5.721540e-01
5.713210e-01
5.703691e-01
5.693954e-01
5.684720e-01
5.676961e-01
5.671736e-01
5.669890e-01
5.671748e-01
5.676981e-01
5.684743e-01
5.693973e-01
5.703701e-01
5.713431e-01
5.719849e-01
0.000000e+00
1.000000e+00
5.722669e-01
5.715394e-01
5.707046e-01
5.698547e-01
5.690486e-01
5.683713e-01
5.679151e-01
5.677538e-01
5.679159e-01
5.683727e-01
5.690503e-01
5.698563e-01
5.707061e-01
5.715936e-01
5.717553e-01
0.000000e+00
1.000000e+00
5.729077e-01
5.726288e-01
5.724389e-01
5.722280e-01
5.720277e-01
5.718594e-01
5.717462e-01
5.717063e-01
5.717465e-01
5.718593e-01
5.720266e-01
5.722259e-01
5.724359e-01
5.726225e-01
5.726280e-01
0.000000e+00
1.000000e+00
5.728323e-01
5.724510e-01
5.721786e-01
5.718727e-01
5.715824e-01
5.713386e-01
5.711746e-01
5.711165e-01
5.711744e-01
5.713384e-01
5.715818e-01
5.718718e-01
5.721774e-01
5.724832e-01
5.725377e-01
0.000000e+00
1.000000e+00
5.727459e-01
5.722524e-01
5.718744e-01
5.714564e-01
5.710601e-01
5.707270e-01
5.705025e-01
5.704227e-01
5.705020e-01
5.707262e-01
5.710592e-01
5.714556e-01
5.718735e-01
5.722988e-01
5.724657e-01
0.000000e+00
1.000000e+00
5.726444e-01
5.720388e-01
5.715322e-01
5.709880e-01
5.704716e-01
5.700375e-01
5.697449e-01
5.696411e-01
5.697444e-01
5.700366e-01
5.704704e-01
5.709868e-01
5.715312e-01
5.720844e-01
5.723519e-01
0.000000e+00
1.000000e+00
5.725343e-01
5.718030e-01
5.711640e-01
5.704836e-01
5.698381e-01
5.692955e-01
5.689299e-01
5.688003e-01
5.689295e-01
5.692949e-01
5.698371e-01
5.704825e-01
5.711629e-01
5.718511e-01
5.722498e-01
0.000000e+00
1.000000e+00
5.724112e-01
5.715623e-01
5.707873e-01
5.699678e-01
5.691904e-01
5.685370e-01
5.680967e-01
5.679407e-01
5.680965e-01
5.685366e-01
5.691897e-01
5.699669e-01
5.707864e-01
5.716118e-01
5.721325e-01
0.000000e+00
1.000000e+00
5.722919e-01
5.713304e-01
5.704245e-01
5.694710e-01
5.685666e-01
5.678065e-01
5.672944e-01
5.671130e-01
5.672943e-01
5.678063e-01
5.685662e-01
5.694704e-01
5.704237e-01
5.713815e-01
5.720056e-01
0.000000e+00
1.000000e+00
5.721840e-01
5.711248e-01
5.701000e-01
5.690267e-01
5.680087e-01
5.671532e-01
5.665768e-01
5.663727e-01
5.665768e-01
5.671532e-01
5.680085e-01
5.690262e-01
5.700993e-01
5.711756e-01
5.719051e-01
0.000000e+00
1.000000e+00
5.720916e-01
5.709597e-01
5.698376e-01
5.686674e-01
5.675576e-01
5.666249e-01
5.659966e-01
5.657741e-01
5.659967e-01
5.666250e-01
5.675575e-01
5.686671e-01
5.698370e-01
5.710085e-01
5.718258e-01
0.000000e+00
1.000000e+00
5.720268e-01
5.708442e-01
5.696571e-01
5.684203e-01
5.672473e-01
5.662617e-01
5.655976e-01
5.653624e-01
5.655977e-01
5.662618e-01
5.672473e-01
5.684200e-01
5.696566e-01
5.708933e-01
5.717784e-01
0.000000e+00
1.000000e+00
5.719871e-01
5.707922e-01
5.695718e-01
5.683034e-01
5.671005e-01
5.660898e-01
5.654088e-01
5.651677e-01
5.654089e-01
5.660899e-01
5.671005e-01
5.683031e-01
5.695712e-01
5.708383e-01
5.717511e-01
0.000000e+00
1.000000e+00
5.719798e-01
5.708035e-01
5.695862e-01
5.683232e-01
5.671255e-01
5.661191e-01
5.654411e-01
5.652010e-01
5.654412e-01
5.661193e-01
5.671255e-01
5.683230e-01
5.695856e-01
5.708468e-01
5.717584e-01
0.000000e+00
1.000000e+00
5.720020e-01
5.708744e-01
5.696971e-01
5.684751e-01
5.673163e-01
5.663426e-01
5.656866e-01
5.654544e-01
5.656868e-01
5.663428e-01
5.673164e-01
5.684749e-01
5.696965e-01
5.709189e-01
5.717711e-01
0.000000e+00
1.000000e+00
5.720531e-01
5.710023e-01
5.698941e-01
5.687447e-01
5.676549e-01
5.667391e-01
5.661222e-01
5.659038e-01
5.661225e-01
5.667395e-01
5.676550e-01
5.687445e-01
5.698934e-01
5.710444e-01
5.718503e-01
0.000000e+00
1.000000e+00
5.721289e-01
5.711768e-01
5.701616e-01
5.691111e-01
5.681149e-01
5.672778e-01
5.667139e-01
5.665144e-01
5.667144e-01
5.672785e-01
5.681154e-01
5.691110e-01
5.701608e-01
5.712139e-01
5.719357e-01
0.000000e+00
1.000000e+00
5.722243e-01
5.713849e-01
5.704822e-01
5.695502e-01
5.686662e-01
5.679234e-01
5.674231e-01
5.672461e-01
5.674236e-01
5.679243e-01
5.686670e-01
5.695506e-01
5.704819e-01
5.714083e-01
5.720963e-01
0.000000e+00
1.000000e+00
5.723423e-01
5.716175e-01
5.708385e-01
5.700379e-01
5.692786e-01
5.686406e-01
5.682108e-01
5.680587e-01
5.682111e-01
5.686411e-01
5.692792e-01
5.700383e-01
5.708387e-01
5.716550e-01
5.719400e-01
0.000000e+00
1.000000e+00
5.729505e-01
5.725863e-01
5.724067e-01
5.721842e-01
5.719729e-01
5.717954e-01
5.716759e-01
5.716338e-01
5.716763e-01
5.717955e-01
5.719721e-01
5.721824e-01
5.724041e-01
5.725518e-01
5.728008e-01
0.000000e+00
1.000000e+00
5.728684e-01
5.724170e-01
5.721532e-01
5.718382e-01
5.715391e-01
5.712878e-01
5.711189e-01
5.710592e-01
5.711190e-01
5.712879e-01
5.715387e-01
5.718373e-01
5.721522e-01
5.724313e-01
5.725062e-01
0.000000e+00
1.000000e+00
5.727715e-01
5.722307e-01
5.718562e-01
5.714315e-01
5.710288e-01
5.706905e-01
5.704624e-01
5.703815e-01
5.704620e-01
5.706898e-01
5.710280e-01
5.714308e-01
5.718555e-01
5.722643e-01
5.724370e-01
0.000000e+00
1.000000e+00
5.726640e-01
5.720252e-01
5.715212e-01
5.709730e-01
5.704530e-01
5.700157e-01
5.697210e-01
5.696165e-01
5.697206e-01
5.700149e-01
5.704519e-01
5.709721e-01
5.715206e-01
5.720639e-01
5.723252e-01
0.000000e+00
1.000000e+00
5.725563e-01
5.717951e-01
5.711610e-01
5.704793e-01
5.698328e-01
5.692894e-01
5.689232e-01
5.687934e-01
5.689228e-01
5.692888e-01
5.698320e-01
5.704785e-01
5.711601e-01
5.718441e-01
5.722343e-01
0.000000e+00
1.000000e+00
5.724419e-01
5.715575e-01
5.707928e-01
5.699753e-01
5.691998e-01
5.685481e-01
5.681089e-01
5.679533e-01
5.681088e-01
5.685478e-01
5.691994e-01
5.699747e-01
5.707922e-01
5.716142e-01
5.721253e-01
0.000000e+00
1.000000e+00
5.723289e-01
5.713290e-01
5.704399e-01
5.694920e-01
5.685930e-01
5.678375e-01
5.673284e-01
5.671481e-01
5.673284e-01
5.678374e-01
5.685928e-01
5.694917e-01
5.704394e-01
5.713901e-01
5.720234e-01
0.000000e+00
1.000000e+00
5.722205e-01
5.711318e-01
5.701272e-01
5.690638e-01
5.680553e-01
5.672078e-01
5.666367e-01
5.664345e-01
5.666368e-01
5.672079e-01
5.680553e-01
5.690636e-01
5.701267e-01
5.711914e-01
5.719165e-01
0.000000e+00
1.000000e+00
5.721351e-01
5.709763e-01
5.698788e-01
5.687238e-01
5.676283e-01
5.667077e-01
5.660874e-01
5.658678e-01
5.660875e-01
5.667078e-01
5.676282e-01
5.687235e-01
5.698784e-01
5.710324e-01
5.718398e-01
0.000000e+00
1.000000e+00
5.720810e-01
5.708690e-01
5.697148e-01
5.684992e-01
5.673464e-01
5.663775e-01
5.657247e-01
5.654934e-01
5.657246e-01
5.663774e-01
5.673461e-01
5.684988e-01
5.697143e-01
5.709263e-01
5.717803e-01
0.000000e+00
1.000000e+00
5.720514e-01
5.708265e-01
5.696480e-01
5.684077e-01
5.672314e-01
5.662429e-01
5.655767e-01
5.653408e-01
5.655766e-01
5.662425e-01
5.672309e-01
5.684071e-01
5.696473e-01
5.708813e-01
5.717637e-01
0.000000e+00
1.000000e+00
5.720531e-01
5.708500e-01
5.696825e-01
5.684549e-01
5.672906e-01
5.663121e-01
5.656527e-01
5.654191e-01
5.656524e-01
5.663115e-01
5.672897e-01
5.684539e-01
5.696815e-01
5.709010e-01
5.717847e-01
0.000000e+00
1.000000e+00
5.720873e-01
5.709342e-01
5.698137e-01
5.686344e-01
5.675159e-01
5.665760e-01
5.659425e-01
5.657180e-01
5.659421e-01
5.665751e-01
5.675147e-01
5.686330e-01
5.698123e-01
5.709826e-01
5.718279e-01
0.000000e+00
1.000000e+00
5.721465e-01
5.710753e-01
5.700301e-01
5.689305e-01
5.678875e-01
5.670109e-01
5.664202e-01
5.662109e-01
5.664197e-01
5.670099e-01
5.678859e-01
5.689285e-01
5.700279e-01
5.711201e-01
5.718935e-01
0.000000e+00
1.000000e+00
5.722284e-01
5.712617e-01
5.703149e-01
5.693204e-01
5.683770e-01
5.675841e-01
5.670497e-01
5.668602e-01
5.670490e-01
5.675828e-01
5.683750e-01
5.693179e-01
5.703121e-01
5.713021e-01
5.720003e-01
0.000000e+00
1.000000e+00
5.723317e-01
5.714806e-01
5.706498e-01
5.697788e-01
5.689526e-01
5.682581e-01
5.677900e-01
5.676240e-01
5.677893e-01
5.682567e-01
5.689506e-01
5.697763e-01
5.706468e-01
5.715085e-01
5.721918e-01
0.000000e+00
1.000000e+00
5.724401e-01
5.717237e-01
5.710164e-01
5.702812e-01
5.695831e-01
5.689964e-01
5.686010e-01
5.684608e-01
5.686003e-01
5.689950e-01
5.695810e-01
5.702785e-01
5.710139e-01
5.717498e-01
5.721468e-01
0.000000e+00
1.000000e+00
5.730066e-01
5.725865e-01
5.724484e-01
5.722417e-01
5.720454e-01
5.718804e-01
5.717692e-01
5.717300e-01
5.717696e-01
5.718804e-01
5.720446e-01
5.722400e-01
5.724459e-01
5.725779e-01
5.734346e-01
0.000000e+00
1.000000e+00
5.729143e-01
5.724419e-01
5.722083e-01
5.719135e-01
5.716337e-01
5.713987e-01
5.712407e-01
5.711850e-01
5.712411e-01
5.713990e-01
5.716335e-01
5.719126e-01
5.722069e-01
5.724270e-01
5.728150e-01
0.000000e+00
1.000000e+00
5.728288e-01
5.722635e-01
5.719250e-01
5.715256e-01
5.711470e-01
5.708290e-01
5.706148e-01
5.705388e-01
5.706145e-01
5.708285e-01
5.711463e-01
5.715248e-01
5.719240e-01
5.722707e-01
5.726748e-01
0.000000e+00
1.000000e+00
5.727324e-01
5.720625e-01
5.716041e-01
5.710865e-01
5.705955e-01
5.701827e-01
5.699045e-01
5.698059e-01
5.699042e-01
5.701820e-01
5.705944e-01
5.710855e-01
5.716033e-01
5.720864e-01
5.724360e-01
0.000000e+00
1.000000e+00
5.726192e-01
5.718442e-01
5.712581e-01
5.706123e-01
5.699998e-01
5.694850e-01
5.691381e-01
5.690152e-01
5.691378e-01
5.694845e-01
5.699990e-01
5.706115e-01
5.712573e-01
5.718905e-01
5.722635e-01
0.000000e+00
1.000000e+00
5.725079e-01
5.716163e-01
5.709041e-01
5.701276e-01
5.693912e-01
5.687723e-01
5.683552e-01
5.682074e-01
5.683550e-01
5.687720e-01
5.693908e-01
5.701273e-01
5.709037e-01
5.716808e-01
5.721523e-01
0.000000e+00
1.000000e+00
5.724038e-01
5.713971e-01
5.705652e-01
5.696636e-01
5.688085e-01
5.680899e-01
5.676056e-01
5.674341e-01
5.676056e-01
5.680898e-01
5.688084e-01
5.696636e-01
5.705650e-01
5.714695e-01
5.720576e-01
0.000000e+00
1.000000e+00
5.723024e-01
5.712064e-01
5.702664e-01
5.692544e-01
5.682947e-01
5.674881e-01
5.669445e-01
5.667520e-01
5.669445e-01
5.674880e-01
5.682946e-01
5.692544e-01
5.702661e-01
5.712788e-01
5.719590e-01
0.000000e+00
1.000000e+00
5.722192e-01
5.710603e-01
5.700317e-01
5.689332e-01
5.678912e-01
5.670155e-01
5.664253e-01
5.662163e-01
5.664252e-01
5.670152e-01
5.678908e-01
5.689327e-01
5.700312e-01
5.711253e-01
5.718961e-01
0.000000e+00
1.000000e+00
5.721746e-01
5.709625e-01
5.698811e-01
5.687269e-01
5.676321e-01
5.667119e-01
5.660918e-01
5.658721e-01
5.660914e-01
5.667112e-01
5.676311e-01
5.687258e-01
5.698801e-01
5.710215e-01
5.718632e-01
0.000000e+00
1.000000e+00
5.721559e-01
5.709240e-01
5.698271e-01
5.686528e-01
5.675390e-01
5.666027e-01
5.659717e-01
5.657480e-01
5.659710e-01
5.666014e-01
5.675371e-01
5.686509e-01
5.698253e-01
5.709781e-01
5.718556e-01
0.000000e+00
1.000000e+00
5.721666e-01
5.709557e-01
5.698734e-01
5.687159e-01
5.676180e-01
5.666951e-01
5.660730e-01
5.658523e-01
5.660719e-01
5.666931e-01
5.676153e-01
5.687131e-01
5.698707e-01
5.710011e-01
5.718617e-01
0.000000e+00
1.000000e+00
5.722088e-01
5.710485e-01
5.700144e-01
5.689090e-01
5.678604e-01
5.669788e-01
5.663845e-01
5.661734e-01
5.663830e-01
5.669761e-01
5.678568e-01
5.689053e-01
5.700111e-01
5.710860e-01
5.719131e-01
0.000000e+00
1.000000e+00
5.722751e-01
5.711957e-01
5.702374e-01
5.692146e-01
5.682445e-01
5.674288e-01
5.668788e-01
5.666834e-01
5.668771e-01
5.674258e-01
5.682407e-01
5.692109e-01
5.702341e-01
5.712256e-01
5.719768e-01
0.000000e+00
1.000000e+00
5.723622e-01
5.713887e-01
5.705269e-01
5.696107e-01
5.687416e-01
5.680111e-01
5.675187e-01
5.673437e-01
5.675171e-01
5.680084e-01
5.687380e-01
5.696068e-01
5.705231e-01
5.714113e-01
5.720802e-01
0.000000e+00
1.000000e+00
5.724574e-01
5.716156e-01
5.708634e-01
5.700718e-01
5.693206e-01
5.686889e-01
5.682629e-01
5.681116e-01
5.682616e-01
5.686863e-01
5.693169e-01
5.700678e-01
5.708597e-01
5.716252e-01
5.722198e-01
0.000000e+00
1.000000e+00
5.725321e-01
5.718576e-01
5.712266e-01
5.705712e-01
5.699492e-01
5.694259e-01
5.690722e-01
5.689462e-01
5.690704e-01
5.694227e-01
5.699459e-01
5.705687e-01
5.712256e-01
5.718677e-01
5.722721e-01
0.000000e+00
1.000000e+00
5.731083e-01
5.726400e-01
5.725672e-01
5.724045e-01
5.722499e-01
5.721200e-01
5.720323e-01
5.720014e-01
5.720326e-01
5.721199e-01
5.722491e-01
5.724029e-01
5.725648e-01
5.727811e-01
5.741398e-01
0.000000e+00
1.000000e+00
5.729892e-01
5.725128e-01
5.723463e-01
5.721024e-01
5.718709e-01
5.716765e-01
5.715459e-01
5.715000e-01
5.715465e-01
5.716772e-01
5.718710e-01
5.721017e-01
5.723448e-01
5.725387e-01
5.733005e-01
0.000000e+00
1.000000e+00
5.729224e-01
5.723456e-01
5.720833e-01
5.717423e-01
5.714191e-01
5.711478e-01
5.709650e-01
5.709003e-01
5.709650e-01
5.711476e-01
5.714187e-01
5.717415e-01
5.720818e-01
5.723571e-01
5.729705e-01
0.000000e+00
1.000000e+00
5.728306e-01
5.721588e-01
5.717831e-01
5.713315e-01
5.709032e-01
5.705432e-01
5.703006e-01
5.702147e-01
5.703004e-01
5.705426e-01
5.709021e-01
5.713302e-01
5.717818e-01
5.721715e-01
5.727133e-01
0.000000e+00
1.000000e+00
5.727281e-01
5.719517e-01
5.714573e-01
5.708852e-01
5.703426e-01
5.698865e-01
5.695793e-01
5.694704e-01
5.695790e-01
5.698860e-01
5.703417e-01
5.708842e-01
5.714564e-01
5.719878e-01
5.723616e-01
0.000000e+00
1.000000e+00
5.726191e-01
5.717378e-01
5.711227e-01
5.704271e-01
5.697673e-01
5.692127e-01
5.688391e-01
5.687067e-01
5.688389e-01
5.692124e-01
5.697667e-01
5.704267e-01
5.711224e-01
5.718030e-01
5.721769e-01
0.000000e+00
1.000000e+00
5.725047e-01
5.715391e-01
5.708014e-01
5.699871e-01
5.692148e-01
5.685657e-01
5.681283e-01
5.679733e-01
5.681281e-01
5.685654e-01
5.692145e-01
5.699870e-01
5.708014e-01
5.716115e-01
5.720989e-01
0.000000e+00
1.000000e+00
5.724151e-01
5.713560e-01
5.705178e-01
5.695987e-01
5.687269e-01
5.679942e-01
5.675005e-01
5.673256e-01
5.675003e-01
5.679939e-01
5.687265e-01
5.695984e-01
5.705175e-01
5.714317e-01
5.720267e-01
0.000000e+00
1.000000e+00
5.723420e-01
5.712130e-01
5.702954e-01
5.692941e-01
5.683443e-01
5.675461e-01
5.670081e-01
5.668174e-01
5.670076e-01
5.675452e-01
5.683433e-01
5.692930e-01
5.702944e-01
5.712845e-01
5.720058e-01
0.000000e+00
1.000000e+00
5.722988e-01
5.711237e-01
5.701537e-01
5.690999e-01
5.681004e-01
5.672603e-01
5.666940e-01
5.664931e-01
5.666931e-01
5.672587e-01
5.680983e-01
5.690978e-01
5.701516e-01
5.711844e-01
5.720478e-01
0.000000e+00
1.000000e+00
5.722949e-01
5.710861e-01
5.701050e-01
5.690331e-01
5.680164e-01
5.671616e-01
5.665854e-01
5.663808e-01
5.665840e-01
5.671591e-01
5.680130e-01
5.690296e-01
5.701015e-01
5.711420e-01
5.721227e-01
0.000000e+00
1.000000e+00
5.723112e-01
5.711190e-01
5.701524e-01
5.690982e-01
5.680981e-01
5.672573e-01
5.666903e-01
5.664888e-01
5.666883e-01
5.672538e-01
5.680936e-01
5.690935e-01
5.701481e-01
5.711636e-01
5.721964e-01
0.000000e+00
1.000000e+00
5.723483e-01
5.712097e-01
5.702904e-01
5.692873e-01
5.683362e-01
5.675365e-01
5.669972e-01
5.668054e-01
5.669950e-01
5.675328e-01
5.683316e-01
5.692829e-01
5.702863e-01
5.712470e-01
5.722878e-01
0.000000e+00
1.000000e+00
5.724154e-01
5.713531e-01
5.705086e-01
5.695857e-01
5.687106e-01
5.679749e-01
5.674790e-01
5.673029e-01
5.674774e-01
5.679719e-01
5.687065e-01
5.695813e-01
5.705041e-01
5.713828e-01
5.723942e-01
0.000000e+00
1.000000e+00
5.724896e-01
5.715528e-01
5.707902e-01
5.699711e-01
5.691941e-01
5.685408e-01
5.681002e-01
5.679437e-01
5.680987e-01
5.685378e-01
5.691898e-01
5.699662e-01
5.707851e-01
5.715629e-01
5.724640e-01
0.000000e+00
1.000000e+00
5.725506e-01
5.717777e-01
5.711146e-01
5.704164e-01
5.697542e-01
5.691971e-01
5.688213e-01