<?xml version="1.0"?>
<VTKFile type="StructuredGrid" version="0.1">
  <StructuredGrid WholeExtent="0 16 0 16 0 16">
    <Piece Extent="0 16 0 16 0 16">
      <PointData Scalars="temperature" Vectors="velocity">
        <DataArray type="Float32" Name="temperature" format="ascii">
1.000000e+00
5.735862e-01
5.736704e-01
5.740674e-01
5.744555e-01
5.748242e-01
5.751343e-01
5.753434e-01
5.754160e-01
5.753384e-01
5.751247e-01
5.748218e-01
5.745464e-01
5.742252e-01
5.738595e-01
5.728696e-01
0.000000e+00
1.000000e+00
5.744273e-01
5.752793e-01
5.765968e-01
5.779190e-01
5.791734e-01
5.802281e-01
5.809386e-01
5.811889e-01
5.809343e-01
5.802202e-01
5.791717e-01
5.780030e-01
5.768100e-01
5.754951e-01
5.736959e-01
0.000000e+00
1.000000e+00
5.754170e-01
5.771391e-01
5.795260e-01
5.819300e-01
5.842110e-01
5.861286e-01
5.874214e-01
5.878796e-01
5.874233e-01
5.861356e-01
5.842500e-01
5.820696e-01
5.797764e-01
5.773755e-01
5.745904e-01
0.000000e+00
1.000000e+00
5.765232e-01
5.792075e-01
5.827919e-01
5.864018e-01
5.898268e-01
5.927071e-01
5.946503e-01
5.953425e-01
5.946644e-01
5.927427e-01
5.899291e-01
5.866055e-01
5.830522e-01
5.794650e-01
5.755758e-01
0.000000e+00
1.000000e+00
5.776809e-01
5.814227e-01
5.862918e-01
5.911933e-01
5.958438e-01
5.997549e-01
6.023950e-01
6.033391e-01
6.024263e-01
5.998307e-01
5.960121e-01
5.914453e-01
5.865555e-01
5.817056e-01
5.766313e-01
0.000000e+00
1.000000e+00
5.788866e-01
5.836948e-01
5.898845e-01
5.961119e-01
6.020207e-01
6.069910e-01
6.103482e-01
6.115530e-01
6.104013e-01
6.071136e-01
6.022504e-01
5.964013e-01
5.901501e-01
5.840040e-01
5.777097e-01
0.000000e+00
1.000000e+00
5.800845e-01
5.859093e-01
5.933993e-01
6.009242e-01
6.080641e-01
6.140716e-01
6.181325e-01
6.195952e-01
6.182126e-01
6.142485e-01
6.083491e-01
6.012421e-01
5.936517e-01
5.862975e-01
5.786709e-01
0.000000e+00
1.000000e+00
5.811965e-01
5.879496e-01
5.966507e-01
6.053750e-01
6.136535e-01
6.206213e-01
6.253360e-01
6.270419e-01
6.254514e-01
6.208597e-01
6.139857e-01
6.057122e-01
5.968704e-01
5.886603e-01
5.783226e-01
0.000000e+00
1.000000e+00
5.821769e-01
5.896969e-01
5.994542e-01
6.092121e-01
6.184728e-01
6.262711e-01
6.315540e-01
6.334762e-01
6.317125e-01
6.265740e-01
6.188443e-01
6.095603e-01
5.996263e-01
5.910673e-01
5.769221e-01
0.000000e+00
1.000000e+00
5.829908e-01
5.910408e-01
6.016465e-01
6.122143e-01
6.222461e-01
6.306989e-01
6.364324e-01
6.385300e-01
6.366339e-01
6.310604e-01
6.226504e-01
6.125695e-01
6.017858e-01
5.927781e-01
5.765124e-01
0.000000e+00
1.000000e+00
5.835602e-01
5.919072e-01
6.031093e-01
6.142194e-01
6.247702e-01
6.336649e-01
6.397039e-01
6.419223e-01
6.399384e-01
6.340707e-01
6.252014e-01
6.145829e-01
6.032370e-01
5.933458e-01
5.774565e-01
0.000000e+00
1.000000e+00
5.838684e-01
5.922495e-01
6.037750e-01
6.151383e-01
6.259324e-01
6.350336e-01
6.412146e-01
6.434896e-01
6.414653e-01
6.354588e-01
6.263800e-01
6.155112e-01
6.039283e-01
5.932480e-01
5.788291e-01
0.000000e+00
1.000000e+00
5.839511e-01
5.920425e-01
6.036351e-01
6.149602e-01
6.257140e-01
6.347783e-01
6.409331e-01
6.431991e-01
6.411844e-01
6.352005e-01
6.261750e-01
6.153586e-01
6.038416e-01
5.928085e-01
5.805167e-01
0.000000e+00
1.000000e+00
5.837633e-01
5.913266e-01
6.027397e-01
6.137410e-01
6.241814e-01
6.329796e-01
6.389515e-01
6.411474e-01
6.391885e-01
6.333859e-01
6.246531e-01
6.141614e-01
6.029979e-01
5.921612e-01
5.814551e-01
0.000000e+00
1.000000e+00
5.833626e-01
5.902237e-01
6.011717e-01
6.115901e-01
6.214759e-01
6.298068e-01
6.354572e-01
6.375255e-01
6.356712e-01
6.302010e-01
6.219503e-01
6.120269e-01
6.014567e-01
5.911384e-01
5.807072e-01
0.000000e+00
1.000000e+00
5.826187e-01
5.889018e-01
5.990290e-01
6.086527e-01
6.177859e-01
6.254841e-01
6.307044e-01
6.326096e-01
6.309073e-01
6.258701e-01
6.182584e-01
6.091113e-01
5.993504e-01
5.897124e-01
5.804011e-01
0.000000e+00
1.000000e+00
5.816045e-01
5.874157e-01
5.964439e-01
6.051090e-01
6.133340e-01
6.202678e-01
6.249715e-01
6.266892e-01
6.251700e-01
6.206508e-01
6.138188e-01
6.056121e-01
5.968421e-01
5.881735e-01
5.808609e-01
0.000000e+00
1.000000e+00
5.742995e-01
5.750095e-01
5.761805e-01
5.773490e-01
5.784573e-01
5.793890e-01
5.800165e-01
5.802374e-01
5.800119e-01
5.793797e-01
5.784519e-01
5.774139e-01
5.763528e-01
5.751994e-01
5.735545e-01
0.000000e+00
1.000000e+00
5.751573e-01
5.766725e-01
5.787958e-01
5.809298e-01
5.829542e-01
5.846561e-01
5.858032e-01
5.862095e-01
5.858034e-01
5.846577e-01
5.829806e-01
5.810486e-01
5.790262e-01
5.768942e-01
5.743507e-01
0.000000e+00
1.000000e+00
5.761808e-01
5.785896e-01
5.818172e-01
5.850667e-01
5.881494e-01
5.907415e-01
5.924901e-01
5.931126e-01
5.925005e-01
5.907682e-01
5.882364e-01
5.852517e-01
5.820606e-01
5.788271e-01
5.752742e-01
0.000000e+00
1.000000e+00
5.773276e-01
5.807130e-01
5.851763e-01
5.896662e-01
5.939258e-01
5.975080e-01
5.999256e-01
6.007895e-01
5.999517e-01
5.975721e-01
5.940798e-01
5.899064e-01
5.854302e-01
5.809805e-01
5.762815e-01
0.000000e+00
1.000000e+00
5.785162e-01
5.829795e-01
5.887608e-01
5.945737e-01
6.000888e-01
6.047277e-01
6.078607e-01
6.089841e-01
6.079071e-01
6.048374e-01
6.003082e-01
5.948665e-01
5.890243e-01
5.832754e-01
5.773763e-01
0.000000e+00
1.000000e+00
5.797367e-01
5.852889e-01
5.924165e-01
5.995782e-01
6.063735e-01
6.120905e-01
6.159545e-01
6.173449e-01
6.160268e-01
6.122548e-01
6.066566e-01
5.999258e-01
5.926902e-01
5.856079e-01
5.784616e-01
0.000000e+00
1.000000e+00
5.809569e-01
5.875143e-01
5.959558e-01
6.044241e-01
6.124592e-01
6.192213e-01
6.237956e-01
6.254485e-01
6.239027e-01
6.194500e-01
6.127994e-01
6.048314e-01
5.962360e-01
5.878652e-01
5.796903e-01
0.000000e+00
1.000000e+00
5.820820e-01
5.895262e-01
5.991766e-01
6.088339e-01
6.179978e-01
6.257127e-01
6.309373e-01
6.328360e-01
6.310900e-01
6.260114e-01
6.183852e-01
6.092923e-01
5.994477e-01
5.899940e-01
5.806373e-01
0.000000e+00
1.000000e+00
5.830284e-01
5.912035e-01
6.018821e-01
6.125372e-01
6.226498e-01
6.311686e-01
6.369457e-01
6.390582e-01
6.371475e-01
6.315366e-01
6.230798e-01
6.130283e-01
6.021268e-01
5.921499e-01
5.797178e-01
0.000000e+00
1.000000e+00
5.837739e-01
5.924317e-01
6.039006e-01
6.153022e-01
6.261268e-01
6.352512e-01
6.414471e-01
6.437242e-01
6.416906e-01
6.356799e-01
6.266058e-01
6.157941e-01
6.041305e-01
5.941640e-01
5.778914e-01
0.000000e+00
1.000000e+00
5.842524e-01
5.931374e-01
6.051134e-01
6.169673e-01
6.282250e-01
6.377189e-01
6.441700e-01
6.465477e-01
6.444405e-01
6.381912e-01
6.287484e-01
6.174344e-01
6.053334e-01
5.950102e-01
5.780079e-01
0.000000e+00
1.000000e+00
5.843985e-01
5.932996e-01
6.054636e-01
6.174541e-01
6.288434e-01
6.384484e-01
6.449751e-01
6.473831e-01
6.452576e-01
6.389417e-01
6.293842e-01
6.178953e-01
6.056728e-01
5.947729e-01
5.783843e-01
0.000000e+00
1.000000e+00
5.842722e-01
5.929158e-01
6.049585e-01
6.167705e-01
6.279871e-01
6.374439e-01
6.438682e-01
6.462383e-01
6.441483e-01
6.379332e-01
6.285247e-01
6.172111e-01
6.051873e-01
5.938965e-01
5.796389e-01
0.000000e+00
1.000000e+00
5.839881e-01
5.919579e-01
6.036561e-01
6.149947e-01
6.257562e-01
6.348264e-01
6.409855e-01
6.432562e-01
6.412517e-01
6.352926e-01
6.262880e-01
6.154598e-01
6.039471e-01
5.927880e-01
5.812697e-01
0.000000e+00
1.000000e+00
5.834619e-01
5.905913e-01
6.016634e-01
6.122664e-01
6.223278e-01
6.308079e-01
6.365638e-01
6.386838e-01
6.368158e-01
6.312580e-01
6.228582e-01
6.127622e-01
6.020113e-01
5.914715e-01
5.809833e-01
0.000000e+00
1.000000e+00
5.825578e-01
5.890784e-01
5.991168e-01
6.087720e-01
6.179365e-01
6.256615e-01
6.309043e-01
6.328335e-01
6.311435e-01
6.260912e-01
6.184522e-01
6.092847e-01
5.995229e-01
5.898264e-01
5.806959e-01
0.000000e+00
1.000000e+00
5.814149e-01
5.873678e-01
5.961546e-01
6.047084e-01
6.128302e-01
6.196768e-01
6.243240e-01
6.260299e-01
6.245342e-01
6.200598e-01
6.133007e-01
6.052022e-01
5.965740e-01
5.880587e-01
5.810630e-01
0.000000e+00
1.000000e+00
5.748947e-01
5.761255e-01
5.779432e-01
5.797623e-01
5.814879e-01
5.829382e-01
5.839155e-01
5.842613e-01
5.839141e-01
5.829349e-01
5.814984e-01
5.798510e-01
5.781204e-01
5.763145e-01
5.740980e-01
0.000000e+00
1.000000e+00
5.757859e-01
5.778253e-01
5.806196e-01
5.834268e-01
5.860895e-01
5.883281e-01
5.898377e-01
5.903743e-01
5.898435e-01
5.883419e-01
5.861483e-01
5.835780e-01
5.808216e-01
5.780333e-01
5.749002e-01
0.000000e+00
1.000000e+00
5.768309e-01
5.797804e-01
5.837068e-01
5.876538e-01
5.913981e-01
5.945465e-01
5.966711e-01
5.974297e-01
5.966907e-01
5.945930e-01
5.915190e-01
5.878670e-01
5.839251e-01
5.800147e-01
5.758390e-01
0.000000e+00
1.000000e+00
5.779891e-01
5.819458e-01
5.871320e-01
5.923437e-01
5.972881e-01
6.014467e-01
6.042550e-01
6.052613e-01
6.042929e-01
6.015345e-01
5.974737e-01
5.926159e-01
5.873674e-01
5.822117e-01
5.768754e-01
0.000000e+00
1.000000e+00
5.792030e-01
5.842457e-01
5.907736e-01
5.973294e-01
6.035494e-01
6.087821e-01
6.123181e-01
6.135894e-01
6.123792e-01
6.089213e-01
6.038018e-01
5.976662e-01
5.910251e-01
5.845424e-01
5.779703e-01
0.000000e+00
1.000000e+00
5.804343e-01
5.865753e-01
5.944656e-01
6.023835e-01
6.098960e-01
6.162178e-01
6.204930e-01
6.220357e-01
6.205861e-01
6.164222e-01
6.102133e-01
6.027924e-01
5.947372e-01
5.869016e-01
5.791026e-01
0.000000e+00
1.000000e+00
5.816583e-01
5.887977e-01
5.980047e-01
6.072288e-01
6.159812e-01
6.233486e-01
6.283359e-01
6.301451e-01
6.284742e-01
6.236310e-01
6.163547e-01
6.077131e-01
5.983037e-01
5.891688e-01
5.801756e-01
0.000000e+00
1.000000e+00
5.827866e-01
5.907690e-01
6.011727e-01
6.115669e-01
6.214305e-01
6.297372e-01
6.353680e-01
6.374244e-01
6.355611e-01
6.301004e-01
6.218524e-01
6.121068e-01
6.015018e-01
5.912227e-01
5.811078e-01
0.000000e+00
1.000000e+00
5.837033e-01
5.923652e-01
6.037616e-01
6.151114e-01
6.258846e-01
6.349634e-01
6.411270e-01
6.433921e-01
6.413704e-01
6.353955e-01
6.263594e-01
6.156592e-01
6.041034e-01
5.930969e-01
5.809119e-01
0.000000e+00
1.000000e+00
5.843804e-01
5.934740e-01
6.055935e-01
6.176224e-01
6.290440e-01
6.386754e-01
6.452215e-01
6.476363e-01
6.454978e-01
6.391564e-01
6.295801e-01
6.181339e-01
6.059498e-01
5.949388e-01
5.796265e-01
0.000000e+00
1.000000e+00
5.847478e-01
5.940308e-01
6.065507e-01
6.189393e-01
6.307059e-01
6.406313e-01
6.473792e-01
6.498706e-01
6.476694e-01
6.411433e-01
6.313055e-01
6.194690e-01
6.068736e-01
5.960747e-01
5.786326e-01
0.000000e+00
1.000000e+00
5.847849e-01
5.940130e-01
6.065894e-01
6.189981e-01
6.307844e-01
6.407255e-01
6.474829e-01
6.499758e-01
6.477725e-01
6.412501e-01
6.314102e-01
6.195148e-01
6.068242e-01
5.958089e-01
5.786188e-01
0.000000e+00
1.000000e+00
5.845907e-01
5.933663e-01
6.057209e-01
6.178183e-01
6.293060e-01
6.389923e-01
6.455731e-01
6.480004e-01
6.458607e-01
6.395106e-01
6.299164e-01
6.183153e-01
6.059649e-01
5.946050e-01
5.797052e-01
0.000000e+00
1.000000e+00
5.841475e-01
5.921849e-01
6.040344e-01
6.155134e-01
6.264103e-01
6.355957e-01
6.418337e-01
6.441354e-01
6.421115e-01
6.360933e-01
6.269911e-01
6.160178e-01
6.043440e-01
5.931122e-01
5.809610e-01
0.000000e+00
1.000000e+00
5.833975e-01
5.906995e-01
6.016610e-01
6.122595e-01
6.223196e-01
6.307991e-01
6.365554e-01
6.386792e-01
6.368218e-01
6.312708e-01
6.228692e-01
6.127742e-01
6.020257e-01
5.914545e-01
5.807326e-01
0.000000e+00
1.000000e+00
5.822880e-01
5.890122e-01
5.987511e-01
6.082650e-01
6.172979e-01
6.249120e-01
6.300803e-01
6.319831e-01
6.303222e-01
6.253430e-01
6.178080e-01
6.087757e-01
5.991642e-01
5.896385e-01
5.808991e-01
0.000000e+00
1.000000e+00
5.810782e-01
5.870312e-01
5.954557e-01
6.037456e-01
6.116175e-01
6.182526e-01
6.227572e-01
6.244103e-01
6.229602e-01
6.186221e-01
6.120665e-01
6.042228e-01
5.958720e-01
5.876598e-01
5.809026e-01
0.000000e+00
1.000000e+00
5.753268e-01
5.769409e-01
5.792306e-01
5.815250e-01
5.837010e-01
5.855301e-01
5.867631e-01
5.872006e-01
5.867652e-01
5.855351e-01
5.837352e-01
5.816409e-01
5.793944e-01
5.771185e-01
5.744781e-01
0.000000e+00
1.000000e+00
5.762506e-01
5.786532e-01
5.819310e-01
5.852226e-01
5.883446e-01
5.909695e-01
5.927401e-01
5.933708e-01
5.927516e-01
5.909964e-01
5.884240e-01
5.853890e-01
5.821171e-01
5.788529e-01
5.752920e-01
0.000000e+00
1.000000e+00
5.773084e-01
5.806220e-01
5.850448e-01
5.894860e-01
5.936991e-01
5.972422e-01
5.996340e-01
6.004897e-01
5.996614e-01
5.973040e-01
5.938353e-01
5.897169e-01
5.852538e-01
5.808537e-01
5.762400e-01
0.000000e+00
1.000000e+00
5.784648e-01
5.828037e-01
5.884961e-01
5.942116e-01
5.996341e-01
6.041953e-01
6.072769e-01
6.083830e-01
6.073239e-01
6.043008e-01
5.998331e-01
5.945092e-01
5.887327e-01
5.830719e-01
5.772862e-01
0.000000e+00
1.000000e+00
5.796903e-01
5.851135e-01
5.921559e-01
5.992224e-01
6.059271e-01
6.115680e-01
6.153816e-01
6.167549e-01
6.154546e-01
6.117316e-01
6.061929e-01
5.995911e-01
5.924204e-01
5.854169e-01
5.783954e-01
0.000000e+00
1.000000e+00
5.809199e-01
5.874418e-01
5.958483e-01
6.042769e-01
6.122739e-01
6.190044e-01
6.235581e-01
6.252048e-01
6.236692e-01
6.192454e-01
6.126061e-01
6.047154e-01
5.961536e-01
5.877768e-01
5.795260e-01
0.000000e+00
1.000000e+00
5.821211e-01
5.896461e-01
5.993572e-01
6.090801e-01
6.183063e-01
6.260738e-01
6.313351e-01
6.332495e-01
6.314997e-01
6.264081e-01
6.187030e-01
6.095694e-01
5.997284e-01
5.900164e-01
5.805602e-01
0.000000e+00
1.000000e+00
5.832255e-01
5.915711e-01
6.024498e-01
6.133155e-01
6.236272e-01
6.323133e-01
6.382056e-01
6.403650e-01
6.384296e-01
6.327378e-01
6.240974e-01
6.137979e-01
6.029096e-01
5.919979e-01
5.816119e-01
0.000000e+00
1.000000e+00
5.841086e-01
5.930856e-01
6.049082e-01
6.166829e-01
6.278602e-01
6.372818e-01
6.436826e-01
6.460419e-01
6.439533e-01
6.377683e-01
6.284021e-01
6.171460e-01
6.053873e-01
5.936851e-01
5.818788e-01
0.000000e+00
1.000000e+00
5.846961e-01
5.940878e-01
6.065518e-01
6.189367e-01
6.306972e-01
6.406164e-01
6.473612e-01
6.498532e-01
6.476537e-01
6.411275e-01
6.312774e-01
6.194241e-01
6.069859e-01
5.952801e-01
5.808159e-01
0.000000e+00
1.000000e+00
5.849719e-01
5.945085e-01
6.072678e-01
6.199207e-01
6.319391e-01
6.420781e-01
6.489747e-01
6.515217e-01
6.492666e-01
6.425974e-01
6.325641e-01
6.204968e-01
6.076520e-01
5.966601e-01
5.792142e-01
0.000000e+00
1.000000e+00
5.849895e-01
5.942667e-01
6.070058e-01
6.195703e-01
6.315068e-01
6.415765e-01
6.484245e-01
6.509527e-01
6.487154e-01
6.421028e-01
6.321767e-01
6.201829e-01
6.073193e-01
5.966150e-01
5.786988e-01
0.000000e+00
1.000000e+00
5.847229e-01
5.934047e-01
6.058125e-01
6.179442e-01
6.294668e-01
6.391843e-01
6.457895e-01
6.482308e-01
6.460863e-01
6.397113e-01
6.301176e-01
6.184976e-01
6.060922e-01
5.951606e-01
5.794459e-01
0.000000e+00
1.000000e+00
5.840539e-01
5.921044e-01
6.037977e-01
6.151836e-01
6.259956e-01
6.351106e-01
6.413025e-01
6.435920e-01
6.415919e-01
6.356239e-01
6.265937e-01
6.157073e-01
6.041210e-01
5.931898e-01
5.803301e-01
0.000000e+00
1.000000e+00
5.830555e-01
5.905016e-01
6.011031e-01
6.114862e-01
6.213451e-01
6.296557e-01
6.352970e-01
6.373790e-01
6.355640e-01
6.301270e-01
6.218915e-01
6.119944e-01
6.014654e-01
5.911942e-01
5.801712e-01
0.000000e+00
1.000000e+00
5.818811e-01
5.885796e-01
5.978906e-01
6.070807e-01
6.158065e-01
6.231606e-01
6.281512e-01
6.299861e-01
6.283820e-01
6.235754e-01
6.162949e-01
6.075688e-01
5.983023e-01
5.891290e-01
5.807193e-01
0.000000e+00
1.000000e+00
5.806345e-01
5.863767e-01
5.943284e-01
6.021991e-01
6.096717e-01
6.159680e-01
6.202405e-01
6.218056e-01
6.204253e-01
6.163123e-01
6.100888e-01
6.026468e-01
5.947348e-01
5.868916e-01
5.807313e-01
0.000000e+00
1.000000e+00
5.755595e-01
5.773806e-01
5.799246e-01
5.824751e-01
5.848940e-01
5.869274e-01
5.882984e-01
5.887856e-01
5.883034e-01
5.869397e-01
5.849404e-01
5.826038e-01
5.800869e-01
5.775500e-01
5.746836e-01
0.000000e+00
1.000000e+00
5.764820e-01
5.790769e-01
5.826001e-01
5.861387e-01
5.894952e-01
5.923171e-01
5.942211e-01
5.949002e-01
5.942364e-01
5.923520e-01
5.895793e-01
5.863083e-01
5.827875e-01
5.792724e-01
5.754967e-01
0.000000e+00
1.000000e+00
5.775306e-01
5.810300e-01
5.856887e-01
5.903676e-01
5.948063e-01
5.985393e-01
6.010598e-01
6.019625e-01
6.010913e-01
5.986083e-01
5.949420e-01
5.906021e-01
5.859055e-01
5.812604e-01
5.764432e-01
0.000000e+00
1.000000e+00
5.786774e-01
5.831957e-01
5.891142e-01
5.950577e-01
6.006967e-01
6.054404e-01
6.086457e-01
6.097972e-01
6.086971e-01
6.055542e-01
6.008949e-01
5.953578e-01
5.893638e-01
5.834629e-01
5.774778e-01
0.000000e+00
1.000000e+00
5.798965e-01
5.854856e-01
5.927421e-01
6.000253e-01
6.069355e-01
6.127498e-01
6.166813e-01
6.180981e-01
6.167597e-01
6.129269e-01
6.072063e-01
6.003851e-01
5.930332e-01
5.857880e-01
5.785791e-01
0.000000e+00
1.000000e+00
5.811139e-01
5.877863e-01
5.963902e-01
6.050194e-01
6.132068e-01
6.200977e-01
6.247609e-01
6.264487e-01
6.248794e-01
6.203616e-01
6.135596e-01
6.054160e-01
5.967419e-01
5.881197e-01
5.796914e-01
0.000000e+00
1.000000e+00
5.822741e-01
5.899537e-01
5.998339e-01
6.097331e-01
6.191264e-01
6.270352e-01
6.323933e-01
6.343448e-01
6.325665e-01
6.274016e-01
6.195742e-01
6.101251e-01
6.002753e-01
5.903229e-01
5.807326e-01
0.000000e+00
1.000000e+00
5.833293e-01
5.918254e-01
6.028298e-01
6.138357e-01
6.242809e-01
6.330799e-01
6.390496e-01
6.412393e-01
6.392808e-01
6.335367e-01
6.248242e-01
6.142028e-01
6.033591e-01
5.922454e-01
5.816999e-01
0.000000e+00
1.000000e+00
5.841642e-01
5.932624e-01
6.051511e-01
6.170169e-01
6.282809e-01
6.377754e-01
6.442260e-01
6.466038e-01
6.444978e-01
6.382779e-01
6.288665e-01
6.174331e-01
6.056960e-01
5.937637e-01
5.823827e-01
0.000000e+00
1.000000e+00
5.847012e-01
5.941619e-01
6.066194e-01
6.190294e-01
6.308129e-01
6.407508e-01
6.475095e-01
6.500074e-01
6.477953e-01
6.412530e-01
6.313920e-01
6.195630e-01
6.070672e-01
5.950288e-01
5.820726e-01
0.000000e+00
1.000000e+00
5.849180e-01
5.944327e-01
6.071165e-01
6.197096e-01
6.316724e-01
6.417669e-01
6.486375e-01
6.511799e-01
6.489275e-01
6.422648e-01
6.322946e-01
6.203392e-01
6.075165e-01
5.961713e-01
5.803798e-01
0.000000e+00
1.000000e+00
5.848836e-01
5.940291e-01
6.066082e-01
6.190194e-01
6.308121e-01
6.407634e-01
6.475349e-01
6.500444e-01
6.478372e-01
6.412698e-01
6.314917e-01
6.196846e-01
6.069766e-01
5.961814e-01
5.790816e-01
0.000000e+00
1.000000e+00
5.844952e-01
5.930440e-01
6.051564e-01
6.170376e-01
6.283245e-01
6.378449e-01
6.443185e-01
6.467179e-01
6.446214e-01
6.383637e-01
6.289794e-01
6.176254e-01
6.054604e-01
5.946602e-01
5.795275e-01
0.000000e+00
1.000000e+00
5.836566e-01
5.916415e-01
6.028870e-01
6.139264e-01
6.244112e-01
6.332508e-01
6.392556e-01
6.414769e-01
6.395420e-01
6.337567e-01
6.249938e-01
6.144499e-01
6.032102e-01
5.925956e-01
5.800264e-01
0.000000e+00
1.000000e+00
5.825240e-01
5.898864e-01
5.999521e-01
6.099011e-01
6.193483e-01
6.273106e-01
6.327136e-01
6.347041e-01
6.329653e-01
6.277585e-01
6.198649e-01
6.103843e-01
6.002983e-01
5.905312e-01
5.799362e-01
0.000000e+00
1.000000e+00
5.813022e-01
5.877878e-01
5.965241e-01
6.052048e-01
6.134461e-01
6.203895e-01
6.250983e-01
6.268236e-01
6.253028e-01
6.207697e-01
6.138948e-01
6.056541e-01
5.969107e-01
5.882503e-01
5.804151e-01
0.000000e+00
1.000000e+00
5.800504e-01
5.854401e-01
5.927828e-01
6.000814e-01
6.070100e-01
6.128449e-01
6.168006e-01
6.182445e-01
6.169547e-01
6.131490e-01
6.073826e-01
6.004878e-01
5.931601e-01
5.858344e-01
5.794870e-01
0.000000e+00
1.000000e+00
5.755707e-01
5.773823e-01
5.799277e-01
5.824793e-01
5.848993e-01
5.869334e-01
5.883049e-01
5.887921e-01
5.883096e-01
5.869454e-01
5.849389e-01
5.825984e-01
5.801008e-01
5.775388e-01
5.746711e-01
0.000000e+00
1.000000e+00
5.764428e-01
5.790278e-01
5.825197e-01
5.860285e-01
5.893566e-01
5.921547e-01
5.940424e-01
5.947155e-01
5.940569e-01
5.921880e-01
5.894332e-01
5.861868e-01
5.827209e-01
5.792126e-01
5.754654e-01
0.000000e+00
1.000000e+00
5.774503e-01
5.809295e-01
5.855217e-01
5.901384e-01
5.945182e-01
5.982016e-01
6.006886e-01
6.015790e-01
6.007190e-01
5.982683e-01
5.946476e-01
5.903572e-01
5.857531e-01
5.811446e-01
5.763849e-01
0.000000e+00
1.000000e+00
5.785775e-01
5.830415e-01
5.888594e-01
5.947085e-01
6.002579e-01
6.049261e-01
6.080803e-01
6.092132e-01
6.081299e-01
6.050369e-01
6.004566e-01
5.949844e-01
5.891274e-01
5.832901e-01
5.773946e-01
0.000000e+00
1.000000e+00
5.797658e-01
5.852771e-01
5.923976e-01
5.995532e-01
6.063426e-01
6.120550e-01
6.159174e-01
6.173089e-01
6.159922e-01
6.122290e-01
6.066301e-01
5.998681e-01
5.927101e-01
5.855580e-01
5.784677e-01
0.000000e+00
1.000000e+00
5.809431e-01
5.875216e-01
5.959512e-01
6.044183e-01
6.124520e-01
6.192132e-01
6.237882e-01
6.254431e-01
6.238990e-01
6.194724e-01
6.128366e-01
6.047597e-01
5.963199e-01
5.878293e-01
5.795500e-01
0.000000e+00
1.000000e+00
5.820561e-01
5.896285e-01
5.992921e-01
6.089914e-01
6.181951e-01
6.259437e-01
6.311920e-01
6.331010e-01
6.313513e-01
6.262982e-01
6.186746e-01
6.093566e-01
5.997238e-01
5.899594e-01
5.805693e-01
0.000000e+00
1.000000e+00
5.830550e-01
5.914347e-01
6.021716e-01
6.129350e-01
6.231499e-01
6.317539e-01
6.375890e-01
6.397242e-01
6.377985e-01
6.321862e-01
6.237033e-01
6.133440e-01
6.026737e-01
5.917906e-01
5.814576e-01
0.000000e+00
1.000000e+00
5.838573e-01
5.927947e-01
6.043594e-01
6.159331e-01
6.269190e-01
6.361770e-01
6.424644e-01
6.447782e-01
6.427117e-01
6.366434e-01
6.274896e-01
6.164053e-01
6.049174e-01
5.931677e-01
5.821935e-01
0.000000e+00
1.000000e+00
5.843416e-01
5.936001e-01
6.056775e-01
6.177348e-01
6.291820e-01
6.388352e-01
6.454011e-01
6.478304e-01
6.456752e-01
6.392994e-01
6.297497e-01
6.183188e-01
6.061727e-01
5.939429e-01
5.822283e-01
0.000000e+00
1.000000e+00
5.845348e-01
5.937577e-01
6.060070e-01
6.181840e-01
6.297488e-01
6.395064e-01
6.461484e-01
6.486153e-01
6.464476e-01
6.399676e-01
6.303612e-01
6.188732e-01
6.064450e-01
5.945942e-01
5.806864e-01
0.000000e+00
1.000000e+00
5.844079e-01
5.932701e-01
6.053269e-01
6.172562e-01
6.285886e-01
6.381500e-01
6.446569e-01
6.470748e-01
6.449642e-01
6.386282e-01
6.292394e-01
6.179297e-01
6.056892e-01
5.945495e-01
5.796951e-01
0.000000e+00
1.000000e+00
5.839088e-01
5.922176e-01
6.037062e-01
6.150417e-01
6.258084e-01
6.348884e-01
6.410615e-01
6.433502e-01
6.413560e-01
6.353845e-01
6.264227e-01
6.156210e-01
6.040197e-01
5.932930e-01
5.802077e-01
0.000000e+00
1.000000e+00
5.830065e-01
5.907198e-01
6.012783e-01
6.117161e-01
6.216274e-01
6.299813e-01
6.356529e-01
6.377465e-01
6.359177e-01
6.304508e-01
6.221640e-01
6.122136e-01
6.015934e-01
5.915092e-01
5.799953e-01
0.000000e+00
1.000000e+00
5.818342e-01
5.888503e-01
5.982071e-01
6.075076e-01
6.163371e-01
6.237759e-01
6.288196e-01
6.306696e-01
6.290382e-01
6.241776e-01
6.168043e-01
6.079465e-01
5.985335e-01
5.894202e-01
5.796381e-01
0.000000e+00
1.000000e+00
5.805873e-01
5.866601e-01
5.946733e-01
6.026686e-01
6.102577e-01
6.166492e-01
6.209796e-01
6.225585e-01
6.211456e-01
6.169774e-01
6.106534e-01
6.030651e-01
5.950308e-01
5.870663e-01
5.796754e-01
0.000000e+00
1.000000e+00
5.793440e-01
5.842522e-01
5.908598e-01
5.974480e-01
6.037013e-01
6.089657e-01
6.125305e-01
6.138260e-01
6.126479e-01
6.092161e-01
6.040216e-01
5.978017e-01
5.911991e-01
5.845939e-01
5.782085e-01
0.000000e+00
1.000000e+00
5.753255e-01
5.769090e-01
5.791785e-01
5.814536e-01
5.836112e-01
5.854248e-01
5.866471e-01
5.870804e-01
5.866479e-01
5.854275e-01
5.836263e-01
5.815437e-01
5.793684e-01
5.770569e-01
5.745083e-01
0.000000e+00
1.000000e+00
5.761519e-01
5.784615e-01
5.816228e-01
5.848006e-01
5.878148e-01
5.903488e-01
5.920577e-01
5.926657e-01
5.920669e-01
5.903706e-01
5.878712e-01
5.849492e-01
5.818385e-01
5.786330e-01
5.752002e-01
0.000000e+00
1.000000e+00
5.770993e-01
5.802674e-01
5.844713e-01
5.887004e-01
5.927124e-01
5.960860e-01
5.983631e-01
5.991769e-01
5.983871e-01
5.961398e-01
5.928299e-01
5.889166e-01
5.847188e-01
5.804663e-01
5.760704e-01
0.000000e+00
1.000000e+00
5.781627e-01
5.822858e-01
5.876555e-01
5.930602e-01
5.981879e-01
6.025008e-01
6.054140e-01
6.064591e-01
6.054559e-01
6.025953e-01
5.983847e-01
5.933286e-01
5.879380e-01
5.825154e-01
5.770290e-01
0.000000e+00
1.000000e+00
5.792825e-01
5.844309e-01
5.910430e-01
5.976983e-01
6.040128e-01
6.093254e-01
6.129162e-01
6.142085e-01
6.129797e-01
6.094747e-01
6.043052e-01
5.980000e-01
5.913626e-01
5.846871e-01
5.780521e-01
0.000000e+00
1.000000e+00
5.804079e-01
5.865857e-01
5.944506e-01
6.023637e-01
6.098720e-01
6.161904e-01
6.204642e-01
6.220074e-01
6.205561e-01
6.164084e-01
6.102522e-01
6.027156e-01
5.948018e-01
5.868653e-01
5.790872e-01
0.000000e+00
1.000000e+00
5.814791e-01
5.886064e-01
5.976520e-01
6.067469e-01
6.153772e-01
6.226421e-01
6.275604e-01
6.293440e-01
6.276892e-01
6.229341e-01
6.158247e-01
6.071783e-01
5.980340e-01
5.889020e-01
5.800568e-01
0.000000e+00
1.000000e+00
5.824317e-01
5.903351e-01
6.004010e-01
6.105115e-01
6.201067e-01
6.281871e-01
6.336638e-01
6.356611e-01
6.338348e-01
6.285442e-01
6.206080e-01
6.110130e-01
6.008401e-01
5.906365e-01
5.808969e-01
0.000000e+00
1.000000e+00
5.831665e-01
5.916337e-01
6.024737e-01
6.133474e-01
6.236668e-01
6.323598e-01
6.382592e-01
6.404262e-01
6.384742e-01
6.327548e-01
6.242007e-01
6.138783e-01
6.029782e-01
5.919405e-01
5.815192e-01
0.000000e+00
1.000000e+00
5.836428e-01
5.923639e-01
6.036780e-01
6.149935e-01
6.257332e-01
6.347843e-01
6.409347e-01
6.432092e-01
6.411956e-01
6.351938e-01
6.262829e-01
6.156000e-01
6.041545e-01
5.926469e-01
5.818468e-01
0.000000e+00
1.000000e+00
5.838030e-01
5.924695e-01
6.039092e-01
6.153091e-01
6.261308e-01
6.352546e-01
6.414585e-01
6.437609e-01
6.417458e-01
6.356740e-01
6.267073e-01
6.159900e-01
6.043070e-01
5.929330e-01
5.814960e-01
0.000000e+00
1.000000e+00
5.836003e-01
5.919566e-01
6.031500e-01
6.142711e-01
6.248303e-01
6.337329e-01
6.397850e-01
6.420298e-01
6.400696e-01
6.341748e-01
6.254142e-01
6.148969e-01
6.034812e-01
5.925884e-01
5.808608e-01
0.000000e+00
1.000000e+00
5.830336e-01
5.908851e-01
6.014696e-01
6.119731e-01
6.219455e-01
6.303508e-01
6.360585e-01
6.381673e-01
6.363205e-01
6.308005e-01
6.224830e-01
6.125038e-01
6.017769e-01
5.915056e-01
5.806024e-01
0.000000e+00
1.000000e+00
5.821459e-01
5.893466e-01
5.990013e-01
6.085951e-01
6.177023e-01
6.253743e-01
6.305770e-01
6.324874e-01
6.307999e-01
6.257812e-01
6.181702e-01
6.090447e-01
5.993011e-01
5.899148e-01
5.798245e-01
0.000000e+00
1.000000e+00
5.810191e-01
5.874381e-01
5.959169e-01
6.043717e-01
6.123963e-01
6.191539e-01
6.237311e-01
6.253998e-01
6.239035e-01
6.194927e-01
6.128038e-01
6.047571e-01
5.962213e-01
5.879188e-01
5.790934e-01
0.000000e+00
1.000000e+00
5.798008e-01
5.852422e-01
5.924005e-01
5.995573e-01
6.063495e-01
6.120673e-01
6.159376e-01
6.173414e-01
6.160609e-01
6.123334e-01
6.066847e-01
5.998981e-01
5.927201e-01
5.856223e-01
5.786299e-01
0.000000e+00
1.000000e+00
5.785704e-01
5.828598e-01
5.886325e-01
5.943987e-01
5.998710e-01
6.044765e-01
6.075921e-01
6.087192e-01
6.076748e-01
6.046682e-01
6.001364e-01
5.947000e-01
5.889264e-01
5.831771e-01
5.773409e-01
0.000000e+00
1.000000e+00
5.748128e-01
5.759517e-01
5.776646e-01
5.793806e-01
5.810083e-01
5.823764e-01
5.832980e-01
5.836233e-01
5.832942e-01
5.823683e-01
5.809941e-01
5.794240e-01
5.778570e-01
5.761108e-01
5.741524e-01
0.000000e+00
1.000000e+00
5.755847e-01
5.773721e-01
5.798994e-01
5.824411e-01
5.848522e-01
5.868792e-01
5.882459e-01
5.887310e-01
5.882485e-01
5.868838e-01
5.848679e-01
5.825688e-01
5.801352e-01
5.775555e-01
5.746178e-01
0.000000e+00
1.000000e+00
5.764540e-01
5.790418e-01
5.825303e-01
5.860431e-01
5.893756e-01
5.921777e-01
5.940683e-01
5.947424e-01
5.940823e-01
5.922086e-01
5.894539e-01
5.862662e-01
5.827997e-01
5.792467e-01
5.754187e-01
0.000000e+00
1.000000e+00
5.774285e-01
5.809243e-01
5.854983e-01
5.901068e-01
5.944790e-01
5.981563e-01
6.006389e-01
6.015275e-01
6.006684e-01
5.982216e-01
5.946403e-01
5.903897e-01
5.857978e-01
5.811600e-01
5.763272e-01
0.000000e+00
1.000000e+00
5.784791e-01
5.829397e-01
5.886776e-01
5.944597e-01
5.999461e-01
6.045613e-01
6.076794e-01
6.087991e-01
6.077273e-01
6.046687e-01
6.002021e-01
5.947806e-01
5.890034e-01
5.832005e-01
5.773010e-01
0.000000e+00
1.000000e+00
5.795613e-01
5.849718e-01
5.918923e-01
5.988619e-01
6.054755e-01
6.110403e-01
6.148025e-01
6.161577e-01
6.148721e-01
6.111962e-01
6.058086e-01
5.992414e-01
5.922354e-01
5.852547e-01
5.782851e-01
0.000000e+00
1.000000e+00
5.805776e-01
5.868872e-01
5.949261e-01
6.030162e-01
6.106936e-01
6.171553e-01
6.215271e-01
6.231077e-01
6.216235e-01
6.173637e-01
6.110868e-01
6.034758e-01
5.952870e-01
5.871861e-01
5.792066e-01
0.000000e+00
1.000000e+00
5.814587e-01
5.885452e-01
5.975461e-01
6.066022e-01
6.151956e-01
6.224287e-01
6.273253e-01
6.291039e-01
6.274552e-01
6.226884e-01
6.156353e-01
6.071177e-01
5.979328e-01
5.888468e-01
5.799944e-01
0.000000e+00
1.000000e+00
5.821528e-01
5.897830e-01
5.995185e-01
6.093002e-01
6.185813e-01
6.263950e-01
6.316895e-01
6.336244e-01
6.318652e-01
6.267053e-01
6.190682e-01
6.098369e-01
5.999423e-01
5.901040e-01
5.805854e-01
0.000000e+00
1.000000e+00
5.825978e-01
5.904872e-01
6.006658e-01
6.108689e-01
6.205499e-01
6.287019e-01
6.342304e-01
6.362613e-01
6.344468e-01
6.290436e-01
6.210498e-01
6.114345e-01
6.010752e-01
5.907892e-01
5.809769e-01
0.000000e+00
1.000000e+00
5.827206e-01
5.905987e-01
6.008814e-01
6.111630e-01
6.209193e-01
6.291368e-01
6.347128e-01
6.367673e-01
6.349482e-01
6.295019e-01
6.214243e-01
6.117656e-01
6.012269e-01
5.909494e-01
5.810382e-01
0.000000e+00
1.000000e+00
5.824852e-01
5.901161e-01
6.001471e-01
6.101578e-01
6.196583e-01
6.276613e-01
6.330912e-01
6.350901e-01
6.333219e-01
6.280449e-01
6.201489e-01
6.107021e-01
6.004487e-01
5.905241e-01
5.806280e-01
0.000000e+00
1.000000e+00
5.819309e-01
5.890832e-01
5.985262e-01
6.079406e-01
6.168760e-01
6.244017e-01
6.295040e-01
6.313748e-01
6.297112e-01
6.247799e-01
6.173208e-01
6.084005e-01
5.988131e-01
5.895095e-01
5.800714e-01
0.000000e+00
1.000000e+00
5.811187e-01
5.875845e-01
5.961479e-01
6.046875e-01
6.127919e-01
6.196158e-01
6.242374e-01
6.259223e-01
6.244054e-01
6.199446e-01
6.131839e-01
6.050758e-01
5.964259e-01
5.880136e-01
5.792947e-01
0.000000e+00
1.000000e+00
5.800869e-01
5.857298e-01
5.931825e-01
6.006286e-01
6.076948e-01
6.136427e-01
6.176675e-01
6.191262e-01
6.177912e-01
6.139097e-01
6.080385e-01
6.009560e-01
5.934616e-01
5.861237e-01
5.784901e-01
0.000000e+00
1.000000e+00
5.789336e-01
5.836151e-01
5.898105e-01
5.960119e-01
6.018965e-01
6.068486e-01
6.101976e-01