<?xml version="1.0"?>
<VTKFile type="StructuredGrid" version="0.1">
  <StructuredGrid WholeExtent="0 16 0 16 0 16">
    <Piece Extent="0 16 0 16 0 16">
      <PointData Scalars="temperature" Vectors="velocity">
        <DataArray type="Float32" Name="temperature" format="ascii">
1.000000e+00
5.722876e-01
5.714973e-01
5.706484e-01
5.697800e-01
5.689567e-01
5.682648e-01
5.677985e-01
5.676334e-01
5.677985e-01
5.682648e-01
5.689567e-01
5.697800e-01
5.706484e-01
5.714973e-01
5.722876e-01
0.000000e+00
1.000000e+00
5.723748e-01
5.716812e-01
5.709361e-01
5.701740e-01
5.694514e-01
5.688441e-01
5.684349e-01
5.682900e-01
5.684349e-01
5.688441e-01
5.694514e-01
5.701740e-01
5.709361e-01
5.716812e-01
5.723748e-01
0.000000e+00
1.000000e+00
5.724727e-01
5.718876e-01
5.712592e-01
5.706164e-01
5.700069e-01
5.694947e-01
5.691495e-01
5.690273e-01
5.691495e-01
5.694947e-01
5.700069e-01
5.706164e-01
5.712592e-01
5.718876e-01
5.724727e-01
0.000000e+00
1.000000e+00
5.725787e-01
5.721112e-01
5.716090e-01
5.710954e-01
5.706084e-01
5.701991e-01
5.699234e-01
5.698257e-01
5.699234e-01
5.701991e-01
5.706084e-01
5.710954e-01
5.716090e-01
5.721112e-01
5.725787e-01
0.000000e+00
1.000000e+00
5.726891e-01
5.723441e-01
5.719735e-01
5.715945e-01
5.712350e-01
5.709330e-01
5.707295e-01
5.706574e-01
5.707295e-01
5.709330e-01
5.712350e-01
5.715945e-01
5.719735e-01
5.723441e-01
5.726891e-01
0.000000e+00
1.000000e+00
5.727993e-01
5.725765e-01
5.723373e-01
5.720926e-01
5.718605e-01
5.716656e-01
5.715342e-01
5.714876e-01
5.715342e-01
5.716656e-01
5.718605e-01
5.720926e-01
5.723373e-01
5.725765e-01
5.727993e-01
0.000000e+00
1.000000e+00
5.729040e-01
5.727975e-01
5.726831e-01
5.725660e-01
5.724550e-01
5.723618e-01
5.722989e-01
5.722767e-01
5.722989e-01
5.723618e-01
5.724550e-01
5.725660e-01
5.726831e-01
5.727975e-01
5.729040e-01
0.000000e+00
1.000000e+00
5.729979e-01
5.729955e-01
5.729929e-01
5.729903e-01
5.729878e-01
5.729857e-01
5.729843e-01
5.729838e-01
5.729843e-01
5.729857e-01
5.729878e-01
5.729903e-01
5.729929e-01
5.729955e-01
5.729979e-01
0.000000e+00
1.000000e+00
5.730759e-01
5.731600e-01
5.732505e-01
5.733429e-01
5.734306e-01
5.735043e-01
5.735539e-01
5.735715e-01
5.735539e-01
5.735043e-01
5.734306e-01
5.733429e-01
5.732505e-01
5.731600e-01
5.730759e-01
0.000000e+00
1.000000e+00
5.731341e-01
5.732828e-01
5.734425e-01
5.736059e-01
5.737608e-01
5.738910e-01
5.739787e-01
5.740098e-01
5.739787e-01
5.738910e-01
5.737608e-01
5.736059e-01
5.734425e-01
5.732828e-01
5.731341e-01
0.000000e+00
1.000000e+00
5.731699e-01
5.733583e-01
5.735607e-01
5.737678e-01
5.739641e-01
5.741291e-01
5.742403e-01
5.742796e-01
5.742403e-01
5.741291e-01
5.739641e-01
5.737678e-01
5.735607e-01
5.733583e-01
5.731699e-01
0.000000e+00
1.000000e+00
5.731825e-01
5.733849e-01
5.736024e-01
5.738248e-01
5.740358e-01
5.742130e-01
5.743324e-01
5.743747e-01
5.743324e-01
5.742130e-01
5.740358e-01
5.738248e-01
5.736024e-01
5.733849e-01
5.731825e-01
0.000000e+00
1.000000e+00
5.731727e-01
5.733644e-01
5.735702e-01
5.737807e-01
5.739804e-01
5.741481e-01
5.742612e-01
5.743012e-01
5.742612e-01
5.741481e-01
5.739804e-01
5.737807e-01
5.735702e-01
5.733644e-01
5.731727e-01
0.000000e+00
1.000000e+00
5.731428e-01
5.733013e-01
5.734715e-01
5.736456e-01
5.738107e-01
5.739494e-01
5.740428e-01
5.740760e-01
5.740428e-01
5.739494e-01
5.738107e-01
5.736456e-01
5.734715e-01
5.733013e-01
5.731428e-01
0.000000e+00
1.000000e+00
5.730960e-01
5.732025e-01
5.733169e-01
5.734339e-01
5.735449e-01
5.736381e-01
5.737009e-01
5.737232e-01
5.737009e-01
5.736381e-01
5.735449e-01
5.734339e-01
5.733169e-01
5.732025e-01
5.730960e-01
0.000000e+00
1.000000e+00
5.730360e-01
5.730760e-01
5.731189e-01
5.731628e-01
5.732044e-01
5.732394e-01
5.732629e-01
5.732713e-01
5.732629e-01
5.732394e-01
5.732044e-01
5.731628e-01
5.731189e-01
5.730760e-01
5.730360e-01
0.000000e+00
1.000000e+00
5.729667e-01
5.729298e-01
5.728902e-01
5.728496e-01
5.728112e-01
5.727788e-01
5.727571e-01
5.727494e-01
5.727571e-01
5.727788e-01
5.728112e-01
5.728496e-01
5.728902e-01
5.729298e-01
5.729667e-01
0.000000e+00
1.000000e+00
5.722090e-01
5.713315e-01
5.703889e-01
5.694247e-01
5.685105e-01
5.677422e-01
5.672245e-01
5.670412e-01
5.672245e-01
5.677422e-01
5.685105e-01
5.694247e-01
5.703889e-01
5.713315e-01
5.722090e-01
0.000000e+00
1.000000e+00
5.722912e-01
5.715047e-01
5.706599e-01
5.697959e-01
5.689766e-01
5.682881e-01
5.678241e-01
5.676598e-01
5.678241e-01
5.682881e-01
5.689766e-01
5.697959e-01
5.706599e-01
5.715047e-01
5.722911e-01
0.000000e+00
1.000000e+00
5.723855e-01
5.717038e-01
5.709715e-01
5.702225e-01
5.695123e-01
5.689155e-01
5.685133e-01
5.683709e-01
5.685133e-01
5.689155e-01
5.695123e-01
5.702225e-01
5.709715e-01
5.717038e-01
5.723855e-01
0.000000e+00
1.000000e+00
5.724898e-01
5.719238e-01
5.713157e-01
5.706938e-01
5.701040e-01
5.696085e-01
5.692745e-01
5.691563e-01
5.692745e-01
5.696085e-01
5.701040e-01
5.706938e-01
5.713157e-01
5.719238e-01
5.724898e-01
0.000000e+00
1.000000e+00
5.726003e-01
5.721568e-01
5.716803e-01
5.711931e-01
5.707310e-01
5.703427e-01
5.700811e-01
5.699884e-01
5.700811e-01
5.703427e-01
5.707310e-01
5.711931e-01
5.716803e-01
5.721568e-01
5.726003e-01
0.000000e+00
1.000000e+00
5.727122e-01
5.723928e-01
5.720498e-01
5.716989e-01
5.713662e-01
5.710866e-01
5.708982e-01
5.708315e-01
5.708982e-01
5.710866e-01
5.713662e-01
5.716989e-01
5.720498e-01
5.723928e-01
5.727122e-01
0.000000e+00
1.000000e+00
5.728199e-01
5.726201e-01
5.724055e-01
5.721860e-01
5.719778e-01
5.718029e-01
5.716850e-01
5.716433e-01
5.716850e-01
5.718029e-01
5.719778e-01
5.721860e-01
5.724055e-01
5.726201e-01
5.728199e-01
0.000000e+00
1.000000e+00
5.729177e-01
5.728263e-01
5.727282e-01
5.726278e-01
5.725326e-01
5.724526e-01
5.723987e-01
5.723796e-01
5.723987e-01
5.724526e-01
5.725326e-01
5.726278e-01
5.727282e-01
5.728263e-01
5.729177e-01
0.000000e+00
1.000000e+00
5.729999e-01
5.729997e-01
5.729996e-01
5.729994e-01
5.729993e-01
5.729991e-01
5.729990e-01
5.729990e-01
5.729990e-01
5.729991e-01
5.729993e-01
5.729994e-01
5.729996e-01
5.729997e-01
5.729999e-01
0.000000e+00
1.000000e+00
5.730621e-01
5.731309e-01
5.732049e-01
5.732806e-01
5.733523e-01
5.734126e-01
5.734532e-01
5.734676e-01
5.734532e-01
5.734126e-01
5.733523e-01
5.732806e-01
5.732049e-01
5.731309e-01
5.730621e-01
0.000000e+00
1.000000e+00
5.731014e-01
5.732138e-01
5.733346e-01
5.734581e-01
5.735753e-01
5.736737e-01
5.737401e-01
5.737636e-01
5.737401e-01
5.736737e-01
5.735753e-01
5.734581e-01
5.733346e-01
5.732138e-01
5.731014e-01
0.000000e+00
1.000000e+00
5.731167e-01
5.732461e-01
5.733851e-01
5.735273e-01
5.736622e-01
5.737755e-01
5.738518e-01
5.738789e-01
5.738518e-01
5.737755e-01
5.736622e-01
5.735273e-01
5.733851e-01
5.732461e-01
5.731167e-01
0.000000e+00
1.000000e+00
5.731088e-01
5.732295e-01
5.733591e-01
5.734917e-01
5.736174e-01
5.737231e-01
5.737943e-01
5.738195e-01
5.737943e-01
5.737231e-01
5.736174e-01
5.734917e-01
5.733591e-01
5.732295e-01
5.731088e-01
0.000000e+00
1.000000e+00
5.730801e-01
5.731689e-01
5.732642e-01
5.733618e-01
5.734543e-01
5.735321e-01
5.735845e-01
5.736030e-01
5.735845e-01
5.735321e-01
5.734543e-01
5.733618e-01
5.732642e-01
5.731689e-01
5.730801e-01
0.000000e+00
1.000000e+00
5.730339e-01
5.730715e-01
5.731119e-01
5.731532e-01
5.731923e-01
5.732252e-01
5.732474e-01
5.732553e-01
5.732474e-01
5.732252e-01
5.731923e-01
5.731532e-01
5.731119e-01
5.730715e-01
5.730339e-01
0.000000e+00
1.000000e+00
5.729743e-01
5.729458e-01
5.729151e-01
5.728838e-01
5.728541e-01
5.728291e-01
5.728123e-01
5.728063e-01
5.728123e-01
5.728291e-01
5.728541e-01
5.728838e-01
5.729151e-01
5.729458e-01
5.729743e-01
0.000000e+00
1.000000e+00
5.729054e-01
5.728004e-01
5.726876e-01
5.725722e-01
5.724628e-01
5.723709e-01
5.723090e-01
5.722870e-01
5.723090e-01
5.723709e-01
5.724628e-01
5.725722e-01
5.726876e-01
5.728004e-01
5.729054e-01
0.000000e+00
1.000000e+00
5.721438e-01
5.711940e-01
5.701736e-01
5.691300e-01
5.681404e-01
5.673088e-01
5.667484e-01
5.665500e-01
5.667484e-01
5.673088e-01
5.681404e-01
5.691300e-01
5.701736e-01
5.711940e-01
5.721438e-01
0.000000e+00
1.000000e+00
5.722205e-01
5.713558e-01
5.704268e-01
5.694766e-01
5.685757e-01
5.678186e-01
5.673084e-01
5.671277e-01
5.673084e-01
5.678186e-01
5.685757e-01
5.694766e-01
5.704268e-01
5.713558e-01
5.722205e-01
0.000000e+00
1.000000e+00
5.723110e-01
5.715465e-01
5.707253e-01
5.698854e-01
5.690890e-01
5.684197e-01
5.679688e-01
5.678090e-01
5.679688e-01
5.684197e-01
5.690890e-01
5.698854e-01
5.707253e-01
5.715465e-01
5.723110e-01
0.000000e+00
1.000000e+00
5.724130e-01
5.717617e-01
5.710620e-01
5.703465e-01
5.696680e-01
5.690978e-01
5.687135e-01
5.685775e-01
5.687135e-01
5.690978e-01
5.696680e-01
5.703465e-01
5.710620e-01
5.717617e-01
5.724130e-01
0.000000e+00
1.000000e+00
5.725230e-01
5.719937e-01
5.714252e-01
5.708437e-01
5.702923e-01
5.698290e-01
5.695168e-01
5.694062e-01
5.695168e-01
5.698290e-01
5.702923e-01
5.708437e-01
5.714252e-01
5.719937e-01
5.725230e-01
0.000000e+00
1.000000e+00
5.726361e-01
5.722324e-01
5.717987e-01
5.713552e-01
5.709346e-01
5.705811e-01
5.703429e-01
5.702586e-01
5.703429e-01
5.705811e-01
5.709346e-01
5.713552e-01
5.717987e-01
5.722324e-01
5.726361e-01
0.000000e+00
1.000000e+00
5.727465e-01
5.724653e-01
5.721632e-01
5.718543e-01
5.715613e-01
5.713151e-01
5.711492e-01
5.710904e-01
5.711492e-01
5.713151e-01
5.715613e-01
5.718543e-01
5.721632e-01
5.724653e-01
5.727465e-01
0.000000e+00
1.000000e+00
5.728479e-01
5.726791e-01
5.724978e-01
5.723124e-01
5.721366e-01
5.719889e-01
5.718893e-01
5.718540e-01
5.718893e-01
5.719889e-01
5.721366e-01
5.723124e-01
5.724978e-01
5.726791e-01
5.728479e-01
0.000000e+00
1.000000e+00
5.729342e-01
5.728611e-01
5.727826e-01
5.727024e-01
5.726263e-01
5.725623e-01
5.725192e-01
5.725039e-01
5.725192e-01
5.725623e-01
5.726263e-01
5.727024e-01
5.727826e-01
5.728611e-01
5.729342e-01
0.000000e+00
1.000000e+00
5.730003e-01
5.730007e-01
5.730011e-01
5.730015e-01
5.730019e-01
5.730022e-01
5.730024e-01
5.730025e-01
5.730024e-01
5.730022e-01
5.730019e-01
5.730015e-01
5.730011e-01
5.730007e-01
5.730003e-01
0.000000e+00
1.000000e+00
5.730431e-01
5.730909e-01
5.731422e-01
5.731948e-01
5.732446e-01
5.732864e-01
5.733146e-01
5.733246e-01
5.733146e-01
5.732864e-01
5.732446e-01
5.731948e-01
5.731422e-01
5.730909e-01
5.730431e-01
0.000000e+00
1.000000e+00
5.730611e-01
5.731290e-01
5.732018e-01
5.732763e-01
5.733470e-01
5.734064e-01
5.734464e-01
5.734606e-01
5.734464e-01
5.734064e-01
5.733470e-01
5.732763e-01
5.732018e-01
5.731290e-01
5.730611e-01
0.000000e+00
1.000000e+00
5.730552e-01
5.731165e-01
5.731822e-01
5.732495e-01
5.733133e-01
5.733670e-01
5.734031e-01
5.734159e-01
5.734031e-01
5.733670e-01
5.733133e-01
5.732495e-01
5.731822e-01
5.731165e-01
5.730552e-01
0.000000e+00
1.000000e+00
5.730277e-01
5.730585e-01
5.730915e-01
5.731253e-01
5.731574e-01
5.731843e-01
5.732024e-01
5.732089e-01
5.732024e-01
5.731843e-01
5.731574e-01
5.731253e-01
5.730915e-01
5.730585e-01
5.730277e-01
0.000000e+00
1.000000e+00
5.729823e-01
5.729627e-01
5.729416e-01
5.729201e-01
5.728996e-01
5.728824e-01
5.728709e-01
5.728668e-01
5.728709e-01
5.728824e-01
5.728996e-01
5.729201e-01
5.729416e-01
5.729627e-01
5.729823e-01
0.000000e+00
1.000000e+00
5.729232e-01
5.728380e-01
5.727465e-01
5.726529e-01
5.725641e-01
5.724895e-01
5.724392e-01
5.724214e-01
5.724392e-01
5.724895e-01
5.725641e-01
5.726529e-01
5.727465e-01
5.728380e-01
5.729232e-01
0.000000e+00
1.000000e+00
5.728547e-01
5.726934e-01
5.725202e-01
5.723431e-01
5.721751e-01
5.720339e-01
5.719388e-01
5.719051e-01
5.719388e-01
5.720339e-01
5.721751e-01
5.723431e-01
5.725202e-01
5.726934e-01
5.728547e-01
0.000000e+00
1.000000e+00
5.720958e-01
5.710927e-01
5.700151e-01
5.689130e-01
5.678679e-01
5.669897e-01
5.663980e-01
5.661884e-01
5.663980e-01
5.669897e-01
5.678679e-01
5.689130e-01
5.700151e-01
5.710927e-01
5.720958e-01
0.000000e+00
1.000000e+00
5.721671e-01
5.712431e-01
5.702505e-01
5.692353e-01
5.682726e-01
5.674636e-01
5.669185e-01
5.667255e-01
5.669185e-01
5.674636e-01
5.682726e-01
5.692353e-01
5.702505e-01
5.712431e-01
5.721671e-01
0.000000e+00
1.000000e+00
5.722535e-01
5.714253e-01
5.705356e-01
5.696257e-01
5.687629e-01
5.680378e-01
5.675492e-01
5.673762e-01
5.675492e-01
5.680378e-01
5.687629e-01
5.696257e-01
5.705356e-01
5.714253e-01
5.722535e-01
0.000000e+00
1.000000e+00
5.723530e-01
5.716353e-01
5.708642e-01
5.700756e-01
5.693278e-01
5.686994e-01
5.682759e-01
5.681260e-01
5.682759e-01
5.686994e-01
5.693278e-01
5.700756e-01
5.708642e-01
5.716353e-01
5.723530e-01
0.000000e+00
1.000000e+00
5.724623e-01
5.718657e-01
5.712249e-01
5.705694e-01
5.699479e-01
5.694256e-01
5.690736e-01
5.689490e-01
5.690736e-01
5.694256e-01
5.699479e-01
5.705694e-01
5.712249e-01
5.718657e-01
5.724623e-01
0.000000e+00
1.000000e+00
5.725763e-01
5.721063e-01
5.716014e-01
5.710850e-01
5.705953e-01
5.701838e-01
5.699065e-01
5.698083e-01
5.699065e-01
5.701838e-01
5.705953e-01
5.710850e-01
5.716014e-01
5.721063e-01
5.725763e-01
0.000000e+00
1.000000e+00
5.726891e-01
5.723441e-01
5.719736e-01
5.715946e-01
5.712352e-01
5.709332e-01
5.707297e-01
5.706577e-01
5.707297e-01
5.709332e-01
5.712352e-01
5.715946e-01
5.719736e-01
5.723441e-01
5.726891e-01
0.000000e+00
1.000000e+00
5.727938e-01
5.725650e-01
5.723192e-01
5.720679e-01
5.718295e-01
5.716292e-01
5.714942e-01
5.714464e-01
5.714942e-01
5.716292e-01
5.718295e-01
5.720679e-01
5.723192e-01
5.725650e-01
5.727938e-01
0.000000e+00
1.000000e+00
5.728839e-01
5.727550e-01
5.726166e-01
5.724751e-01
5.723409e-01
5.722281e-01
5.721521e-01
5.721251e-01
5.721521e-01
5.722281e-01
5.723409e-01
5.724751e-01
5.726166e-01
5.727550e-01
5.728839e-01
0.000000e+00
1.000000e+00
5.729538e-01
5.729026e-01
5.728476e-01
5.727913e-01
5.727380e-01
5.726931e-01
5.726629e-01
5.726522e-01
5.726629e-01
5.726931e-01
5.727380e-01
5.727913e-01
5.728476e-01
5.729026e-01
5.729538e-01
0.000000e+00
1.000000e+00
5.729999e-01
5.729999e-01
5.729998e-01
5.729997e-01
5.729996e-01
5.729996e-01
5.729995e-01
5.729995e-01
5.729995e-01
5.729996e-01
5.729996e-01
5.729997e-01
5.729998e-01
5.729999e-01
5.729999e-01
0.000000e+00
1.000000e+00
5.730206e-01
5.730435e-01
5.730681e-01
5.730932e-01
5.731171e-01
5.731371e-01
5.731506e-01
5.731554e-01
5.731506e-01
5.731371e-01
5.731171e-01
5.730932e-01
5.730681e-01
5.730435e-01
5.730206e-01
0.000000e+00
1.000000e+00
5.730166e-01
5.730349e-01
5.730546e-01
5.730748e-01
5.730939e-01
5.731100e-01
5.731208e-01
5.731246e-01
5.731208e-01
5.731100e-01
5.730939e-01
5.730748e-01
5.730546e-01
5.730349e-01
5.730166e-01
0.000000e+00
1.000000e+00
5.729902e-01
5.729794e-01
5.729677e-01
5.729558e-01
5.729445e-01
5.729350e-01
5.729286e-01
5.729264e-01
5.729286e-01
5.729350e-01
5.729445e-01
5.729558e-01
5.729677e-01
5.729794e-01
5.729902e-01
0.000000e+00
1.000000e+00
5.729455e-01
5.728850e-01
5.728200e-01
5.727535e-01
5.726905e-01
5.726375e-01
5.726018e-01
5.725891e-01
5.726018e-01
5.726375e-01
5.726905e-01
5.727535e-01
5.728200e-01
5.728850e-01
5.729455e-01
0.000000e+00
1.000000e+00
5.728867e-01
5.727610e-01
5.726259e-01
5.724878e-01
5.723568e-01
5.722468e-01
5.721726e-01
5.721463e-01
5.721726e-01
5.722468e-01
5.723568e-01
5.724878e-01
5.726259e-01
5.727610e-01
5.728867e-01
0.000000e+00
1.000000e+00
5.728184e-01
5.726169e-01
5.724005e-01
5.721791e-01
5.719692e-01
5.717928e-01
5.716739e-01
5.716318e-01
5.716739e-01
5.717928e-01
5.719692e-01
5.721791e-01
5.724005e-01
5.726169e-01
5.728184e-01
0.000000e+00
1.000000e+00
5.720684e-01
5.710349e-01
5.699247e-01
5.687892e-01
5.677125e-01
5.668076e-01
5.661979e-01
5.659820e-01
5.661979e-01
5.668076e-01
5.677125e-01
5.687892e-01
5.699247e-01
5.710349e-01
5.720684e-01
0.000000e+00
1.000000e+00
5.721348e-01
5.711750e-01
5.701439e-01
5.690893e-01
5.680894e-01
5.672490e-01
5.666828e-01
5.664823e-01
5.666828e-01
5.672490e-01
5.680894e-01
5.690893e-01
5.701439e-01
5.711750e-01
5.721348e-01
0.000000e+00
1.000000e+00
5.722175e-01
5.713493e-01
5.704167e-01
5.694628e-01
5.685584e-01
5.677983e-01
5.672861e-01
5.671047e-01
5.672861e-01
5.677983e-01
5.685584e-01
5.694628e-01
5.704167e-01
5.713493e-01
5.722175e-01
0.000000e+00
1.000000e+00
5.723147e-01
5.715543e-01
5.707375e-01
5.699022e-01
5.691100e-01
5.684443e-01
5.679958e-01
5.678369e-01
5.679958e-01
5.684443e-01
5.691100e-01
5.699022e-01
5.707375e-01
5.715543e-01
5.723147e-01
0.000000e+00
1.000000e+00
5.724231e-01
5.717831e-01
5.710956e-01
5.703925e-01
5.697257e-01
5.691654e-01
5.687878e-01
5.686541e-01
5.687878e-01
5.691654e-01
5.697257e-01
5.703925e-01
5.710956e-01
5.717831e-01
5.724231e-01
0.000000e+00
1.000000e+00
5.725380e-01
5.720254e-01
5.714747e-01
5.709115e-01
5.703774e-01
5.699286e-01
5.696262e-01
5.695191e-01
5.696262e-01
5.699286e-01
5.703774e-01
5.709115e-01
5.714747e-01
5.720254e-01
5.725380e-01
0.000000e+00
1.000000e+00
5.726528e-01
5.722676e-01
5.718538e-01
5.714306e-01
5.710293e-01
5.706921e-01
5.704648e-01
5.703843e-01
5.704648e-01
5.706921e-01
5.710293e-01
5.714306e-01
5.718538e-01
5.722676e-01
5.726528e-01
0.000000e+00
1.000000e+00
5.727606e-01
5.724949e-01
5.722095e-01
5.719177e-01
5.716409e-01
5.714083e-01
5.712516e-01
5.711961e-01
5.712516e-01
5.714083e-01
5.716409e-01
5.719177e-01
5.722095e-01
5.724949e-01
5.727606e-01
0.000000e+00
1.000000e+00
5.728542e-01
5.726924e-01
5.725185e-01
5.723408e-01
5.721722e-01
5.720305e-01
5.719351e-01
5.719013e-01
5.719351e-01
5.720305e-01
5.721722e-01
5.723408e-01
5.725185e-01
5.726924e-01
5.728542e-01
0.000000e+00
1.000000e+00
5.729276e-01
5.728473e-01
5.727610e-01
5.726727e-01
5.725891e-01
5.725187e-01
5.724713e-01
5.724546e-01
5.724713e-01
5.725187e-01
5.725891e-01
5.726727e-01
5.727610e-01
5.728473e-01
5.729276e-01
0.000000e+00
1.000000e+00
5.729767e-01
5.729509e-01
5.729232e-01
5.728948e-01
5.728679e-01
5.728453e-01
5.728301e-01
5.728247e-01
5.728301e-01
5.728453e-01
5.728679e-01
5.728948e-01
5.729232e-01
5.729509e-01
5.729767e-01
0.000000e+00
1.000000e+00
5.729998e-01
5.729995e-01
5.729992e-01
5.729989e-01
5.729986e-01
5.729984e-01
5.729982e-01
5.729981e-01
5.729982e-01
5.729984e-01
5.729986e-01
5.729989e-01
5.729992e-01
5.729995e-01
5.729998e-01
0.000000e+00
1.000000e+00
5.729972e-01
5.729942e-01
5.729909e-01
5.729875e-01
5.729843e-01
5.729816e-01
5.729798e-01
5.729792e-01
5.729798e-01
5.729816e-01
5.729843e-01
5.729875e-01
5.729909e-01
5.729942e-01
5.729972e-01
0.000000e+00
1.000000e+00
5.729718e-01
5.729405e-01
5.729068e-01
5.728724e-01
5.728398e-01
5.728124e-01
5.727939e-01
5.727873e-01
5.727939e-01
5.728124e-01
5.728398e-01
5.728724e-01
5.729068e-01
5.729405e-01
5.729718e-01
0.000000e+00
1.000000e+00
5.729273e-01
5.728467e-01
5.727601e-01
5.726715e-01
5.725875e-01
5.725169e-01
5.724693e-01
5.724525e-01
5.724693e-01
5.725169e-01
5.725875e-01
5.726715e-01
5.727601e-01
5.728467e-01
5.729273e-01
0.000000e+00
1.000000e+00
5.728685e-01
5.727227e-01
5.725660e-01
5.724057e-01
5.722537e-01
5.721260e-01
5.720400e-01
5.720095e-01
5.720400e-01
5.721260e-01
5.722537e-01
5.724057e-01
5.725660e-01
5.727227e-01
5.728685e-01
0.000000e+00
1.000000e+00
5.728000e-01
5.725782e-01
5.723399e-01
5.720961e-01
5.718650e-01
5.716708e-01
5.715399e-01
5.714936e-01
5.715399e-01
5.716708e-01
5.718650e-01
5.720961e-01
5.723399e-01
5.725782e-01
5.728000e-01
0.000000e+00
1.000000e+00
5.720642e-01
5.710260e-01
5.699108e-01
5.687701e-01
5.676885e-01
5.667796e-01
5.661671e-01
5.659502e-01
5.661671e-01
5.667796e-01
5.676885e-01
5.687701e-01
5.699108e-01
5.710260e-01
5.720642e-01
0.000000e+00
1.000000e+00
5.721267e-01
5.711578e-01
5.701170e-01
5.690525e-01
5.680431e-01
5.671949e-01
5.666233e-01
5.664209e-01
5.666233e-01
5.671949e-01
5.680431e-01
5.690525e-01
5.701170e-01
5.711578e-01
5.721267e-01
0.000000e+00
1.000000e+00
5.722063e-01
5.713258e-01
5.703799e-01
5.694125e-01
5.684952e-01
5.677243e-01
5.672048e-01
5.670209e-01
5.672048e-01
5.677243e-01
5.684952e-01
5.694125e-01
5.703799e-01
5.713258e-01
5.722063e-01
0.000000e+00
1.000000e+00
5.723017e-01
5.715270e-01
5.706948e-01
5.698436e-01
5.690365e-01
5.683583e-01
5.679013e-01
5.677394e-01
5.679013e-01
5.683583e-01
5.690365e-01
5.698436e-01
5.706948e-01
5.715270e-01
5.723017e-01
0.000000e+00
1.000000e+00
5.724097e-01
5.717548e-01
5.710513e-01
5.703317e-01
5.696494e-01
5.690760e-01
5.686897e-01
5.685528e-01
5.686897e-01
5.690760e-01
5.696494e-01
5.703317e-01
5.710513e-01
5.717548e-01
5.724097e-01
0.000000e+00
1.000000e+00
5.725253e-01
5.719987e-01
5.714330e-01
5.708544e-01
5.703058e-01
5.698447e-01
5.695340e-01
5.694240e-01
5.695340e-01
5.698447e-01
5.703058e-01
5.708544e-01
5.714330e-01
5.719987e-01
5.725253e-01
0.000000e+00
1.000000e+00
5.726421e-01
5.722451e-01
5.718186e-01
5.713824e-01
5.709687e-01
5.706211e-01
5.703869e-01
5.703039e-01
5.703869e-01
5.706211e-01
5.709687e-01
5.713824e-01
5.718186e-01
5.722451e-01
5.726421e-01
0.000000e+00
1.000000e+00
5.727526e-01
5.724782e-01
5.721834e-01
5.718819e-01
5.715960e-01
5.713557e-01
5.711938e-01
5.711365e-01
5.711938e-01
5.713557e-01
5.715960e-01
5.718819e-01
5.721834e-01
5.724782e-01
5.727526e-01
0.000000e+00
1.000000e+00
5.728494e-01
5.726823e-01
5.725027e-01
5.723191e-01
5.721450e-01
5.719987e-01
5.719001e-01
5.718652e-01
5.719001e-01
5.719987e-01
5.721450e-01
5.723191e-01
5.725027e-01
5.726823e-01
5.728494e-01
0.000000e+00
1.000000e+00
5.729259e-01
5.728436e-01
5.727552e-01
5.726648e-01
5.725791e-01
5.725070e-01
5.724585e-01
5.724413e-01
5.724585e-01
5.725070e-01
5.725791e-01
5.726648e-01
5.727552e-01
5.728436e-01
5.729259e-01
0.000000e+00
1.000000e+00
5.729775e-01
5.729526e-01
5.729259e-01
5.728985e-01
5.728725e-01
5.728507e-01
5.728360e-01
5.728308e-01
5.728360e-01
5.728507e-01
5.728725e-01
5.728985e-01
5.729259e-01
5.729526e-01
5.729775e-01
0.000000e+00
1.000000e+00
5.730024e-01
5.730051e-01
5.730080e-01
5.730109e-01
5.730137e-01
5.730160e-01
5.730176e-01
5.730182e-01
5.730176e-01
5.730160e-01
5.730137e-01
5.730109e-01
5.730080e-01
5.730051e-01
5.730024e-01
0.000000e+00
1.000000e+00
5.730010e-01
5.730020e-01
5.730032e-01
5.730044e-01
5.730055e-01
5.730064e-01
5.730071e-01
5.730073e-01
5.730071e-01
5.730064e-01
5.730055e-01
5.730044e-01
5.730032e-01
5.730020e-01
5.730010e-01
0.000000e+00
1.000000e+00
5.729759e-01
5.729491e-01
5.729203e-01
5.728909e-01
5.728629e-01
5.728395e-01
5.728237e-01
5.728181e-01
5.728237e-01
5.728395e-01
5.728629e-01
5.728909e-01
5.729203e-01
5.729491e-01
5.729759e-01
0.000000e+00
1.000000e+00
5.729312e-01
5.728549e-01
5.727728e-01
5.726890e-01
5.726094e-01
5.725426e-01
5.724975e-01
5.724816e-01
5.724975e-01
5.725426e-01
5.726094e-01
5.726890e-01
5.727728e-01
5.728549e-01
5.729312e-01
0.000000e+00
1.000000e+00
5.728718e-01
5.727296e-01
5.725767e-01
5.724205e-01
5.722723e-01
5.721477e-01
5.720638e-01
5.720341e-01
5.720638e-01
5.721477e-01
5.722723e-01
5.724205e-01
5.725767e-01
5.727296e-01
5.728718e-01
0.000000e+00
1.000000e+00
5.728025e-01
5.725834e-01
5.723480e-01
5.721073e-01
5.718790e-01
5.716872e-01
5.715579e-01
5.715122e-01
5.715579e-01
5.716872e-01
5.718790e-01
5.721073e-01
5.723480e-01
5.725834e-01
5.728025e-01
0.000000e+00
1.000000e+00
5.720845e-01
5.710688e-01
5.699776e-01
5.688617e-01
5.678035e-01
5.669142e-01
5.663150e-01
5.661028e-01
5.663150e-01
5.669142e-01
5.678035e-01
5.688617e-01
5.699776e-01
5.710688e-01
5.720845e-01
0.000000e+00
1.000000e+00
5.721444e-01
5.711951e-01
5.701754e-01
5.691324e-01
5.681434e-01
5.673124e-01
5.667524e-01
5.665540e-01
5.667524e-01
5.673124e-01
5.681434e-01
5.691324e-01
5.701754e-01
5.711951e-01
5.721444e-01
0.000000e+00
1.000000e+00
5.722221e-01
5.713592e-01
5.704321e-01
5.694839e-01
5.685849e-01
5.678293e-01
5.673202e-01
5.671399e-01
5.673202e-01
5.678293e-01
5.685849e-01
5.694839e-01
5.704321e-01
5.713592e-01
5.722221e-01
0.000000e+00
1.000000e+00
5.723165e-01
5.715583e-01
5.707438e-01
5.699107e-01
5.691207e-01
5.684569e-01
5.680095e-01
5.678511e-01
5.680095e-01
5.684569e-01
5.691207e-01
5.699107e-01
5.707438e-01
5.715583e-01
5.723165e-01
0.000000e+00
1.000000e+00
5.724246e-01
5.717861e-01
5.711003e-01
5.703989e-01
5.697338e-01
5.691748e-01
5.687982e-01
5.686648e-01
5.687982e-01
5.691748e-01
5.697338e-01
5.703989e-01
5.711003e-01
5.717861e-01
5.724246e-01
0.000000e+00
1.000000e+00
5.725412e-01
5.720323e-01
5.714855e-01
5.709263e-01
5.703960e-01
5.699504e-01
5.696501e-01
5.695438e-01
5.696501e-01
5.699504e-01
5.703960e-01
5.709263e-01
5.714855e-01
5.720323e-01
5.725412e-01
0.000000e+00
1.000000e+00
5.726599e-01
5.722826e-01
5.718773e-01
5.714628e-01
5.710697e-01
5.707393e-01
5.705168e-01
5.704379e-01
5.705168e-01
5.707393e-01
5.710697e-01
5.714628e-01
5.718773e-01
5.722826e-01
5.726599e-01
0.000000e+00
1.000000e+00
5.727729e-01
5.725209e-01
5.722502e-01
5.719734e-01
5.717109e-01
5.714903e-01
5.713416e-01
5.712890e-01
5.713416e-01
5.714903e-01
5.717109e-01
5.719734e-01
5.722502e-01
5.725209e-01
5.727729e-01
0.000000e+00
1.000000e+00
5.728723e-01
5.727306e-01
5.725783e-01
5.724226e-01
5.722750e-01
5.721509e-01
5.720673e-01
5.720377e-01
5.720673e-01
5.721509e-01
5.722750e-01
5.724226e-01
5.725783e-01
5.727306e-01
5.728723e-01
0.000000e+00
1.000000e+00
5.729512e-01
5.728971e-01
5.728389e-01
5.727795e-01
5.727231e-01
5.726757e-01
5.726438e-01
5.726324e-01
5.726438e-01
5.726757e-01
5.727231e-01
5.727795e-01
5.728389e-01
5.728971e-01
5.729512e-01
0.000000e+00
1.000000e+00
5.730049e-01
5.730103e-01
5.730161e-01
5.730220e-01
5.730276e-01
5.730323e-01
5.730355e-01
5.730366e-01
5.730355e-01
5.730323e-01
5.730276e-01
5.730220e-01
5.730161e-01
5.730103e-01
5.730049e-01
0.000000e+00
1.000000e+00
5.730310e-01
5.730654e-01
5.731023e-01
5.731400e-01
5.731758e-01
5.732059e-01
5.732262e-01
5.732334e-01
5.732262e-01
5.732059e-01
5.731758e-01
5.731400e-01
5.731023e-01
5.730654e-01
5.730310e-01
0.000000e+00
1.000000e+00
5.730300e-01
5.730633e-01
5.730990e-01
5.731356e-01
5.731702e-01
5.731993e-01
5.732190e-01
5.732259e-01
5.732190e-01
5.731993e-01
5.731702e-01
5.731355e-01
5.730990e-01
5.730633e-01
5.730300e-01
0.000000e+00
1.000000e+00
5.730046e-01
5.730097e-01
5.730152e-01
5.730208e-01
5.730261e-01
5.730306e-01
5.730336e-01
5.730347e-01
5.730336e-01
5.730306e-01
5.730261e-01
5.730208e-01
5.730152e-01
5.730097e-01
5.730046e-01
0.000000e+00
1.000000e+00
5.729591e-01
5.729137e-01
5.728649e-01
5.728150e-01
5.727677e-01
5.727280e-01
5.727012e-01
5.726917e-01
5.727012e-01
5.727280e-01
5.727677e-01
5.728150e-01
5.728649e-01
5.729137e-01
5.729591e-01
0.000000e+00
1.000000e+00
5.728984e-01
5.727857e-01
5.726646e-01
5.725407e-01
5.724233e-01
5.723246e-01
5.722581e-01
5.722346e-01
5.722581e-01
5.723246e-01
5.724233e-01
5.725407e-01
5.726646e-01
5.727857e-01
5.728984e-01
0.000000e+00
1.000000e+00
5.728276e-01
5.726363e-01
5.724308e-01
5.722206e-01
5.720214e-01
5.718539e-01
5.717410e-01
5.717011e-01
5.717410e-01
5.718539e-01
5.720214e-01
5.722206e-01
5.724308e-01
5.726363e-01
5.728276e-01
0.000000e+00
1.000000e+00
5.721289e-01
5.711625e-01
5.701243e-01
5.690625e-01
5.680556e-01
5.672095e-01
5.666394e-01
5.664374e-01
5.666394e-01
5.672095e-01
5.680556e-01
5.690625e-01
5.701243e-01
5.711625e-01
5.721289e-01
0.000000e+00
1.000000e+00
5.721878e-01
5.712867e-01
5.703187e-01
5.693286e-01
5.683898e-01
5.676009e-01
5.670693e-01
5.668810e-01
5.670693e-01
5.676009e-01
5.683898e-01
5.693286e-01
5.703187e-01
5.712867e-01
5.721878e-01
0.000000e+00
1.000000e+00
5.722650e-01
5.714496e-01
5.705736e-01
5.696777e-01
5.688281e-01
5.681142e-01
5.676332e-01
5.674628e-01
5.676332e-01
5.681142e-01
5.688281e-01
5.696777e-01
5.705736e-01
5.714496e-01
5.722650e-01
0.000000e+00
1.000000e+00
5.723594e-01
5.716488e-01
5.708854e-01
5.701046e-01
5.693642e-01
5.687420e-01
5.683228e-01
5.681743e-01
5.683228e-01
5.687420e-01
5.693642e-01
5.701046e-01
5.708854e-01
5.716488e-01
5.723594e-01
0.000000e+00
1.000000e+00
5.724682e-01
5.718781e-01
5.712442e-01
5.705959e-01
5.699812e-01
5.694646e-01
5.691165e-01
5.689932e-01
5.691165e-01
5.694646e-01
5.699812e-01
5.705959e-01
5.712442e-01
5.718781e-01
5.724682e-01
0.000000e+00
1.000000e+00
5.725862e-01
5.721270e-01
5.716338e-01
5.711293e-01
5.706510e-01
5.702490e-01
5.699781e-01
5.698822e-01
5.699781e-01
5.702490e-01
5.706510e-01
5.711293e-01
5.716338e-01
5.721270e-01
5.725862e-01
0.000000e+00
1.000000e+00
5.727067e-01
5.723813e-01
5.720317e-01
5.716741e-01
5.713351e-01
5.710502e-01
5.708582e-01
5.707902e-01
5.708582e-01
5.710502e-01
5.713351e-01
5.716741e-01
5.720317e-01
5.723813e-01
5.727067e-01
0.000000e+00
1.000000e+00
5.728218e-01
5.726240e-01
5.724116e-01
5.721943e-01
5.719883e-01
5.718152e-01
5.716985e-01
5.716572e-01
5.716985e-01
5.718152e-01
5.719883e-01
5.721943e-01
5.724116e-01
5.726240e-01
5.728218e-01
0.000000e+00
1.000000e+00
5.729233e-01
5.728382e-01
5.727467e-01
5.726532e-01
5.725645e-01
5.724899e-01
5.724397e-01
5.724219e-01
5.724397e-01
5.724899e-01
5.725645e-01
5.726532e-01
5.727467e-01
5.728382e-01
5.729233e-01
0.000000e+00
1.000000e+00
5.730041e-01
5.730085e-01
5.730134e-01
5.730183e-01
5.730230e-01
5.730269e-01
5.730295e-01
5.730305e-01
5.730295e-01
5.730269e-01
5.730230e-01
5.730183e-01
5.730134e-01
5.730085e-01
5.730041e-01
0.000000e+00
1.000000e+00
5.730590e-01
5.731244e-01
5.731947e-01
5.732666e-01
5.733348e-01
5.733921e-01
5.734307e-01
5.734444e-01
5.734307e-01
5.733921e-01
5.733348e-01
5.732666e-01
5.731947e-01
5.731244e-01
5.730590e-01
0.000000e+00
1.000000e+00
5.730857e-01
5.731807e-01
5.732829e-01
5.733873e-01
5.734863e-01
5.735695e-01
5.736256e-01
5.736455e-01
5.736256e-01
5.735695e-01
5.734863e-01
5.733873e-01
5.732829e-01
5.731807e-01
5.730857e-01
0.000000e+00
1.000000e+00
5.730845e-01
5.731783e-01
5.732790e-01
5.733821e-01
5.734797e-01
5.735618e-01
5.736172e-01
5.736367e-01
5.736172e-01
5.735618e-01
5.734797e-01
5.733821e-01
5.732790e-01
5.731783e-01
5.730845e-01
0.000000e+00
1.000000e+00
5.730583e-01
5.731229e-01
5.731923e-01
5.732633e-01
5.733307e-01
5.733872e-01
5.734254e-01
5.734389e-01
5.734254e-01
5.733872e-01
5.733307e-01
5.732633e-01
5.731923e-01
5.731229e-01
5.730583e-01
0.000000e+00
1.000000e+00
5.730113e-01
5.730237e-01
5.730372e-01
5.730509e-01
5.730639e-01
5.730748e-01
5.730822e-01
5.730848e-01
5.730822e-01
5.730748e-01
5.730639e-01
5.730509e-01
5.730372e-01
5.730237e-01
5.730113e-01
0.000000e+00
1.000000e+00
5.729487e-01
5.728917e-01
5.728305e-01
5.727679e-01
5.727085e-01
5.726586e-01
5.726250e-01