<?xml version="1.0"?>
<VTKFile type="StructuredGrid" version="0.1">
  <StructuredGrid WholeExtent="0 16 0 16 0 16">
    <Piece Extent="0 16 0 16 0 16">
      <PointData Scalars="temperature" Vectors="velocity">
        <DataArray type="Float32" Name="temperature" format="ascii">
1.000000e+00
5.731990e-01
5.730255e-01
5.730476e-01
5.730618e-01
5.730752e-01
5.730865e-01
5.730941e-01
5.730970e-01
5.730946e-01
5.730876e-01
5.730768e-01
5.730645e-01
5.730499e-01
5.730903e-01
5.724519e-01
0.000000e+00
1.000000e+00
5.732249e-01
5.732337e-01
5.733816e-01
5.735170e-01
5.736453e-01
5.737531e-01
5.738254e-01
5.738507e-01
5.738243e-01
5.737513e-01
5.736438e-01
5.735203e-01
5.733870e-01
5.732441e-01
5.724948e-01
0.000000e+00
1.000000e+00
5.734753e-01
5.736836e-01
5.740859e-01
5.744826e-01
5.748586e-01
5.751743e-01
5.753866e-01
5.754608e-01
5.753835e-01
5.751688e-01
5.748532e-01
5.744866e-01
5.741129e-01
5.737101e-01
5.732277e-01
0.000000e+00
1.000000e+00
5.738527e-01
5.743896e-01
5.751955e-01
5.760020e-01
5.767668e-01
5.774094e-01
5.778417e-01
5.779936e-01
5.778374e-01
5.774014e-01
5.767593e-01
5.760162e-01
5.752589e-01
5.744572e-01
5.734433e-01
0.000000e+00
1.000000e+00
5.743632e-01
5.753518e-01
5.767099e-01
5.780760e-01
5.793715e-01
5.804601e-01
5.811932e-01
5.814518e-01
5.811896e-01
5.804532e-01
5.793692e-01
5.781225e-01
5.768275e-01
5.754529e-01
5.739927e-01
0.000000e+00
1.000000e+00
5.749995e-01
5.765533e-01
5.786025e-01
5.806677e-01
5.826264e-01
5.842728e-01
5.853823e-01
5.857754e-01
5.853823e-01
5.842750e-01
5.826520e-01
5.807738e-01
5.787640e-01
5.766902e-01
5.745535e-01
0.000000e+00
1.000000e+00
5.757447e-01
5.779556e-01
5.808137e-01
5.836957e-01
5.864293e-01
5.887276e-01
5.902777e-01
5.908291e-01
5.902859e-01
5.887513e-01
5.865082e-01
5.838607e-01
5.810101e-01
5.781209e-01
5.752635e-01
0.000000e+00
1.000000e+00
5.765668e-01
5.794998e-01
5.832529e-01
5.870357e-01
5.906244e-01
5.936422e-01
5.956788e-01
5.964063e-01
5.957000e-01
5.936995e-01
5.907655e-01
5.872435e-01
5.834758e-01
5.797020e-01
5.759935e-01
0.000000e+00
1.000000e+00
5.774235e-01
5.811142e-01
5.858042e-01
5.905291e-01
5.950120e-01
5.987827e-01
6.013289e-01
6.022416e-01
6.013670e-01
5.988798e-01
5.952126e-01
5.907672e-01
5.860547e-01
5.813497e-01
5.766633e-01
0.000000e+00
1.000000e+00
5.782703e-01
5.827154e-01
5.883373e-01
5.939974e-01
5.993679e-01
6.038860e-01
6.069388e-01
6.080364e-01
6.069971e-01
6.040294e-01
5.996236e-01
5.942653e-01
5.886055e-01
5.829807e-01
5.772926e-01
0.000000e+00
1.000000e+00
5.790720e-01
5.842192e-01
5.907209e-01
5.972606e-01
6.034661e-01
6.086876e-01
6.122175e-01
6.134910e-01
6.122997e-01
6.088810e-01
6.037687e-01
5.975549e-01
5.910085e-01
5.845051e-01
5.780025e-01
0.000000e+00
1.000000e+00
5.797945e-01
5.855497e-01
5.928368e-01
6.001571e-01
6.071036e-01
6.129497e-01
6.169045e-01
6.183364e-01
6.170139e-01
6.131924e-01
6.074457e-01
6.004791e-01
5.931337e-01
5.858643e-01
5.786320e-01
0.000000e+00
1.000000e+00
5.804113e-01
5.866460e-01
5.945914e-01
6.025589e-01
6.101202e-01
6.164853e-01
6.207942e-01
6.223610e-01
6.209301e-01
6.167702e-01
6.104955e-01
6.029035e-01
5.948963e-01
5.869873e-01
5.791076e-01
0.000000e+00
1.000000e+00
5.808959e-01
5.874686e-01
5.959232e-01
6.043821e-01
6.124110e-01
6.191717e-01
6.237518e-01
6.254235e-01
6.239090e-01
6.194875e-01
6.128088e-01
6.047439e-01
5.962253e-01
5.878406e-01
5.794558e-01
0.000000e+00
1.000000e+00
5.812444e-01
5.879974e-01
5.968036e-01
6.055889e-01
6.139289e-01
6.209533e-01
6.257148e-01
6.274566e-01
6.258830e-01
6.212844e-01
6.143424e-01
6.059630e-01
5.971043e-01
5.883973e-01
5.797652e-01
0.000000e+00
1.000000e+00
5.814586e-01
5.882303e-01
5.972365e-01
6.061842e-01
6.146793e-01
6.218352e-01
6.266874e-01
6.284631e-01
6.268544e-01
6.221661e-01
6.151006e-01
6.065691e-01
5.975343e-01
5.886786e-01
5.798562e-01
0.000000e+00
1.000000e+00
5.815277e-01
5.882088e-01
5.972540e-01
6.062083e-01
6.147088e-01
6.218684e-01
6.267243e-01
6.285035e-01
6.268831e-01
6.221737e-01
6.151238e-01
6.065928e-01
5.975457e-01
5.887014e-01
5.796004e-01
0.000000e+00
1.000000e+00
5.731546e-01
5.730176e-01
5.730354e-01
5.730445e-01
5.730531e-01
5.730602e-01
5.730649e-01
5.730666e-01
5.730649e-01
5.730603e-01
5.730534e-01
5.730504e-01
5.730434e-01
5.730744e-01
5.723717e-01
0.000000e+00
1.000000e+00
5.733481e-01
5.734574e-01
5.737293e-01
5.739935e-01
5.742438e-01
5.744540e-01
5.745953e-01
5.746447e-01
5.745933e-01
5.744504e-01
5.742389e-01
5.739929e-01
5.737473e-01
5.735168e-01
5.725041e-01
0.000000e+00
1.000000e+00
5.737294e-01
5.741630e-01
5.748372e-01
5.755113e-01
5.761504e-01
5.766873e-01
5.770486e-01
5.771756e-01
5.770454e-01
5.766812e-01
5.761419e-01
5.755128e-01
5.748823e-01
5.742253e-01
5.733086e-01
0.000000e+00
1.000000e+00
5.742488e-01
5.751448e-01
5.763825e-01
5.776275e-01
5.788080e-01
5.798000e-01
5.804679e-01
5.807037e-01
5.804649e-01
5.797934e-01
5.787998e-01
5.776581e-01
5.764820e-01
5.752393e-01
5.736905e-01
0.000000e+00
1.000000e+00
5.749113e-01
5.763960e-01
5.783541e-01
5.803272e-01
5.821984e-01
5.837710e-01
5.848309e-01
5.852065e-01
5.848312e-01
5.837716e-01
5.822126e-01
5.804193e-01
5.785079e-01
5.765188e-01
5.744003e-01
0.000000e+00
1.000000e+00
5.757048e-01
5.778885e-01
5.807080e-01
5.835506e-01
5.862467e-01
5.885134e-01
5.900421e-01
5.905866e-01
5.900513e-01
5.885347e-01
5.863135e-01
5.837054e-01
5.808903e-01
5.780453e-01
5.750766e-01
0.000000e+00
1.000000e+00
5.765971e-01
5.795705e-01
5.833636e-01
5.871871e-01
5.908141e-01
5.938640e-01
5.959224e-01
5.966581e-01
5.959441e-01
5.939160e-01
5.909450e-01
5.873851e-01
5.835754e-01
5.797633e-01
5.758808e-01
0.000000e+00
1.000000e+00
5.775466e-01
5.813692e-01
5.862036e-01
5.910757e-01
5.956980e-01
5.995859e-01
6.022115e-01
6.031535e-01
6.022502e-01
5.996790e-01
5.958978e-01
5.913121e-01
5.864437e-01
5.815989e-01
5.766764e-01
0.000000e+00
1.000000e+00
5.785093e-01
5.831921e-01
5.890856e-01
5.950218e-01
6.006539e-01
6.053922e-01
6.085943e-01
6.097470e-01
6.086539e-01
6.055360e-01
6.009210e-01
5.952949e-01
5.893536e-01
5.834543e-01
5.774884e-01
0.000000e+00
1.000000e+00
5.794403e-01
5.849409e-01
5.918563e-01
5.988151e-01
6.054177e-01
6.109736e-01
6.147306e-01
6.160878e-01
6.148155e-01
6.111755e-01
6.057461e-01
5.991283e-01
5.921441e-01
5.852321e-01
5.782808e-01
0.000000e+00
1.000000e+00
5.802977e-01
5.865202e-01
5.943672e-01
6.022525e-01
6.097344e-01
6.160315e-01
6.202929e-01
6.218388e-01
6.204080e-01
6.162943e-01
6.101178e-01
6.026022e-01
5.946771e-01
5.868411e-01
5.790489e-01
0.000000e+00
1.000000e+00
5.810408e-01
5.878488e-01
5.964924e-01
6.051613e-01
6.133876e-01
6.203134e-01
6.250044e-01
6.267142e-01
6.251517e-01
6.206336e-01
6.138178e-01
6.055467e-01
5.968170e-01
5.882066e-01
5.796858e-01
0.000000e+00
1.000000e+00
5.816412e-01
5.888668e-01
5.981406e-01
6.074176e-01
6.162225e-01
6.236381e-01
6.286656e-01
6.305060e-01
6.288410e-01
6.240023e-01
6.166916e-01
6.078302e-01
5.984737e-01
5.892643e-01
5.801052e-01
0.000000e+00
1.000000e+00
5.820807e-01
5.895399e-01
5.992615e-01
6.089535e-01
6.181545e-01
6.259064e-01
6.311659e-01
6.330966e-01
6.313582e-01
6.262966e-01
6.186495e-01
6.093869e-01
5.995886e-01
5.899812e-01
5.804127e-01
0.000000e+00
1.000000e+00
5.823616e-01
5.898558e-01
5.998456e-01
6.097576e-01
6.191686e-01
6.270990e-01
6.324814e-01
6.344584e-01
6.326771e-01
6.274961e-01
6.196751e-01
6.102021e-01
6.001721e-01
5.903489e-01
5.806455e-01
0.000000e+00
1.000000e+00
5.824906e-01
5.898216e-01
5.999195e-01
6.098648e-01
6.193070e-01
6.272636e-01
6.326639e-01
6.346448e-01
6.328499e-01
6.276478e-01
6.198016e-01
6.103036e-01
6.002480e-01
5.903984e-01
5.806311e-01
0.000000e+00
1.000000e+00
5.824788e-01
5.895003e-01
5.995362e-01
6.093432e-01
6.186522e-01
6.264959e-01
6.318196e-01
6.337725e-01
6.319826e-01
6.268305e-01
6.191091e-01
6.097513e-01
5.998195e-01
5.901176e-01
5.805123e-01
0.000000e+00
1.000000e+00
5.730484e-01
5.727737e-01
5.726469e-01
5.725133e-01
5.723866e-01
5.722801e-01
5.722082e-01
5.721825e-01
5.722075e-01
5.722790e-01
5.723853e-01
5.725272e-01
5.726676e-01
5.728548e-01
5.725225e-01
0.000000e+00
1.000000e+00
5.733601e-01
5.734504e-01
5.737132e-01
5.739714e-01
5.742162e-01
5.744216e-01
5.745595e-01
5.746073e-01
5.745561e-01
5.744151e-01
5.742062e-01
5.739716e-01
5.737502e-01
5.735489e-01
5.728570e-01
0.000000e+00
1.000000e+00
5.738510e-01
5.744190e-01
5.752363e-01
5.760573e-01
5.768357e-01
5.774895e-01
5.779294e-01
5.780836e-01
5.779241e-01
5.774782e-01
5.768167e-01
5.760554e-01
5.753053e-01
5.745198e-01
5.731672e-01
0.000000e+00
1.000000e+00
5.745247e-01
5.756877e-01
5.772342e-01
5.787935e-01
5.802720e-01
5.815142e-01
5.823508e-01
5.826459e-01
5.823462e-01
5.815032e-01
5.802569e-01
5.788459e-01
5.773723e-01
5.758062e-01
5.737101e-01
0.000000e+00
1.000000e+00
5.753528e-01
5.772409e-01
5.796832e-01
5.821469e-01
5.844833e-01
5.864471e-01
5.877707e-01
5.882403e-01
5.877727e-01
5.864516e-01
5.845181e-01
5.822811e-01
5.798513e-01
5.773827e-01
5.744890e-01
0.000000e+00
1.000000e+00
5.763115e-01
5.790377e-01
5.825194e-01
5.860307e-01
5.893612e-01
5.921613e-01
5.940505e-01
5.947246e-01
5.940653e-01
5.921968e-01
5.894674e-01
5.862135e-01
5.827096e-01
5.792130e-01
5.753706e-01
0.000000e+00
1.000000e+00
5.773572e-01
5.810107e-01
5.856361e-01
5.902984e-01
5.947213e-01
5.984411e-01
6.009529e-01
6.018527e-01
6.009842e-01
5.985175e-01
5.949013e-01
5.905200e-01
5.858562e-01
5.812247e-01
5.763352e-01
0.000000e+00
1.000000e+00
5.784425e-01
5.830681e-01
5.888869e-01
5.947494e-01
6.003114e-01
6.049909e-01
6.081534e-01
6.092908e-01
6.082060e-01
6.051215e-01
6.005687e-01
5.950176e-01
5.891335e-01
5.833158e-01
5.773136e-01
0.000000e+00
1.000000e+00
5.795202e-01
5.850979e-01
5.921006e-01
5.991493e-01
6.058376e-01
6.114663e-01
6.152736e-01
6.166479e-01
6.153532e-01
6.116635e-01
6.061699e-01
5.994692e-01
5.923716e-01
5.853777e-01
5.782938e-01
0.000000e+00
1.000000e+00
5.805378e-01
5.869857e-01
5.950987e-01
6.032543e-01
6.109935e-01
6.175084e-01
6.219187e-01
6.235173e-01
6.220322e-01
6.177785e-01
6.113947e-01
6.036277e-01
5.953937e-01
5.872970e-01
5.791966e-01
0.000000e+00
1.000000e+00
5.814457e-01
5.886248e-01
5.977168e-01
6.068395e-01
6.154964e-01
6.227856e-01
6.277246e-01
6.295239e-01
6.278771e-01
6.231272e-01
6.159598e-01
6.072600e-01
5.980351e-01
5.889711e-01
5.799835e-01
0.000000e+00
1.000000e+00
5.821979e-01
5.899302e-01
5.998232e-01
6.097227e-01
6.191175e-01
6.270318e-01
6.324012e-01
6.343673e-01
6.325907e-01
6.274353e-01
6.196370e-01
6.101825e-01
6.001613e-01
5.903174e-01
5.806054e-01
0.000000e+00
1.000000e+00
5.827693e-01
5.908441e-01
6.013306e-01
6.117870e-01
6.217133e-01
6.300795e-01
6.357609e-01
6.378487e-01
6.359755e-01
6.305228e-01
6.222779e-01
6.122777e-01
6.016768e-01
5.912856e-01
5.809905e-01
0.000000e+00
1.000000e+00
5.831499e-01
5.913378e-01
6.022048e-01
6.129881e-01
6.232277e-01
6.318599e-01
6.377246e-01
6.398821e-01
6.379474e-01
6.323176e-01
6.238181e-01
6.135040e-01
6.025447e-01
5.918433e-01
5.812111e-01
0.000000e+00
1.000000e+00
5.833470e-01
5.914069e-01
6.024604e-01
6.133466e-01
6.236825e-01
6.323958e-01
6.383146e-01
6.404897e-01
6.385314e-01
6.328464e-01
6.242741e-01
6.138644e-01
6.027964e-01
5.920030e-01
5.813479e-01
0.000000e+00
1.000000e+00
5.833700e-01
5.910715e-01
6.021518e-01
6.129308e-01
6.231608e-01
6.317834e-01
6.376385e-01
6.397843e-01
6.378385e-01
6.322080e-01
6.237215e-01
6.134211e-01
6.024786e-01
5.918010e-01
5.812550e-01
0.000000e+00
1.000000e+00
5.831495e-01
5.904420e-01
6.013555e-01
6.118399e-01
6.217875e-01
6.301712e-01
6.358629e-01
6.379441e-01
6.360288e-01
6.305421e-01
6.222922e-01
6.122798e-01
6.016341e-01
5.912550e-01
5.810962e-01
0.000000e+00
1.000000e+00
5.727673e-01
5.722669e-01
5.718484e-01
5.714197e-01
5.710132e-01
5.706716e-01
5.704415e-01
5.703598e-01
5.704410e-01
5.706718e-01
5.710139e-01
5.714533e-01
5.718918e-01
5.723251e-01
5.724008e-01
0.000000e+00
1.000000e+00
5.732328e-01
5.731779e-01
5.732812e-01
5.733806e-01
5.734747e-01
5.735536e-01
5.736061e-01
5.736234e-01
5.736019e-01
5.735455e-01
5.734618e-01
5.733953e-01
5.733359e-01
5.732561e-01
5.730492e-01
0.000000e+00
1.000000e+00
5.738478e-01
5.744113e-01
5.752185e-01
5.760330e-01
5.768052e-01
5.774538e-01
5.778898e-01
5.780421e-01
5.778824e-01
5.774373e-01
5.767757e-01
5.760321e-01
5.753226e-01
5.745327e-01
5.734617e-01
0.000000e+00
1.000000e+00
5.746677e-01
5.759696e-01
5.776703e-01
5.793904e-01
5.810215e-01
5.823919e-01
5.833146e-01
5.836395e-01
5.833073e-01
5.823740e-01
5.809940e-01
5.794514e-01
5.778532e-01
5.761105e-01
5.741441e-01
0.000000e+00
1.000000e+00
5.756592e-01
5.778258e-01
5.805983e-01
5.833996e-01
5.860561e-01
5.882888e-01
5.897935e-01
5.903270e-01
5.897942e-01
5.882925e-01
5.861040e-01
5.835651e-01
5.807960e-01
5.779806e-01
5.750650e-01
0.000000e+00
1.000000e+00
5.767843e-01
5.799251e-01
5.839177e-01
5.879449e-01
5.917646e-01
5.949762e-01
5.971433e-01
5.979168e-01
5.971615e-01
5.950232e-01
5.919016e-01
5.881572e-01
5.841323e-01
5.801161e-01
5.760196e-01
0.000000e+00
1.000000e+00
5.779868e-01
5.821860e-01
5.874941e-01
5.928419e-01
5.979150e-01
6.021822e-01
6.050646e-01
6.060987e-01
6.051051e-01
6.022825e-01
5.981339e-01
5.931001e-01
5.877310e-01
5.824181e-01
5.770731e-01
0.000000e+00
1.000000e+00
5.792131e-01
5.844958e-01
5.911512e-01
5.978490e-01
6.042037e-01
6.095507e-01
6.131659e-01
6.144680e-01
6.132338e-01
6.097185e-01
6.045042e-01
5.981668e-01
5.914092e-01
5.847632e-01
5.781266e-01
0.000000e+00
1.000000e+00
5.804093e-01
5.867239e-01
5.946865e-01
6.026893e-01
6.102829e-01
6.166745e-01
6.209996e-01
6.225640e-01
6.211045e-01
6.169229e-01
6.106624e-01
6.030707e-01
5.949737e-01
5.870266e-01
5.791741e-01
0.000000e+00
1.000000e+00
5.815117e-01
5.887377e-01
5.978951e-01
6.070825e-01
6.158009e-01
6.231417e-01
6.281144e-01
6.299225e-01
6.282662e-01
6.234763e-01
6.162536e-01
6.075318e-01
5.982144e-01
5.890804e-01
5.801148e-01
0.000000e+00
1.000000e+00
5.824662e-01
5.904190e-01
6.005965e-01
6.107812e-01
6.204470e-01
6.285890e-01
6.341116e-01
6.361315e-01
6.343125e-01
6.290040e-01
6.209698e-01
6.112887e-01
6.009537e-01
5.908012e-01
5.808933e-01
0.000000e+00
1.000000e+00
5.832251e-01
5.916790e-01
6.026540e-01
6.135983e-01
6.239876e-01
6.327448e-01
6.386924e-01
6.408782e-01
6.389318e-01
6.332220e-01
6.245796e-01
6.141479e-01
6.030457e-01
5.921155e-01
5.814892e-01
0.000000e+00
1.000000e+00
5.837694e-01
5.924614e-01
6.039899e-01
6.154310e-01
6.262966e-01
6.354594e-01
6.416862e-01
6.439789e-01
6.419432e-01
6.359669e-01
6.269424e-01
6.160175e-01
6.043861e-01
5.929733e-01
5.818513e-01
0.000000e+00
1.000000e+00
5.840923e-01
5.927452e-01
6.045907e-01
6.162638e-01
6.273504e-01
6.366990e-01
6.430515e-01
6.453888e-01
6.433064e-01
6.372058e-01
6.280182e-01
6.168773e-01
6.049733e-01
5.933492e-01
5.819945e-01
0.000000e+00
1.000000e+00
5.841964e-01
5.925459e-01
6.044995e-01
6.161505e-01
6.272101e-01
6.365332e-01
6.428653e-01
6.451901e-01
6.431055e-01
6.370190e-01
6.278671e-01
6.167524e-01
6.048681e-01
5.932766e-01
5.819871e-01
0.000000e+00
1.000000e+00
5.840540e-01
5.919534e-01
6.037969e-01
6.151919e-01
6.260026e-01
6.351145e-01
6.413002e-01
6.435633e-01
6.415163e-01
6.355654e-01
6.266182e-01
6.157450e-01
6.041439e-01
5.928232e-01
5.817892e-01
0.000000e+00
1.000000e+00
5.836801e-01
5.911127e-01
6.025829e-01
6.135226e-01
6.239008e-01
6.326474e-01
6.385837e-01
6.407461e-01
6.387606e-01
6.330448e-01
6.244487e-01
6.139977e-01
6.028631e-01
5.919958e-01
5.814911e-01
0.000000e+00
1.000000e+00
5.723445e-01
5.714879e-01
5.706220e-01
5.697404e-01
5.689046e-01
5.682026e-01
5.677301e-01
5.675634e-01
5.677325e-01
5.682097e-01
5.689153e-01
5.698070e-01
5.706987e-01
5.715696e-01
5.718934e-01
0.000000e+00
1.000000e+00
5.729507e-01
5.726205e-01
5.724039e-01
5.721799e-01
5.719674e-01
5.717888e-01
5.716680e-01
5.716241e-01
5.716646e-01
5.717830e-01
5.719575e-01
5.722325e-01
5.724769e-01
5.727028e-01
5.726580e-01
0.000000e+00
1.000000e+00
5.736871e-01
5.741068e-01
5.747363e-01
5.753730e-01
5.759765e-01
5.764834e-01
5.768240e-01
5.769424e-01
5.768162e-01
5.764661e-01
5.759447e-01
5.753873e-01
5.748619e-01
5.742498e-01
5.731933e-01
0.000000e+00
1.000000e+00
5.746449e-01
5.759447e-01
5.776234e-01
5.793264e-01
5.809413e-01
5.822981e-01
5.832112e-01
5.835322e-01
5.832025e-01
5.822768e-01
5.809014e-01
5.793829e-01
5.778466e-01
5.761158e-01
5.739987e-01
0.000000e+00
1.000000e+00
5.757905e-01
5.780948e-01
5.810114e-01
5.839650e-01
5.867658e-01
5.891197e-01
5.907058e-01
5.912672e-01
5.907035e-01
5.891170e-01
5.868047e-01
5.841459e-01
5.812554e-01
5.782787e-01
5.750478e-01
0.000000e+00
1.000000e+00
5.770736e-01
5.804872e-01
5.847936e-01
5.891436e-01
5.932694e-01
5.967380e-01
5.990778e-01
5.999120e-01
5.990954e-01
5.967855e-01
5.934164e-01
5.893819e-01
5.850428e-01
5.807029e-01
5.761917e-01
0.000000e+00
1.000000e+00
5.784268e-01
5.830229e-01
5.888080e-01
5.946399e-01
6.001721e-01
6.048251e-01
6.079678e-01
6.090949e-01
6.080127e-01
6.049363e-01
6.004118e-01
5.949370e-01
5.890692e-01
5.832734e-01
5.774051e-01
0.000000e+00
1.000000e+00
5.797902e-01
5.855687e-01
5.928459e-01
6.001681e-01
6.071149e-01
6.129599e-01
6.169122e-01
6.183371e-01
6.169933e-01
6.131535e-01
6.074450e-01
6.005399e-01
5.931244e-01
5.858540e-01
5.786170e-01
0.000000e+00
1.000000e+00
5.811023e-01
5.879739e-01
5.966738e-01
6.054086e-01
6.136963e-01
6.206727e-01
6.253955e-01
6.271088e-01
6.255283e-01
6.209657e-01
6.141114e-01
6.058573e-01
5.969847e-01
5.883012e-01
5.797805e-01
0.000000e+00
1.000000e+00
5.822871e-01
5.900897e-01
6.000620e-01
6.100469e-01
6.195222e-01
6.275028e-01
6.329134e-01
6.348913e-01
6.331101e-01
6.278990e-01
6.200131e-01
6.105720e-01
6.004265e-01
5.904591e-01
5.807914e-01
0.000000e+00
1.000000e+00
5.832856e-01
5.917884e-01
6.028147e-01
6.138158e-01
6.242587e-01
6.330606e-01
6.390378e-01
6.412385e-01
6.392937e-01
6.335463e-01
6.248275e-01
6.143889e-01
6.032616e-01
5.922090e-01
5.815505e-01
0.000000e+00
1.000000e+00
5.840485e-01
5.929787e-01
6.047950e-01
6.165301e-01
6.276754e-01
6.370757e-01
6.434666e-01
6.458283e-01
6.437579e-01
6.376179e-01
6.283230e-01
6.171354e-01
6.053038e-01
5.934930e-01
5.821019e-01
0.000000e+00
1.000000e+00
5.845507e-01
5.936137e-01
6.059384e-01
6.181055e-01
6.296653e-01
6.394172e-01
6.460474e-01
6.484977e-01
6.463459e-01
6.399728e-01
6.303668e-01
6.187782e-01
6.064288e-01
5.942435e-01
5.824216e-01
0.000000e+00
1.000000e+00
5.847778e-01
5.936976e-01
6.062550e-01
6.185546e-01
6.302374e-01
6.400889e-01
6.467829e-01
6.492509e-01
6.470678e-01
6.406263e-01
6.309517e-01
6.192630e-01
6.067133e-01
5.944003e-01
5.825260e-01
0.000000e+00
1.000000e+00
5.847047e-01
5.933074e-01
6.058167e-01
6.179640e-01
6.294942e-01
6.392132e-01
6.458130e-01
6.482378e-01
6.460719e-01
6.397173e-01
6.301916e-01
6.186482e-01
6.062407e-01
5.940288e-01
5.823819e-01
0.000000e+00
1.000000e+00
5.842840e-01
5.926060e-01
6.047285e-01
6.164700e-01
6.276114e-01
6.370014e-01
6.433760e-01
6.457104e-01
6.436011e-01
6.374649e-01
6.282667e-01
6.170872e-01
6.051078e-01
5.933594e-01
5.820395e-01
0.000000e+00
1.000000e+00
5.837276e-01
5.916009e-01
6.031046e-01
6.142390e-01
6.248055e-01
6.337108e-01
6.397550e-01
6.419604e-01
6.399393e-01
6.341247e-01
6.253927e-01
6.147556e-01
6.034020e-01
5.923229e-01
5.816435e-01
0.000000e+00
1.000000e+00
5.717959e-01
5.704445e-01
5.689810e-01
5.674937e-01
5.660839e-01
5.649004e-01
5.641043e-01
5.638250e-01
5.641131e-01
5.649204e-01
5.661113e-01
5.675972e-01
5.690961e-01
5.705646e-01
5.712955e-01
0.000000e+00
1.000000e+00
5.725111e-01
5.717773e-01
5.710789e-01
5.703663e-01
5.696911e-01
5.691244e-01
5.687431e-01
5.686081e-01
5.687437e-01
5.691275e-01
5.696926e-01
5.704767e-01
5.711900e-01
5.718892e-01
5.721618e-01
0.000000e+00
1.000000e+00
5.733660e-01
5.734937e-01
5.737711e-01
5.740518e-01
5.743180e-01
5.745416e-01
5.746918e-01
5.747435e-01
5.746864e-01
5.745294e-01
5.742931e-01
5.741085e-01
5.739092e-01
5.736563e-01
5.728411e-01
0.000000e+00
1.000000e+00
5.744449e-01
5.755859e-01
5.770541e-01
5.785473e-01
5.799630e-01
5.811525e-01
5.819528e-01
5.822337e-01
5.819441e-01
5.811330e-01
5.799227e-01
5.785945e-01
5.772920e-01
5.757865e-01
5.737906e-01
0.000000e+00
1.000000e+00
5.757256e-01
5.780049e-01
5.808598e-01
5.837577e-01
5.865058e-01
5.888157e-01
5.903719e-01
5.909221e-01
5.903676e-01
5.888060e-01
5.865172e-01
5.839397e-01
5.811478e-01
5.782204e-01
5.749867e-01
0.000000e+00
1.000000e+00
5.771484e-01
5.806650e-01
5.850597e-01
5.895074e-01
5.937256e-01
5.972715e-01
5.996626e-01
6.005134e-01
5.996757e-01
5.973087e-01
5.938601e-01
5.897756e-01
5.853532e-01
5.809059e-01
5.762365e-01
0.000000e+00
1.000000e+00
5.786354e-01
5.834489e-01
5.894647e-01
5.955381e-01
6.012990e-01
6.061435e-01
6.094143e-01
6.105859e-01
6.094575e-01
6.062517e-01
6.015432e-01
5.958625e-01
5.897645e-01
5.837194e-01
5.775942e-01
0.000000e+00
1.000000e+00
5.801186e-01
5.862039e-01
5.938360e-01
6.015225e-01
6.088141e-01
6.149485e-01
6.190956e-01
6.205906e-01
6.191816e-01
6.151517e-01
6.091586e-01
6.019241e-01
5.941478e-01
5.865079e-01
5.789156e-01
0.000000e+00
1.000000e+00
5.815261e-01
5.887612e-01
5.979114e-01
6.071012e-01
6.158199e-01
6.231587e-01
6.281275e-01
6.299331e-01
6.282767e-01
6.234793e-01
6.162560e-01
6.075896e-01
5.982583e-01
5.891026e-01
5.801413e-01
0.000000e+00
1.000000e+00
5.827725e-01
5.909582e-01
6.014388e-01
6.119296e-01
6.218846e-01
6.302701e-01
6.359587e-01
6.380458e-01
6.361850e-01
6.307107e-01
6.224019e-01
6.124855e-01
6.018563e-01
5.913451e-01
5.811737e-01
0.000000e+00
1.000000e+00
5.837930e-01
5.926608e-01
6.042115e-01
6.157258e-01
6.266566e-01
6.358726e-01
6.421371e-01
6.444540e-01
6.424291e-01
6.364085e-01
6.272617e-01
6.162942e-01
6.047448e-01
5.931186e-01
5.819226e-01
0.000000e+00
1.000000e+00
5.845313e-01
5.937824e-01
6.060947e-01
6.183084e-01
6.299099e-01
6.396994e-01
6.463610e-01
6.488329e-01
6.466851e-01
6.402824e-01
6.305930e-01
6.189044e-01
6.066531e-01
5.943754e-01
5.824343e-01
0.000000e+00
1.000000e+00
5.849521e-01
5.942956e-01
6.070392e-01
6.196126e-01
6.315608e-01
6.416437e-01
6.485038e-01
6.510461e-01
6.488257e-01
6.422236e-01
6.322812e-01
6.203009e-01
6.075460e-01
5.950097e-01
5.827204e-01
0.000000e+00
1.000000e+00
5.850304e-01
5.942418e-01
6.070791e-01
6.196808e-01
6.316532e-01
6.417515e-01
6.486164e-01
6.511513e-01
6.489144e-01
6.422993e-01
6.323771e-01
6.204221e-01
6.075882e-01
5.949460e-01
5.827913e-01
0.000000e+00
1.000000e+00
5.847468e-01
5.937332e-01
6.063109e-01
6.186334e-01
6.303336e-01
6.401987e-01
6.469018e-01
6.493673e-01
6.471635e-01
6.407053e-01
6.310469e-01
6.193633e-01
6.067702e-01
5.943147e-01
5.826575e-01
0.000000e+00
1.000000e+00
5.841701e-01
5.928680e-01
6.048610e-01
6.166408e-01
6.278234e-01
6.372512e-01
6.436571e-01
6.460103e-01
6.438821e-01
6.377145e-01
6.285023e-01
6.172983e-01
6.052610e-01
5.934568e-01
5.821897e-01
0.000000e+00
1.000000e+00
5.835008e-01
5.916231e-01
6.028610e-01
6.138999e-01
6.243819e-01
6.332175e-01
6.392181e-01
6.414178e-01
6.394084e-01
6.336331e-01
6.249869e-01
6.144283e-01
6.031627e-01
5.922176e-01
5.816079e-01
0.000000e+00
1.000000e+00
5.711438e-01
5.691655e-01
5.669723e-01
5.647439e-01
5.626319e-01
5.608594e-01
5.596682e-01
5.592518e-01
5.596860e-01
5.608963e-01
5.626802e-01
5.648830e-01
5.671218e-01
5.693097e-01
5.706828e-01
0.000000e+00
1.000000e+00
5.719342e-01
5.706703e-01
5.693401e-01
5.679862e-01
5.667037e-01
5.656283e-01
5.649062e-01
5.646538e-01
5.649163e-01
5.656492e-01
5.667280e-01
5.681483e-01
5.695022e-01
5.708230e-01
5.716115e-01
0.000000e+00
1.000000e+00
5.728977e-01
5.725841e-01
5.723423e-01
5.720960e-01
5.718630e-01
5.716679e-01
5.715367e-01
5.714904e-01
5.715368e-01
5.716676e-01
5.718536e-01
5.722279e-01
5.725040e-01
5.727624e-01
5.724080e-01
0.000000e+00
1.000000e+00
5.740748e-01
5.748924e-01
5.759620e-01
5.770521e-01
5.780857e-01
5.789544e-01
5.795391e-01
5.797443e-01
5.795323e-01
5.789395e-01
5.780552e-01
5.771113e-01
5.762008e-01
5.751164e-01
5.734815e-01
0.000000e+00
1.000000e+00
5.754636e-01
5.775395e-01
5.801211e-01
5.827468e-01
5.852371e-01
5.873303e-01
5.887400e-01
5.892380e-01
5.887355e-01
5.873196e-01
5.852202e-01
5.829037e-01
5.804450e-01
5.777834e-01
5.747805e-01
0.000000e+00
1.000000e+00
5.770000e-01
5.804249e-01
5.846691e-01
5.889726e-01
5.930542e-01
5.964853e-01
5.987985e-01
5.996201e-01
5.988065e-01
5.965085e-01
5.931580e-01
5.892641e-01
5.850018e-01
5.806841e-01
5.761476e-01
0.000000e+00
1.000000e+00
5.785938e-01
5.834146e-01
5.893936e-01
5.954403e-01
6.011755e-01
6.059976e-01
6.092516e-01
6.104146e-01
6.092876e-01
6.060907e-01
6.014119e-01
5.957854e-01
5.897322e-01
5.836995e-01
5.775708e-01
0.000000e+00
1.000000e+00
5.801664e-01
5.863393e-01
5.940296e-01
6.017867e-01
6.091445e-01
6.153335e-01
6.195155e-01
6.210206e-01
6.195952e-01
6.155253e-01
6.094935e-01
6.021871e-01
5.943837e-01
5.866535e-01
5.789570e-01
0.000000e+00
1.000000e+00
5.816397e-01
5.890151e-01
5.982906e-01
6.076191e-01
6.164685e-01
6.239159e-01
6.289568e-01
6.307872e-01
6.291027e-01
6.242359e-01
6.169172e-01
6.080813e-01
5.986860e-01
5.893620e-01
5.801878e-01
0.000000e+00
1.000000e+00
5.829207e-01
5.912689e-01
6.019073e-01
6.125695e-01
6.226861e-01
6.312066e-01
6.369863e-01
6.391071e-01
6.372145e-01
6.316577e-01
6.232287e-01
6.130678e-01
6.023911e-01
5.916609e-01
5.812182e-01
0.000000e+00
1.000000e+00
5.839353e-01
5.929651e-01
6.046664e-01
6.163468e-01
6.274340e-01
6.367816e-01
6.431362e-01
6.454881e-01
6.434332e-01
6.373284e-01
6.280653e-01
6.168780e-01
6.052200e-01
5.934395e-01
5.819622e-01
0.000000e+00
1.000000e+00
5.846191e-01
5.940262e-01
6.064382e-01
6.187763e-01
6.304945e-01
6.403826e-01
6.471125e-01
6.496112e-01
6.474400e-01
6.409661e-01
6.311848e-01
6.194071e-01
6.069476e-01
5.946276e-01
5.824668e-01
0.000000e+00
1.000000e+00
5.849361e-01
5.944430e-01
6.071890e-01
6.198130e-01
6.318078e-01
6.419305e-01
6.488191e-01
6.513720e-01
6.491394e-01
6.425007e-01
6.325154e-01
6.205015e-01
6.076616e-01
5.951405e-01
5.827615e-01
0.000000e+00
1.000000e+00
5.848677e-01
5.942761e-01
6.069733e-01
6.195269e-01
6.314530e-01
6.415138e-01
6.483561e-01
6.508811e-01
6.486453e-01
6.420463e-01
6.321661e-01
6.202631e-01
6.075018e-01
5.949350e-01
5.827757e-01
0.000000e+00
1.000000e+00
5.844489e-01
5.936169e-01
6.059077e-01
6.180697e-01
6.296179e-01
6.393566e-01
6.459783e-01
6.484180e-01
6.462301e-01
6.398458e-01
6.303295e-01
6.188072e-01
6.063668e-01
5.941581e-01
5.825428e-01
0.000000e+00
1.000000e+00
5.837966e-01
5.925367e-01
6.041383e-01
6.156389e-01
6.265611e-01
6.357722e-01
6.420345e-01
6.443429e-01
6.422596e-01
6.362182e-01
6.272413e-01
6.162920e-01
6.045254e-01
5.930412e-01
5.820341e-01
0.000000e+00
1.000000e+00
5.830674e-01
5.910760e-01
6.018318e-01
6.124781e-01
6.225903e-01
6.311163e-01
6.369077e-01
6.390371e-01
6.371052e-01
6.315137e-01
6.231854e-01
6.129862e-01
6.021229e-01
5.915618e-01
5.813018e-01
0.000000e+00
1.000000e+00
5.704075e-01
5.677016e-01
5.646756e-01
5.615999e-01
5.586856e-01
5.562406e-01
5.545986e-01
5.540262e-01
5.546269e-01
5.562963e-01
5.587568e-01
5.617729e-01
5.648571e-01
5.678634e-01
5.700100e-01
0.000000e+00
1.000000e+00
5.712532e-01
5.693457e-01
5.672608e-01
5.651400e-01
5.631314e-01
5.614475e-01
5.603180e-01
5.599260e-01
5.603409e-01
5.614908e-01
5.631824e-01
5.653441e-01
5.674702e-01
5.695322e-01
5.709636e-01
0.000000e+00
1.000000e+00
5.723029e-01
5.714169e-01
5.705106e-01
5.695889e-01
5.687161e-01
5.679848e-01
5.674940e-01
5.673229e-01
5.675027e-01
5.680023e-01
5.687292e-01
5.698016e-01
5.707184e-01
5.716226e-01
5.718355e-01
0.000000e+00
1.000000e+00
5.735522e-01
5.738939e-01
5.743933e-01
5.749045e-01
5.753899e-01
5.757991e-01
5.760757e-01
5.761736e-01
5.760743e-01
5.757937e-01
5.753702e-01
5.750235e-01
5.746376e-01
5.741320e-01
5.729939e-01
0.000000e+00
1.000000e+00
5.750187e-01
5.767163e-01
5.788235e-01
5.809706e-01
5.830069e-01
5.847183e-01
5.858708e-01
5.862777e-01
5.858667e-01
5.847101e-01
5.829790e-01
5.810895e-01
5.791769e-01
5.769892e-01
5.743801e-01
0.000000e+00
1.000000e+00
5.766359e-01
5.797704e-01
5.836308e-01
5.875516e-01
5.912708e-01
5.943979e-01
5.965060e-01
5.972542e-01
5.965113e-01
5.944110e-01
5.913291e-01
5.878404e-01
5.839972e-01
5.800493e-01
5.758302e-01
0.000000e+00
1.000000e+00
5.783028e-01
5.829090e-01
5.885834e-01
5.943312e-01
5.997829e-01
6.043662e-01
6.074579e-01
6.085604e-01
6.074851e-01
6.044377e-01
5.999881e-01
5.946946e-01
5.889470e-01
5.832103e-01
5.773387e-01
0.000000e+00
1.000000e+00
5.799296e-01
5.859508e-01
5.933973e-01
6.009209e-01
6.080571e-01
6.140585e-01
6.181112e-01
6.195662e-01
6.181767e-01
6.142189e-01
6.083949e-01
6.013171e-01
5.937660e-01
5.862759e-01
5.787364e-01
0.000000e+00
1.000000e+00
5.814335e-01
5.887011e-01
5.977683e-01
6.069040e-01
6.155700e-01
6.228614e-01
6.277932e-01
6.295786e-01
6.279172e-01
6.231435e-01
6.160234e-01
6.073339e-01
5.981680e-01
5.890490e-01
5.799589e-01
0.000000e+00
1.000000e+00
5.827168e-01
5.909810e-01
6.014167e-01
6.118979e-01
6.218418e-01
6.302145e-01
6.358894e-01
6.379643e-01
6.360890e-01
6.306239e-01
6.223888e-01
6.123567e-01
6.018925e-01
5.913615e-01
5.809715e-01
0.000000e+00
1.000000e+00
5.837009e-01
5.926557e-01
6.041271e-01
6.156089e-01
6.265056e-01
6.356887e-01
6.419261e-01
6.442258e-01
6.421917e-01
6.361887e-01
6.271169e-01
6.161454e-01
6.046506e-01
5.930899e-01
5.817125e-01
0.000000e+00
1.000000e+00
5.843175e-01
5.936561e-01
6.057775e-01
6.178713e-01
6.293541e-01
6.390386e-01
6.456243e-01
6.480610e-01
6.459210e-01
6.395723e-01
6.300064e-01
6.185175e-01
6.063001e-01
5.941665e-01
5.821946e-01
0.000000e+00
1.000000e+00
5.845370e-01
5.939837e-01
6.063478e-01
6.186580e-01
6.303502e-01
6.402138e-01
6.469217e-01
6.494000e-01
6.472116e-01
6.407370e-01
6.310299e-01
6.193628e-01
6.068538e-01
5.945433e-01
5.824876e-01
0.000000e+00
1.000000e+00
5.843671e-01
5.936984e-01
6.059082e-01
6.180614e-01
6.296041e-01
6.393388e-01
6.459586e-01
6.484005e-01
6.462203e-01
6.398316e-01
6.303049e-01
6.188048e-01
6.063903e-01
5.942217e-01
5.825119e-01
0.000000e+00
1.000000e+00
5.838907e-01
5.928840e-01
6.045979e-01
6.162625e-01
6.273384e-01
6.366791e-01
6.430317e-01
6.453772e-01
6.432700e-01
6.371361e-01
6.280354e-01
6.169569e-01
6.049912e-01
5.933264e-01
5.821743e-01
0.000000e+00
1.000000e+00
5.832021e-01
5.916087e-01
6.025757e-01
6.134919e-01
6.238571e-01
6.325964e-01
6.385360e-01