<?xml version="1.0"?>
<VTKFile type="StructuredGrid" version="0.1">
  <StructuredGrid WholeExtent="0 16 0 16 0 16">
    <Piece Extent="0 16 0 16 0 16">
      <PointData Scalars="temperature" Vectors="velocity">
        <DataArray type="Float32" Name="temperature" format="ascii">
1.000000e+00
5.728468e-01
5.730942e-01
5.731317e-01
5.731722e-01
5.732103e-01
5.732412e-01
5.732610e-01
5.732663e-01
5.732561e-01
5.732323e-01
5.731986e-01
5.731602e-01
5.731207e-01
5.731466e-01
5.726265e-01
0.000000e+00
1.000000e+00
5.727877e-01
5.729526e-01
5.728957e-01
5.728465e-01
5.727990e-01
5.727587e-01
5.727311e-01
5.727201e-01
5.727274e-01
5.727515e-01
5.727889e-01
5.728341e-01
5.728821e-01
5.730030e-01
5.724066e-01
0.000000e+00
1.000000e+00
5.727625e-01
5.727649e-01
5.726083e-01
5.724557e-01
5.723103e-01
5.721877e-01
5.721045e-01
5.720739e-01
5.721013e-01
5.721818e-01
5.723025e-01
5.724469e-01
5.725994e-01
5.728161e-01
5.723942e-01
0.000000e+00
1.000000e+00
5.727421e-01
5.725495e-01
5.722861e-01
5.720151e-01
5.717573e-01
5.715401e-01
5.713931e-01
5.713400e-01
5.713901e-01
5.715344e-01
5.717497e-01
5.720068e-01
5.722780e-01
5.726125e-01
5.722112e-01
0.000000e+00
1.000000e+00
5.726896e-01
5.723164e-01
5.719357e-01
5.715353e-01
5.711546e-01
5.708341e-01
5.706176e-01
5.705400e-01
5.706148e-01
5.708287e-01
5.711473e-01
5.715271e-01
5.719278e-01
5.723915e-01
5.721246e-01
0.000000e+00
1.000000e+00
5.726017e-01
5.720776e-01
5.715696e-01
5.710338e-01
5.705249e-01
5.700968e-01
5.698079e-01
5.697048e-01
5.698054e-01
5.700920e-01
5.705184e-01
5.710264e-01
5.715622e-01
5.721601e-01
5.720037e-01
0.000000e+00
1.000000e+00
5.724990e-01
5.718429e-01
5.712045e-01
5.705339e-01
5.698973e-01
5.693619e-01
5.690008e-01
5.688722e-01
5.689986e-01
5.693578e-01
5.698916e-01
5.705273e-01
5.711978e-01
5.719303e-01
5.718719e-01
0.000000e+00
1.000000e+00
5.723790e-01
5.716241e-01
5.708592e-01
5.700610e-01
5.693037e-01
5.686670e-01
5.682377e-01
5.680851e-01
5.682360e-01
5.686637e-01
5.692990e-01
5.700555e-01
5.708532e-01
5.717131e-01
5.717314e-01
0.000000e+00
1.000000e+00
5.722515e-01
5.714314e-01
5.705524e-01
5.696412e-01
5.687767e-01
5.680500e-01
5.675603e-01
5.673866e-01
5.675593e-01
5.680479e-01
5.687734e-01
5.696369e-01
5.705473e-01
5.715172e-01
5.716937e-01
0.000000e+00
1.000000e+00
5.721244e-01
5.712765e-01
5.703012e-01
5.692976e-01
5.683455e-01
5.675454e-01
5.670065e-01
5.668158e-01
5.670066e-01
5.675453e-01
5.683445e-01
5.692954e-01
5.702980e-01
5.713523e-01
5.716248e-01
0.000000e+00
1.000000e+00
5.720079e-01
5.711669e-01
5.701190e-01
5.690486e-01
5.680331e-01
5.671800e-01
5.666057e-01
5.664029e-01
5.666072e-01
5.671824e-01
5.680353e-01
5.690495e-01
5.701187e-01
5.712226e-01
5.715739e-01
0.000000e+00
1.000000e+00
5.719399e-01
5.711006e-01
5.700142e-01
5.689054e-01
5.678536e-01
5.669702e-01
5.663759e-01
5.661666e-01
5.663791e-01
5.669756e-01
5.678596e-01
5.689104e-01
5.700174e-01
5.711529e-01
5.712757e-01
0.000000e+00
1.000000e+00
5.718875e-01
5.710887e-01
5.699894e-01
5.688717e-01
5.678116e-01
5.669213e-01
5.663227e-01
5.661124e-01
5.663275e-01
5.669297e-01
5.678215e-01
5.688810e-01
5.699965e-01
5.711471e-01
5.710415e-01
0.000000e+00
1.000000e+00
5.718845e-01
5.711277e-01
5.700423e-01
5.689438e-01
5.679022e-01
5.670277e-01
5.664399e-01
5.662338e-01
5.664458e-01
5.670382e-01
5.679150e-01
5.689566e-01
5.700525e-01
5.712564e-01
5.703392e-01
0.000000e+00
1.000000e+00
5.719181e-01
5.712041e-01
5.701652e-01
5.691118e-01
5.681131e-01
5.672748e-01
5.667115e-01
5.665142e-01
5.667178e-01
5.672863e-01
5.681276e-01
5.691266e-01
5.701778e-01
5.714365e-01
5.698554e-01
0.000000e+00
1.000000e+00
5.719342e-01
5.713228e-01
5.703478e-01
5.693617e-01
5.684269e-01
5.676421e-01
5.671148e-01
5.669302e-01
5.671208e-01
5.676531e-01
5.684409e-01
5.693764e-01
5.703618e-01
5.716059e-01
5.702041e-01
0.000000e+00
1.000000e+00
5.718658e-01
5.714895e-01
5.705800e-01
5.696784e-01
5.688237e-01
5.681063e-01
5.676242e-01
5.674555e-01
5.676298e-01
5.681163e-01
5.688361e-01
5.696912e-01
5.705933e-01
5.719471e-01
5.689447e-01
0.000000e+00
1.000000e+00
5.727796e-01
5.729613e-01
5.729110e-01
5.728666e-01
5.728225e-01
5.727838e-01
5.727570e-01
5.727464e-01
5.727530e-01
5.727751e-01
5.728093e-01
5.728507e-01
5.728947e-01
5.730175e-01
5.723909e-01
0.000000e+00
1.000000e+00
5.727666e-01
5.728026e-01
5.726559e-01
5.725196e-01
5.723894e-01
5.722799e-01
5.722059e-01
5.721789e-01
5.722032e-01
5.722747e-01
5.723818e-01
5.725101e-01
5.726456e-01
5.728521e-01
5.723080e-01
0.000000e+00
1.000000e+00
5.727581e-01
5.726024e-01
5.723606e-01
5.721166e-01
5.718849e-01
5.716896e-01
5.715576e-01
5.715098e-01
5.715546e-01
5.716843e-01
5.718778e-01
5.721088e-01
5.723527e-01
5.726625e-01
5.722633e-01
0.000000e+00
1.000000e+00
5.727246e-01
5.723746e-01
5.720285e-01
5.716622e-01
5.713142e-01
5.710213e-01
5.708233e-01
5.707522e-01
5.708204e-01
5.710160e-01
5.713073e-01
5.716547e-01
5.720212e-01
5.724522e-01
5.721389e-01
0.000000e+00
1.000000e+00
5.726465e-01
5.721346e-01
5.716684e-01
5.711693e-01
5.706950e-01
5.702959e-01
5.700265e-01
5.699302e-01
5.700239e-01
5.702910e-01
5.706884e-01
5.711620e-01
5.716614e-01
5.722254e-01
5.720136e-01
0.000000e+00
1.000000e+00
5.725431e-01
5.718913e-01
5.712948e-01
5.706574e-01
5.700522e-01
5.695431e-01
5.691998e-01
5.690774e-01
5.691975e-01
5.695389e-01
5.700463e-01
5.706508e-01
5.712882e-01
5.719907e-01
5.718669e-01
0.000000e+00
1.000000e+00
5.724217e-01
5.716557e-01
5.709254e-01
5.701518e-01
5.694174e-01
5.687999e-01
5.683836e-01
5.682355e-01
5.683817e-01
5.687964e-01
5.694125e-01
5.701461e-01
5.709196e-01
5.717590e-01
5.717386e-01
0.000000e+00
1.000000e+00
5.722911e-01
5.714390e-01
5.705812e-01
5.696805e-01
5.688259e-01
5.681074e-01
5.676231e-01
5.674512e-01
5.676217e-01
5.681047e-01
5.688220e-01
5.696759e-01
5.705762e-01
5.715435e-01
5.715965e-01
0.000000e+00
1.000000e+00
5.721643e-01
5.712532e-01
5.702825e-01
5.692715e-01
5.683124e-01
5.675064e-01
5.669633e-01
5.667708e-01
5.669627e-01
5.675049e-01
5.683099e-01
5.692680e-01
5.702782e-01
5.713570e-01
5.715047e-01
0.000000e+00
1.000000e+00
5.720360e-01
5.711090e-01
5.700470e-01
5.689494e-01
5.679082e-01
5.670334e-01
5.664442e-01
5.662357e-01
5.664445e-01
5.670335e-01
5.679075e-01
5.689475e-01
5.700439e-01
5.712124e-01
5.714088e-01
0.000000e+00
1.000000e+00
5.719280e-01
5.710153e-01
5.698884e-01
5.687327e-01
5.676364e-01
5.667155e-01
5.660955e-01
5.658767e-01
5.660972e-01
5.667179e-01
5.676383e-01
5.687330e-01
5.698870e-01
5.711120e-01
5.714323e-01
0.000000e+00
1.000000e+00
5.718615e-01
5.709725e-01
5.698146e-01
5.686319e-01
5.675101e-01
5.665679e-01
5.659341e-01
5.657108e-01
5.659372e-01
5.665730e-01
5.675150e-01
5.686349e-01
5.698150e-01
5.710643e-01
5.714254e-01
0.000000e+00
1.000000e+00
5.718102e-01
5.709870e-01
5.698266e-01
5.686486e-01
5.675313e-01
5.665931e-01
5.659622e-01
5.657405e-01
5.659668e-01
5.666009e-01
5.675396e-01
5.686549e-01
5.698296e-01
5.710565e-01
5.715458e-01
0.000000e+00
1.000000e+00
5.717788e-01
5.710601e-01
5.699203e-01
5.687766e-01
5.676919e-01
5.667813e-01
5.661692e-01
5.659545e-01
5.661750e-01
5.667913e-01
5.677033e-01
5.687861e-01
5.699260e-01
5.711265e-01
5.712080e-01
0.000000e+00
1.000000e+00
5.718178e-01
5.711707e-01
5.700859e-01
5.690028e-01
5.679760e-01
5.671139e-01
5.665344e-01
5.663314e-01
5.665406e-01
5.671249e-01
5.679892e-01
5.690149e-01
5.700933e-01
5.712975e-01
5.707641e-01
0.000000e+00
1.000000e+00
5.718604e-01
5.713212e-01
5.703105e-01
5.693105e-01
5.683621e-01
5.675658e-01
5.670305e-01
5.668430e-01
5.670363e-01
5.675762e-01
5.683753e-01
5.693239e-01
5.703213e-01
5.714422e-01
5.711781e-01
0.000000e+00
1.000000e+00
5.719910e-01
5.714971e-01
5.705815e-01
5.696810e-01
5.688270e-01
5.681098e-01
5.676277e-01
5.674586e-01
5.676324e-01
5.681182e-01
5.688376e-01
5.696922e-01
5.705933e-01
5.718150e-01
5.697823e-01
0.000000e+00
1.000000e+00
5.728324e-01
5.728383e-01
5.727089e-01
5.725919e-01
5.724799e-01
5.723844e-01
5.723193e-01
5.722958e-01
5.723171e-01
5.723788e-01
5.724710e-01
5.725814e-01
5.726980e-01
5.728875e-01
5.723067e-01
0.000000e+00
1.000000e+00
5.728372e-01
5.726621e-01
5.724508e-01
5.722391e-01
5.720372e-01
5.718675e-01
5.717533e-01
5.717124e-01
5.717515e-01
5.718637e-01
5.720312e-01
5.722312e-01
5.724423e-01
5.727137e-01
5.723460e-01
0.000000e+00
1.000000e+00
5.728031e-01
5.724450e-01
5.721485e-01
5.718259e-01
5.715198e-01
5.712622e-01
5.710884e-01
5.710261e-01
5.710861e-01
5.712580e-01
5.715141e-01
5.718195e-01
5.721418e-01
5.725236e-01
5.721874e-01
0.000000e+00
1.000000e+00
5.727374e-01
5.722123e-01
5.718087e-01
5.713611e-01
5.709361e-01
5.705786e-01
5.703373e-01
5.702509e-01
5.703348e-01
5.705742e-01
5.709304e-01
5.713549e-01
5.718026e-01
5.723115e-01
5.720717e-01
0.000000e+00
1.000000e+00
5.726464e-01
5.719713e-01
5.714418e-01
5.708587e-01
5.703051e-01
5.698393e-01
5.695250e-01
5.694130e-01
5.695229e-01
5.698353e-01
5.702996e-01
5.708528e-01
5.714359e-01
5.720796e-01
5.719543e-01
0.000000e+00
1.000000e+00
5.725302e-01
5.717268e-01
5.710633e-01
5.703402e-01
5.696537e-01
5.690765e-01
5.686873e-01
5.685489e-01
5.686856e-01
5.690732e-01
5.696491e-01
5.703348e-01
5.710576e-01
5.718403e-01
5.718304e-01
0.000000e+00
1.000000e+00
5.723911e-01
5.714935e-01
5.706925e-01
5.698326e-01
5.690165e-01
5.683304e-01
5.678680e-01
5.677038e-01
5.678667e-01
5.683278e-01
5.690127e-01
5.698280e-01
5.706876e-01
5.716074e-01
5.716825e-01
0.000000e+00
1.000000e+00
5.722593e-01
5.712784e-01
5.703519e-01
5.693664e-01
5.684313e-01
5.676453e-01
5.671157e-01
5.669278e-01
5.671148e-01
5.676435e-01
5.684284e-01
5.693627e-01
5.703478e-01
5.713921e-01
5.715701e-01
0.000000e+00
1.000000e+00
5.721296e-01
5.710992e-01
5.700634e-01
5.689714e-01
5.679355e-01
5.670649e-01
5.664784e-01
5.662707e-01
5.664781e-01
5.670640e-01
5.679336e-01
5.689686e-01
5.700599e-01
5.712095e-01
5.714754e-01
0.000000e+00
1.000000e+00
5.720154e-01
5.709671e-01
5.698456e-01
5.686733e-01
5.675614e-01
5.666272e-01
5.659980e-01
5.657754e-01
5.659983e-01
5.666274e-01
5.675608e-01
5.686716e-01
5.698428e-01
5.710725e-01
5.714100e-01
0.000000e+00
1.000000e+00
5.719210e-01
5.708878e-01
5.697120e-01
5.684907e-01
5.673324e-01
5.663594e-01
5.657043e-01
5.654729e-01
5.657056e-01
5.663611e-01
5.673334e-01
5.684903e-01
5.697101e-01
5.709905e-01
5.713592e-01
0.000000e+00
1.000000e+00
5.718605e-01
5.708664e-01
5.696696e-01
5.684330e-01
5.672601e-01
5.662751e-01
5.656122e-01
5.653784e-01
5.656146e-01
5.662787e-01
5.672631e-01
5.684340e-01
5.696685e-01
5.709706e-01
5.713011e-01
0.000000e+00
1.000000e+00
5.718222e-01
5.709034e-01
5.697181e-01
5.684995e-01
5.673438e-01
5.663734e-01
5.657206e-01
5.654909e-01
5.657243e-01
5.663791e-01
5.673491e-01
5.685024e-01
5.697181e-01
5.710003e-01
5.713692e-01
0.000000e+00
1.000000e+00
5.718242e-01
5.709949e-01
5.698511e-01
5.686812e-01
5.675720e-01
5.666406e-01
5.660144e-01
5.657945e-01
5.660192e-01
5.666484e-01
5.675797e-01
5.686863e-01
5.698526e-01
5.710837e-01
5.712278e-01
0.000000e+00
1.000000e+00
5.718711e-01
5.711320e-01
5.700563e-01
5.689622e-01
5.679247e-01
5.670536e-01
5.664680e-01
5.662625e-01
5.664733e-01
5.670626e-01
5.679345e-01
5.689696e-01
5.700592e-01
5.712507e-01
5.709111e-01
0.000000e+00
1.000000e+00
5.719494e-01
5.713099e-01
5.703194e-01
5.693227e-01
5.683772e-01
5.675833e-01
5.670495e-01
5.668622e-01
5.670544e-01
5.675920e-01
5.683877e-01
5.693325e-01
5.703256e-01
5.714215e-01
5.711656e-01
0.000000e+00
1.000000e+00
5.720915e-01
5.715135e-01
5.706257e-01
5.697418e-01
5.689033e-01
5.681991e-01
5.677254e-01
5.675590e-01
5.677291e-01
5.682056e-01
5.689115e-01
5.697504e-01
5.706341e-01
5.717693e-01
5.700719e-01
0.000000e+00
1.000000e+00
5.729595e-01
5.727233e-01
5.725541e-01
5.723803e-01
5.722145e-01
5.720740e-01
5.719786e-01
5.719445e-01
5.719772e-01
5.720699e-01
5.722076e-01
5.723719e-01
5.725447e-01
5.727544e-01
5.722308e-01
0.000000e+00
1.000000e+00
5.729322e-01
5.725302e-01
5.722933e-01
5.720234e-01
5.717662e-01
5.715501e-01
5.714048e-01
5.713532e-01
5.714038e-01
5.715475e-01
5.717615e-01
5.720168e-01
5.722859e-01
5.726071e-01
5.722171e-01
0.000000e+00
1.000000e+00
5.728760e-01
5.723037e-01
5.719869e-01
5.716046e-01
5.712419e-01
5.709370e-01
5.707315e-01
5.706581e-01
5.707297e-01
5.709339e-01
5.712377e-01
5.715998e-01
5.719816e-01
5.724190e-01
5.721435e-01
0.000000e+00
1.000000e+00
5.727875e-01
5.720732e-01
5.716428e-01
5.711344e-01
5.706517e-01
5.702457e-01
5.699717e-01
5.698740e-01
5.699698e-01
5.702423e-01
5.706473e-01
5.711298e-01
5.716385e-01
5.722057e-01
5.720038e-01
0.000000e+00
1.000000e+00
5.726753e-01
5.718384e-01
5.712729e-01
5.706278e-01
5.700153e-01
5.695000e-01
5.691525e-01
5.690289e-01
5.691509e-01
5.694970e-01
5.700112e-01
5.706233e-01
5.712686e-01
5.719728e-01
5.718911e-01
0.000000e+00
1.000000e+00
5.725477e-01
5.715974e-01
5.708932e-01
5.701075e-01
5.693616e-01
5.687345e-01
5.683118e-01
5.681618e-01
5.683107e-01
5.687323e-01
5.693583e-01
5.701035e-01
5.708889e-01
5.717330e-01
5.717525e-01
0.000000e+00
1.000000e+00
5.724020e-01
5.713667e-01
5.705243e-01
5.696023e-01
5.687275e-01
5.679920e-01
5.674964e-01
5.673207e-01
5.674957e-01
5.679905e-01
5.687250e-01
5.695992e-01
5.705206e-01
5.715020e-01
5.716328e-01
0.000000e+00
1.000000e+00
5.722678e-01
5.711573e-01
5.701901e-01
5.691449e-01
5.681532e-01
5.673197e-01
5.667581e-01
5.665592e-01
5.667578e-01
5.673188e-01
5.681515e-01
5.691424e-01
5.701870e-01
5.712912e-01
5.715271e-01
0.000000e+00
1.000000e+00
5.721451e-01
5.709865e-01
5.699136e-01
5.687664e-01
5.676781e-01
5.667636e-01
5.661475e-01
5.659294e-01
5.661475e-01
5.667633e-01
5.676771e-01
5.687646e-01
5.699110e-01
5.711159e-01
5.714383e-01
0.000000e+00
1.000000e+00
5.720360e-01
5.708657e-01
5.697143e-01
5.684936e-01
5.673359e-01
5.663630e-01
5.657078e-01
5.654759e-01
5.657081e-01
5.663633e-01
5.673355e-01
5.684924e-01
5.697121e-01
5.709895e-01
5.713687e-01
0.000000e+00
1.000000e+00
5.719622e-01
5.708035e-01
5.696056e-01
5.683449e-01
5.671494e-01
5.661449e-01
5.654685e-01
5.652293e-01
5.654692e-01
5.661458e-01
5.671496e-01
5.683442e-01
5.696038e-01
5.709202e-01
5.713393e-01
0.000000e+00
1.000000e+00
5.719145e-01
5.708021e-01
5.695932e-01
5.683283e-01
5.671286e-01
5.661208e-01
5.654424e-01
5.652027e-01
5.654437e-01
5.661226e-01
5.671297e-01
5.683281e-01
5.695918e-01
5.709129e-01
5.713343e-01
0.000000e+00
1.000000e+00
5.718936e-01
5.708591e-01
5.696754e-01
5.684409e-01
5.672701e-01
5.662868e-01
5.656250e-01
5.653915e-01
5.656270e-01
5.662898e-01
5.672724e-01
5.684416e-01
5.696744e-01
5.709664e-01
5.714103e-01
0.000000e+00
1.000000e+00
5.719181e-01
5.709723e-01
5.698436e-01
5.686708e-01
5.675589e-01
5.666251e-01
5.659968e-01
5.657754e-01
5.659997e-01
5.666294e-01
5.675626e-01
5.686726e-01
5.698432e-01
5.710650e-01
5.714847e-01
0.000000e+00
1.000000e+00
5.719836e-01
5.711323e-01
5.700836e-01
5.689996e-01
5.679717e-01
5.671083e-01
5.665276e-01
5.663233e-01
5.665311e-01
5.671140e-01
5.679771e-01
5.690029e-01
5.700839e-01
5.712244e-01
5.713497e-01
0.000000e+00
1.000000e+00
5.720619e-01
5.713322e-01
5.703792e-01
5.694049e-01
5.684805e-01
5.677040e-01
5.671817e-01
5.669979e-01
5.671850e-01
5.677098e-01
5.684870e-01
5.694103e-01
5.703822e-01
5.713972e-01
5.715665e-01
0.000000e+00
1.000000e+00
5.722184e-01
5.715570e-01
5.707150e-01
5.698644e-01
5.690572e-01
5.683791e-01
5.679228e-01
5.677620e-01
5.679250e-01
5.683831e-01
5.690620e-01
5.698692e-01
5.707194e-01
5.717196e-01
5.706667e-01
0.000000e+00
1.000000e+00
5.731010e-01
5.726193e-01
5.724562e-01
5.722465e-01
5.720465e-01
5.718771e-01
5.717623e-01
5.717216e-01
5.717614e-01
5.718739e-01
5.720405e-01
5.722389e-01
5.724473e-01
5.725922e-01
5.722121e-01
0.000000e+00
1.000000e+00
5.730600e-01
5.724188e-01
5.721962e-01
5.718907e-01
5.715997e-01
5.713550e-01
5.711907e-01
5.711326e-01
5.711903e-01
5.713535e-01
5.715960e-01
5.718853e-01
5.721896e-01
5.725059e-01
5.721201e-01
0.000000e+00
1.000000e+00
5.729805e-01
5.721927e-01
5.718908e-01
5.714734e-01
5.710771e-01
5.707443e-01
5.705200e-01
5.704402e-01
5.705187e-01
5.707420e-01
5.710741e-01
5.714699e-01
5.718868e-01
5.723428e-01
5.720950e-01
0.000000e+00
1.000000e+00
5.728562e-01
5.719791e-01
5.715479e-01
5.710049e-01
5.704892e-01
5.700555e-01
5.697630e-01
5.696588e-01
5.697614e-01
5.700528e-01
5.704858e-01
5.710017e-01
5.715451e-01
5.721373e-01
5.719608e-01
0.000000e+00
1.000000e+00
5.727407e-01
5.717526e-01
5.711800e-01
5.705010e-01
5.698561e-01
5.693136e-01
5.689479e-01
5.688179e-01
5.689466e-01
5.693114e-01
5.698530e-01
5.704978e-01
5.711772e-01
5.719092e-01
5.718602e-01
0.000000e+00
1.000000e+00
5.725965e-01
5.715167e-01
5.708036e-01
5.699851e-01
5.692080e-01
5.685547e-01
5.681144e-01
5.679582e-01
5.681137e-01
5.685533e-01
5.692058e-01
5.699824e-01
5.708008e-01
5.716729e-01
5.717520e-01
0.000000e+00
1.000000e+00
5.724531e-01
5.712857e-01
5.704404e-01
5.694877e-01
5.685836e-01
5.678236e-01
5.673115e-01
5.671301e-01
5.673113e-01
5.678230e-01
5.685823e-01
5.694859e-01
5.704381e-01
5.714461e-01
5.715820e-01
0.000000e+00
1.000000e+00
5.723187e-01
5.710859e-01
5.701155e-01
5.690427e-01
5.680250e-01
5.671695e-01
5.665933e-01
5.663893e-01
5.665934e-01
5.671695e-01
5.680243e-01
5.690415e-01
5.701135e-01
5.712425e-01
5.714853e-01
0.000000e+00
1.000000e+00
5.722000e-01
5.709269e-01
5.698525e-01
5.686827e-01
5.675729e-01
5.666403e-01
5.660121e-01
5.657898e-01
5.660124e-01
5.666407e-01
5.675727e-01
5.686818e-01
5.698508e-01
5.710758e-01
5.714007e-01
0.000000e+00
1.000000e+00
5.721117e-01
5.708112e-01
5.696714e-01
5.684348e-01
5.672617e-01
5.662760e-01
5.656121e-01
5.653771e-01
5.656125e-01
5.662765e-01
5.672617e-01
5.684341e-01
5.696698e-01
5.709601e-01
5.713684e-01
0.000000e+00
1.000000e+00
5.720451e-01
5.707647e-01
5.695855e-01
5.683170e-01
5.671140e-01
5.661031e-01
5.654223e-01
5.651813e-01
5.654226e-01
5.661036e-01
5.671140e-01
5.683163e-01
5.695838e-01
5.709048e-01
5.713330e-01
0.000000e+00
1.000000e+00
5.720144e-01
5.707803e-01
5.695993e-01
5.683361e-01
5.671381e-01
5.661315e-01
5.654535e-01
5.652136e-01
5.654539e-01
5.661319e-01
5.671380e-01
5.683354e-01
5.695976e-01
5.709116e-01
5.713519e-01
0.000000e+00
1.000000e+00
5.720152e-01
5.708511e-01
5.697097e-01
5.684874e-01
5.673281e-01
5.663541e-01
5.656982e-01
5.654662e-01
5.656987e-01
5.663547e-01
5.673281e-01
5.684866e-01
5.697078e-01
5.709853e-01
5.713246e-01
0.000000e+00
1.000000e+00
5.720493e-01
5.709835e-01
5.699066e-01
5.687566e-01
5.676661e-01
5.667499e-01
5.661331e-01
5.659150e-01
5.661340e-01
5.667510e-01
5.676664e-01
5.687556e-01
5.699041e-01
5.711092e-01
5.714431e-01
0.000000e+00
1.000000e+00
5.721127e-01
5.711660e-01
5.701743e-01
5.691229e-01
5.681258e-01
5.672881e-01
5.667242e-01
5.665251e-01
5.667255e-01
5.672900e-01
5.681268e-01
5.691221e-01
5.701711e-01
5.712758e-01
5.715330e-01
0.000000e+00
1.000000e+00
5.721977e-01
5.713830e-01
5.704949e-01
5.695621e-01
5.686769e-01
5.679332e-01
5.674327e-01
5.672560e-01
5.674341e-01
5.679354e-01
5.686786e-01
5.695623e-01
5.704929e-01
5.714498e-01
5.718196e-01
0.000000e+00
1.000000e+00
5.723702e-01
5.716236e-01
5.708499e-01
5.700495e-01
5.692892e-01
5.686502e-01
5.682200e-01
5.680680e-01
5.682208e-01
5.686514e-01
5.692902e-01
5.700500e-01
5.708505e-01
5.717343e-01
5.711489e-01
0.000000e+00
1.000000e+00
5.732833e-01
5.725329e-01
5.724246e-01
5.722036e-01
5.719927e-01
5.718144e-01
5.716937e-01
5.716509e-01
5.716931e-01
5.718119e-01
5.719876e-01
5.721967e-01
5.724174e-01
5.724170e-01
5.727774e-01
0.000000e+00
1.000000e+00
5.732155e-01
5.723354e-01
5.721710e-01
5.718569e-01
5.715574e-01
5.713057e-01
5.711367e-01
5.710773e-01
5.711370e-01
5.713050e-01
5.715545e-01
5.718521e-01
5.721652e-01
5.723802e-01
5.720017e-01
0.000000e+00
1.000000e+00
5.730830e-01
5.721346e-01
5.718730e-01
5.714495e-01
5.710473e-01
5.707096e-01
5.704822e-01
5.704015e-01
5.704813e-01
5.707079e-01
5.710448e-01
5.714467e-01
5.718696e-01
5.722643e-01
5.719949e-01
0.000000e+00
1.000000e+00
5.729329e-01
5.719431e-01
5.715378e-01
5.709913e-01
5.704723e-01
5.700360e-01
5.697417e-01
5.696369e-01
5.697402e-01
5.700335e-01
5.704694e-01
5.709888e-01
5.715356e-01
5.720915e-01
5.718912e-01
0.000000e+00
1.000000e+00
5.728160e-01
5.717300e-01
5.711781e-01
5.704983e-01
5.698528e-01
5.693099e-01
5.689439e-01
5.688138e-01
5.689427e-01
5.693080e-01
5.698502e-01
5.704959e-01
5.711759e-01
5.718919e-01
5.718344e-01
0.000000e+00
1.000000e+00
5.726907e-01
5.714912e-01
5.708103e-01
5.699943e-01
5.692196e-01
5.685683e-01
5.681294e-01
5.679738e-01
5.681289e-01
5.685674e-01
5.692182e-01
5.699926e-01
5.708086e-01
5.716737e-01
5.717226e-01
0.000000e+00
1.000000e+00
5.725566e-01
5.712580e-01
5.704570e-01
5.695106e-01
5.686123e-01
5.678572e-01
5.673484e-01
5.671683e-01
5.673484e-01
5.678571e-01
5.686118e-01
5.695097e-01
5.704558e-01
5.714524e-01
5.716336e-01
0.000000e+00
1.000000e+00
5.724140e-01
5.710697e-01
5.701440e-01
5.690818e-01
5.680739e-01
5.672267e-01
5.666560e-01
5.664540e-01
5.666563e-01
5.672271e-01
5.680739e-01
5.690813e-01
5.701429e-01
5.712561e-01
5.715011e-01
0.000000e+00
1.000000e+00
5.723053e-01
5.709231e-01
5.698951e-01
5.687411e-01
5.676461e-01
5.667258e-01
5.661057e-01
5.658863e-01
5.661060e-01
5.667260e-01
5.676459e-01
5.687405e-01
5.698940e-01
5.710960e-01
5.714278e-01
0.000000e+00
1.000000e+00
5.722419e-01
5.708111e-01
5.697305e-01
5.685159e-01
5.673632e-01
5.663944e-01
5.657417e-01
5.655106e-01
5.657417e-01
5.663942e-01
5.673625e-01
5.685147e-01
5.697291e-01
5.709862e-01
5.713437e-01
0.000000e+00
1.000000e+00
5.721924e-01
5.707701e-01
5.696634e-01
5.684237e-01
5.672474e-01
5.662587e-01
5.655925e-01
5.653564e-01
5.655920e-01
5.662577e-01
5.672458e-01
5.684217e-01
5.696611e-01
5.709363e-01
5.713266e-01
0.000000e+00
1.000000e+00
5.721807e-01
5.707980e-01
5.696978e-01
5.684705e-01
5.673058e-01
5.663269e-01
5.656672e-01
5.654333e-01
5.656663e-01
5.663251e-01
5.673031e-01
5.684673e-01
5.696944e-01
5.709513e-01
5.713625e-01
0.000000e+00
1.000000e+00
5.722066e-01
5.708849e-01
5.698293e-01
5.686501e-01
5.675309e-01
5.665901e-01
5.659560e-01
5.657311e-01
5.659547e-01
5.665874e-01
5.675268e-01
5.686453e-01
5.698242e-01
5.710282e-01
5.714191e-01
0.000000e+00
1.000000e+00
5.722590e-01
5.710351e-01
5.700460e-01
5.689463e-01
5.679025e-01
5.670249e-01
5.664332e-01
5.662231e-01
5.664314e-01
5.670212e-01
5.678970e-01
5.689397e-01
5.700390e-01
5.711640e-01
5.714884e-01
0.000000e+00
1.000000e+00
5.723387e-01
5.712346e-01
5.703313e-01
5.693365e-01
5.683922e-01
5.675982e-01
5.670626e-01
5.668721e-01
5.670603e-01
5.675936e-01
5.683857e-01
5.693285e-01
5.703223e-01
5.713459e-01
5.716382e-01
0.000000e+00
1.000000e+00
5.724314e-01
5.714664e-01
5.706652e-01
5.697947e-01
5.689680e-01
5.682723e-01
5.678029e-01
5.676358e-01
5.678003e-01
5.682673e-01
5.689611e-01
5.697869e-01
5.706570e-01
5.715369e-01
5.720106e-01
0.000000e+00
1.000000e+00
5.725139e-01
5.717200e-01
5.710312e-01
5.702960e-01
5.695983e-01
5.690107e-01
5.686134e-01
5.684721e-01
5.686109e-01
5.690052e-01
5.695913e-01
5.702891e-01
5.710245e-01
5.717932e-01
5.716569e-01
0.000000e+00
1.000000e+00
5.734835e-01
5.724697e-01
5.724664e-01
5.722618e-01
5.720661e-01
5.719008e-01
5.717890e-01
5.717493e-01
5.717885e-01
5.718987e-01
5.720616e-01
5.722553e-01
5.724599e-01
5.724635e-01
5.748930e-01
0.000000e+00
1.000000e+00
5.733428e-01
5.723175e-01
5.722260e-01
5.719328e-01
5.716531e-01
5.714181e-01
5.712603e-01
5.712051e-01
5.712611e-01
5.714180e-01
5.716506e-01
5.719280e-01
5.722214e-01
5.722965e-01
5.729999e-01
0.000000e+00
1.000000e+00
5.732304e-01
5.721235e-01
5.719422e-01
5.715448e-01
5.711670e-01
5.708501e-01
5.706368e-01
5.705613e-01
5.706362e-01
5.708486e-01
5.711645e-01
5.715413e-01
5.719388e-01
5.721896e-01
5.726391e-01
0.000000e+00
1.000000e+00
5.731054e-01
5.719296e-01
5.716214e-01
5.711060e-01
5.706166e-01
5.702052e-01
5.699278e-01
5.698291e-01
5.699264e-01
5.702027e-01
5.706134e-01
5.711032e-01
5.716190e-01
5.720545e-01
5.721560e-01
0.000000e+00
1.000000e+00
5.729494e-01
5.717444e-01
5.712764e-01
5.706329e-01
5.700219e-01
5.695080e-01
5.691616e-01
5.690386e-01
5.691604e-01
5.695059e-01
5.700191e-01
5.706305e-01
5.712742e-01
5.719088e-01
5.718574e-01
0.000000e+00
1.000000e+00
5.728274e-01
5.715183e-01
5.709227e-01
5.701483e-01
5.694132e-01
5.687951e-01
5.683786e-01
5.682309e-01
5.683780e-01
5.687942e-01
5.694119e-01
5.701473e-01
5.709217e-01
5.717320e-01
5.717367e-01
0.000000e+00
1.000000e+00
5.727095e-01
5.712973e-01
5.705836e-01
5.696840e-01
5.688301e-01
5.681122e-01
5.676286e-01
5.674572e-01
5.676285e-01
5.681122e-01
5.688299e-01
5.696839e-01
5.705834e-01
5.715309e-01
5.716597e-01
0.000000e+00
1.000000e+00
5.725785e-01
5.711115e-01
5.702845e-01
5.692745e-01
5.683157e-01
5.675098e-01
5.669667e-01
5.667744e-01
5.669668e-01
5.675098e-01
5.683156e-01
5.692743e-01
5.702842e-01
5.713414e-01
5.715418e-01
0.000000e+00
1.000000e+00
5.724669e-01
5.709776e-01
5.700497e-01
5.689528e-01
5.679116e-01
5.670363e-01
5.664465e-01
5.662375e-01
5.664461e-01
5.670356e-01
5.679104e-01
5.689515e-01
5.700484e-01
5.711809e-01
5.714917e-01
0.000000e+00
1.000000e+00
5.724250e-01
5.708791e-01
5.698990e-01
5.687461e-01
5.676519e-01
5.667318e-01
5.661117e-01
5.658916e-01
5.661105e-01
5.667297e-01
5.676488e-01
5.687428e-01
5.698958e-01
5.710616e-01
5.714982e-01
0.000000e+00
1.000000e+00
5.724043e-01
5.708362e-01
5.698451e-01
5.686720e-01
5.675583e-01
5.666217e-01
5.659902e-01
5.657658e-01
5.659880e-01
5.666176e-01
5.675526e-01
5.686659e-01
5.698394e-01
5.709999e-01
5.715078e-01
0.000000e+00
1.000000e+00
5.724074e-01
5.708766e-01
5.698916e-01
5.687352e-01
5.676372e-01
5.667136e-01
5.660905e-01
5.658686e-01
5.660870e-01
5.667072e-01
5.676287e-01
5.687262e-01
5.698834e-01
5.710102e-01
5.714967e-01
0.000000e+00
1.000000e+00
5.724465e-01
5.709759e-01
5.700320e-01
5.689277e-01
5.678794e-01
5.669971e-01
5.664015e-01
5.661888e-01
5.663967e-01
5.669886e-01
5.678686e-01
5.689169e-01
5.700225e-01
5.710849e-01
5.715622e-01
0.000000e+00
1.000000e+00
5.725111e-01
5.711344e-01
5.702546e-01
5.692326e-01
5.682626e-01
5.674465e-01
5.668956e-01
5.666985e-01
5.668903e-01
5.674374e-01
5.682514e-01
5.692214e-01
5.702446e-01
5.712181e-01
5.716209e-01
0.000000e+00
1.000000e+00
5.725869e-01
5.713496e-01
5.705447e-01
5.696290e-01
5.687597e-01
5.680283e-01
5.675350e-01
5.673587e-01
5.675304e-01
5.680199e-01
5.687485e-01
5.696168e-01
5.705329e-01
5.714052e-01
5.717547e-01
0.000000e+00
1.000000e+00
5.726510e-01
5.715961e-01
5.708783e-01
5.700889e-01
5.693388e-01
5.687065e-01
5.682793e-01
5.681263e-01
5.682748e-01
5.686981e-01
5.693276e-01
5.700779e-01
5.708693e-01
5.716163e-01
5.719749e-01
0.000000e+00
1.000000e+00
5.726744e-01
5.718445e-01
5.712389e-01
5.705844e-01
5.699643e-01
5.694433e-01
5.690893e-01
5.689610e-01
5.690832e-01
5.694343e-01
5.699566e-01
5.705791e-01
5.712355e-01
5.718756e-01
5.719114e-01
0.000000e+00
1.000000e+00
5.737642e-01
5.724580e-01
5.725856e-01
5.724256e-01
5.722721e-01
5.721425e-01
5.720549e-01
5.720237e-01
5.720544e-01
5.721407e-01
5.722680e-01
5.724194e-01
5.725769e-01
5.729217e-01
5.764965e-01
0.000000e+00
1.000000e+00
5.735332e-01
5.723256e-01
5.723635e-01
5.721222e-01
5.718912e-01
5.716973e-01
5.715673e-01
5.715222e-01
5.715687e-01
5.716982e-01
5.718896e-01
5.721177e-01
5.723581e-01
5.724772e-01
5.745133e-01
0.000000e+00
1.000000e+00
5.734370e-01
5.721378e-01
5.721008e-01
5.717623e-01
5.714403e-01
5.711705e-01
5.709892e-01
5.709252e-01
5.709891e-01
5.711699e-01
5.714382e-01
5.717584e-01
5.720972e-01
5.722473e-01
5.735368e-01
0.000000e+00
1.000000e+00
5.733070e-01
5.719749e-01
5.718008e-01
5.713522e-01
5.709259e-01
5.705677e-01
5.703262e-01
5.702404e-01
5.703252e-01
5.705654e-01
5.709224e-01
5.713483e-01
5.717980e-01
5.720718e-01
5.728159e-01
0.000000e+00
1.000000e+00
5.731678e-01
5.717969e-01
5.714763e-01
5.709071e-01
5.703663e-01
5.699117e-01
5.696054e-01
5.694966e-01
5.696043e-01
5.699096e-01
5.703632e-01
5.709039e-01
5.714737e-01
5.719446e-01
5.720233e-01
0.000000e+00
1.000000e+00
5.730382e-01
5.715923e-01
5.711420e-01
5.704491e-01
5.697911e-01
5.692379e-01
5.688652e-01
5.687330e-01
5.688645e-01
5.692367e-01
5.697894e-01
5.704479e-01
5.711411e-01
5.718193e-01
5.716618e-01
0.000000e+00
1.000000e+00
5.728760e-01
5.714172e-01
5.708209e-01
5.700091e-01
5.692385e-01
5.685905e-01
5.681540e-01
5.679992e-01
5.681536e-01
5.685899e-01
5.692376e-01
5.700089e-01
5.708207e-01
5.716544e-01
5.716482e-01
0.000000e+00
1.000000e+00
5.727719e-01
5.712359e-01
5.705372e-01
5.696205e-01
5.687502e-01
5.680185e-01
5.675255e-01
5.673506e-01
5.675249e-01
5.680176e-01
5.687490e-01
5.696196e-01
5.705365e-01
5.714777e-01
5.715876e-01
0.000000e+00
1.000000e+00
5.726852e-01
5.710966e-01
5.703148e-01
5.693157e-01
5.683672e-01
5.675696e-01
5.670319e-01
5.668410e-01
5.670305e-01
5.675672e-01
5.683640e-01
5.693126e-01
5.703120e-01
5.713209e-01
5.716752e-01
0.000000e+00
1.000000e+00
5.726382e-01
5.710160e-01
5.701732e-01
5.691214e-01
5.681229e-01
5.672830e-01
5.667165e-01
5.665149e-01
5.667138e-01
5.672781e-01
5.681164e-01
5.691147e-01
5.701670e-01
5.712021e-01
5.718739e-01
0.000000e+00
1.000000e+00
5.726545e-01
5.709718e-01
5.701244e-01
5.690545e-01
5.680386e-01
5.671837e-01
5.666068e-01
5.664009e-01
5.666024e-01
5.671758e-01
5.680282e-01
5.690437e-01
5.701145e-01
5.711377e-01
5.721427e-01
0.000000e+00
1.000000e+00
5.726646e-01
5.710093e-01
5.701707e-01
5.691185e-01
5.681196e-01
5.672788e-01
5.667109e-01
5.665076e-01
5.667049e-01
5.672682e-01
5.681064e-01
5.691053e-01
5.701591e-01
5.711416e-01
5.723226e-01
0.000000e+00
1.000000e+00
5.726978e-01
5.711040e-01
5.703076e-01
5.693061e-01
5.683559e-01
5.675566e-01
5.670169e-01
5.668235e-01
5.670106e-01
5.675458e-01
5.683427e-01
5.692930e-01
5.702958e-01
5.712147e-01
5.725214e-01
0.000000e+00
1.000000e+00
5.727662e-01
5.712677e-01
5.705267e-01
5.696048e-01
5.687298e-01
5.679936e-01
5.674970e-01
5.673199e-01
5.674926e-01
5.679846e-01
5.687170e-01
5.695906e-01
5.705128e-01
5.713429e-01
5.727025e-01
0.000000e+00
1.000000e+00
5.727954e-01
5.715084e-01
5.708081e-01
5.699903e-01
5.692142e-01
5.685602e-01
5.681182e-01
5.679600e-01
5.681133e-01
5.685505e-01
5.692007e-01
5.699758e-01
5.707938e-01
5.715242e-01
5.727462e-01
0.000000e+00
1.000000e+00
5.727841e-01
5.717555e-01
5.711289e-01
5.704326e-01
5.697724e-01
5.692164e-01
5.688403e-01