<?xml version="1.0"?>
<VTKFile type="StructuredGrid" version="0.1">
  <StructuredGrid WholeExtent="0 16 0 16 0 16">
    <Piece Extent="0 16 0 16 0 16">
      <PointData Scalars="temperature" Vectors="velocity">
        <DataArray type="Float32" Name="temperature" format="ascii">
1.000000e+00
5.731205e-01
5.730232e-01
5.730433e-01
5.730574e-01
5.730707e-01
5.730818e-01
5.730893e-01
5.730919e-01
5.730891e-01
5.730816e-01
5.730705e-01
5.730570e-01
5.730422e-01
5.730461e-01
5.728282e-01
0.000000e+00
1.000000e+00
5.731983e-01
5.732335e-01
5.733785e-01
5.735153e-01
5.736449e-01
5.737537e-01
5.738269e-01
5.738526e-01
5.738261e-01
5.737523e-01
5.736431e-01
5.735146e-01
5.733775e-01
5.732389e-01
5.729039e-01
0.000000e+00
1.000000e+00
5.734305e-01
5.736863e-01
5.740882e-01
5.744876e-01
5.748663e-01
5.751844e-01
5.753985e-01
5.754739e-01
5.753971e-01
5.751819e-01
5.748634e-01
5.744871e-01
5.740946e-01
5.736987e-01
5.732972e-01
0.000000e+00
1.000000e+00
5.737782e-01
5.743973e-01
5.752027e-01
5.760136e-01
5.767826e-01
5.774287e-01
5.778639e-01
5.780174e-01
5.778621e-01
5.774254e-01
5.767791e-01
5.760167e-01
5.752205e-01
5.744232e-01
5.735940e-01
0.000000e+00
1.000000e+00
5.742488e-01
5.753677e-01
5.767231e-01
5.780956e-01
5.793970e-01
5.804906e-01
5.812274e-01
5.814879e-01
5.812259e-01
5.804877e-01
5.793952e-01
5.781090e-01
5.767582e-01
5.754038e-01
5.740857e-01
0.000000e+00
1.000000e+00
5.748454e-01
5.765790e-01
5.786225e-01
5.806964e-01
5.826630e-01
5.843158e-01
5.854295e-01
5.858238e-01
5.854291e-01
5.843158e-01
5.826700e-01
5.807286e-01
5.786716e-01
5.766267e-01
5.746575e-01
0.000000e+00
1.000000e+00
5.755485e-01
5.779922e-01
5.808411e-01
5.837342e-01
5.864779e-01
5.887839e-01
5.903382e-01
5.908893e-01
5.903406e-01
5.887909e-01
5.865016e-01
5.837858e-01
5.809015e-01
5.780502e-01
5.753420e-01
0.000000e+00
1.000000e+00
5.763182e-01
5.795497e-01
5.832877e-01
5.870843e-01
5.906850e-01
5.937115e-01
5.957518e-01
5.964763e-01
5.957584e-01
5.937292e-01
5.907286e-01
5.871506e-01
5.833568e-01
5.796210e-01
5.760807e-01
0.000000e+00
1.000000e+00
5.771205e-01
5.811787e-01
5.858459e-01
5.905871e-01
5.950838e-01
5.988637e-01
6.014125e-01
6.023186e-01
6.014245e-01
5.988939e-01
5.951466e-01
5.906637e-01
5.859241e-01
5.812616e-01
5.768213e-01
0.000000e+00
1.000000e+00
5.779118e-01
5.827953e-01
5.883849e-01
5.940634e-01
5.994493e-01
6.039769e-01
6.070305e-01
6.081172e-01
6.070490e-01
6.040218e-01
5.995300e-01
5.941494e-01
5.884693e-01
5.828882e-01
5.775427e-01
0.000000e+00
1.000000e+00
5.786571e-01
5.843153e-01
5.907731e-01
5.973331e-01
6.035553e-01
6.087862e-01
6.123147e-01
6.135717e-01
6.123408e-01
6.088472e-01
6.036513e-01
5.974275e-01
5.908638e-01
5.844148e-01
5.782610e-01
0.000000e+00
1.000000e+00
5.793284e-01
5.856616e-01
5.928921e-01
6.002344e-01
6.071985e-01
6.130536e-01
6.170040e-01
6.184130e-01
6.170386e-01
6.131310e-01
6.073078e-01
6.003379e-01
5.929862e-01
5.857712e-01
5.789003e-01
0.000000e+00
1.000000e+00
5.798848e-01
5.867759e-01
5.946491e-01
6.026395e-01
6.102188e-01
6.165916e-01
6.208924e-01
6.224286e-01
6.209357e-01
6.166836e-01
6.103395e-01
6.027505e-01
5.947456e-01
5.868947e-01
5.794144e-01
0.000000e+00
1.000000e+00
5.803138e-01
5.876181e-01
5.959821e-01
6.044645e-01
6.125110e-01
6.192772e-01
6.238447e-01
6.254782e-01
6.238950e-01
6.193801e-01
6.126393e-01
6.045810e-01
5.960778e-01
5.877475e-01
5.797960e-01
0.000000e+00
1.000000e+00
5.806216e-01
5.881660e-01
5.968630e-01
6.056713e-01
6.140275e-01
6.210546e-01
6.257991e-01
6.274973e-01
6.258532e-01
6.211631e-01
6.141614e-01
6.057926e-01
5.969589e-01
5.883085e-01
5.800775e-01
0.000000e+00
1.000000e+00
5.807899e-01
5.884221e-01
5.972956e-01
6.062647e-01
6.147737e-01
6.219296e-01
6.267615e-01
6.284913e-01
6.268152e-01
6.220380e-01
6.149109e-01
6.063904e-01
5.973919e-01
5.885870e-01
5.801996e-01
0.000000e+00
1.000000e+00
5.808154e-01
5.884159e-01
5.973096e-01
6.062836e-01
6.147971e-01
6.219565e-01
6.267913e-01
6.285227e-01
6.268419e-01
6.220558e-01
6.149317e-01
6.064093e-01
5.974036e-01
5.885998e-01
5.801154e-01
0.000000e+00
1.000000e+00
5.731041e-01
5.730152e-01
5.730319e-01
5.730415e-01
5.730506e-01
5.730581e-01
5.730631e-01
5.730648e-01
5.730628e-01
5.730576e-01
5.730500e-01
5.730424e-01
5.730327e-01
5.730373e-01
5.727984e-01
0.000000e+00
1.000000e+00
5.733102e-01
5.734588e-01
5.737292e-01
5.739956e-01
5.742481e-01
5.744603e-01
5.746030e-01
5.746532e-01
5.746019e-01
5.744583e-01
5.742452e-01
5.739935e-01
5.737321e-01
5.734809e-01
5.729795e-01
0.000000e+00
1.000000e+00
5.736701e-01
5.741683e-01
5.748423e-01
5.755201e-01
5.761629e-01
5.767029e-01
5.770666e-01
5.771949e-01
5.770652e-01
5.767002e-01
5.761588e-01
5.755188e-01
5.748550e-01
5.741923e-01
5.734769e-01
0.000000e+00
1.000000e+00
5.741528e-01
5.751569e-01
5.763931e-01
5.776437e-01
5.788295e-01
5.798259e-01
5.804971e-01
5.807344e-01
5.804957e-01
5.798230e-01
5.788255e-01
5.776515e-01
5.764234e-01
5.751919e-01
5.739168e-01
0.000000e+00
1.000000e+00
5.747697e-01
5.764186e-01
5.783716e-01
5.803527e-01
5.822313e-01
5.838100e-01
5.848739e-01
5.852506e-01
5.848737e-01
5.838095e-01
5.822343e-01
5.803800e-01
5.784193e-01
5.764626e-01
5.745534e-01
0.000000e+00
1.000000e+00
5.755121e-01
5.779238e-01
5.807335e-01
5.835868e-01
5.862927e-01
5.885668e-01
5.900996e-01
5.906433e-01
5.901022e-01
5.885729e-01
5.863120e-01
5.836351e-01
5.807905e-01
5.779793e-01
5.752580e-01
0.000000e+00
1.000000e+00
5.763503e-01
5.796202e-01
5.833971e-01
5.872340e-01
5.908729e-01
5.939313e-01
5.959932e-01
5.967254e-01
5.959998e-01
5.939470e-01
5.909126e-01
5.872974e-01
5.834640e-01
5.796884e-01
5.760631e-01
0.000000e+00
1.000000e+00
5.772424e-01
5.814340e-01
5.862450e-01
5.911334e-01
5.957697e-01
5.996668e-01
6.022948e-01
6.032293e-01
6.023069e-01
5.996956e-01
5.958318e-01
5.912095e-01
5.863220e-01
5.815152e-01
5.769041e-01
0.000000e+00
1.000000e+00
5.781447e-01
5.832738e-01
5.891345e-01
5.950897e-01
6.007379e-01
6.054860e-01
6.086885e-01
6.098284e-01
6.087070e-01
6.055308e-01
6.008223e-01
5.951776e-01
5.892213e-01
5.833662e-01
5.777596e-01
0.000000e+00
1.000000e+00
5.790135e-01
5.850409e-01
5.919114e-01
5.988917e-01
6.055122e-01
6.110781e-01
6.148329e-01
6.161710e-01
6.148594e-01
6.111416e-01
6.056174e-01
5.989929e-01
5.920055e-01
5.851433e-01
5.785873e-01
0.000000e+00
1.000000e+00
5.798070e-01
5.866398e-01
5.944272e-01
6.023361e-01
6.098375e-01
6.161444e-01
6.204000e-01
6.219187e-01
6.204360e-01
6.162279e-01
6.099613e-01
6.024494e-01
5.945290e-01
5.867527e-01
5.793492e-01
0.000000e+00
1.000000e+00
5.804877e-01
5.879891e-01
5.965559e-01
6.052505e-01
6.134975e-01
6.204318e-01
6.251122e-01
6.267850e-01
6.251584e-01
6.205346e-01
6.136372e-01
6.053760e-01
5.966625e-01
5.881158e-01
5.799896e-01
0.000000e+00
1.000000e+00
5.810192e-01
5.890318e-01
5.982071e-01
6.075110e-01
6.163365e-01
6.237581e-01
6.287690e-01
6.305626e-01
6.288244e-01
6.238762e-01
6.164897e-01
6.076463e-01
5.983159e-01
5.891727e-01
5.804661e-01
0.000000e+00
1.000000e+00
5.813939e-01
5.897338e-01
5.993303e-01
6.090491e-01
6.182691e-01
6.260234e-01
6.312602e-01
6.331365e-01
6.313213e-01
6.261509e-01
6.184316e-01
6.091917e-01
5.994367e-01
5.898912e-01
5.807946e-01
0.000000e+00
1.000000e+00
5.816156e-01
5.900841e-01
5.999160e-01
6.098526e-01
6.192797e-01
6.272085e-01
6.325639e-01
6.344832e-01
6.326264e-01
6.273392e-01
6.194460e-01
6.099987e-01
6.000228e-01
5.902632e-01
5.809883e-01
0.000000e+00
1.000000e+00
5.816736e-01
5.900996e-01
5.999905e-01
6.099562e-01
6.194110e-01
6.273632e-01
6.327344e-01
6.346585e-01
6.327940e-01
6.274899e-01
6.195726e-01
6.101001e-01
6.000981e-01
5.903111e-01
5.810024e-01
0.000000e+00
1.000000e+00
5.815793e-01
5.898259e-01
5.996052e-01
6.094290e-01
6.187488e-01
6.265873e-01
6.318819e-01
6.337788e-01
6.319335e-01
6.266967e-01
6.188953e-01
6.095587e-01
5.996929e-01
5.900496e-01
5.808812e-01
0.000000e+00
1.000000e+00
5.729888e-01
5.727717e-01
5.726468e-01
5.725147e-01
5.723893e-01
5.722840e-01
5.722129e-01
5.721876e-01
5.722124e-01
5.722832e-01
5.723881e-01
5.725182e-01
5.726519e-01
5.728004e-01
5.727709e-01
0.000000e+00
1.000000e+00
5.733087e-01
5.734534e-01
5.737170e-01
5.739788e-01
5.742270e-01
5.744354e-01
5.745756e-01
5.746248e-01
5.745741e-01
5.744324e-01
5.742221e-01
5.739763e-01
5.737264e-01
5.734874e-01
5.730973e-01
0.000000e+00
1.000000e+00
5.737885e-01
5.744273e-01
5.752464e-01
5.760732e-01
5.768572e-01
5.775158e-01
5.779594e-01
5.781158e-01
5.779572e-01
5.775113e-01
5.768494e-01
5.760695e-01
5.752658e-01
5.744634e-01
5.735112e-01
0.000000e+00
1.000000e+00
5.744090e-01
5.757049e-01
5.772508e-01
5.788178e-01
5.803038e-01
5.815523e-01
5.823935e-01
5.826908e-01
5.823915e-01
5.815479e-01
5.802969e-01
5.788309e-01
5.772928e-01
5.757473e-01
5.740953e-01
0.000000e+00
1.000000e+00
5.751783e-01
5.772712e-01
5.797072e-01
5.821813e-01
5.845275e-01
5.864991e-01
5.878278e-01
5.882985e-01
5.878280e-01
5.864997e-01
5.845359e-01
5.822213e-01
5.797593e-01
5.773206e-01
5.748516e-01
0.000000e+00
1.000000e+00
5.760801e-01
5.790831e-01
5.825517e-01
5.860763e-01
5.894187e-01
5.922279e-01
5.941216e-01
5.947937e-01
5.941259e-01
5.922382e-01
5.894496e-01
5.861332e-01
5.826116e-01
5.791444e-01
5.757218e-01
0.000000e+00
1.000000e+00
5.770630e-01
5.810730e-01
5.856769e-01
5.903555e-01
5.947926e-01
5.985223e-01
6.010371e-01
6.019308e-01
6.010466e-01
5.985454e-01
5.948475e-01
5.904252e-01
5.857475e-01
5.811483e-01
5.766739e-01
0.000000e+00
1.000000e+00
5.780793e-01
5.831491e-01
5.889366e-01
5.948186e-01
6.003972e-01
6.050869e-01
6.082501e-01
6.093758e-01
6.082664e-01
6.051275e-01
6.004782e-01
5.949033e-01
5.890169e-01
5.832360e-01
5.776594e-01
0.000000e+00
1.000000e+00
5.790870e-01
5.852002e-01
5.921589e-01
5.992303e-01
6.059374e-01
6.115764e-01
6.153807e-01
6.167362e-01
6.154054e-01
6.116383e-01
6.060437e-01
5.993321e-01
5.922478e-01
5.852977e-01
5.786372e-01
0.000000e+00
1.000000e+00
5.800376e-01
5.871104e-01
5.951641e-01
6.033452e-01
6.111051e-01
6.176296e-01
6.220325e-01
6.236033e-01
6.220677e-01
6.177155e-01
6.112348e-01
6.034647e-01
5.952622e-01
5.872196e-01
5.795483e-01
0.000000e+00
1.000000e+00
5.808707e-01
5.887747e-01
5.977878e-01
6.069377e-01
6.156166e-01
6.229142e-01
6.278404e-01
6.296008e-01
6.278880e-01
6.230243e-01
6.157676e-01
6.070724e-01
5.978946e-01
5.888973e-01
5.803409e-01
0.000000e+00
1.000000e+00
5.815463e-01
5.901089e-01
5.998982e-01
6.098269e-01
6.192447e-01
6.271649e-01
6.325136e-01
6.344282e-01
6.325732e-01
6.272958e-01
6.194148e-01
6.099746e-01
6.000111e-01
5.902466e-01
5.809716e-01
0.000000e+00
1.000000e+00
5.820389e-01
5.910578e-01
6.014094e-01
6.118959e-01
6.218438e-01
6.302113e-01
6.358638e-01
6.378895e-01
6.359319e-01
6.303557e-01
6.220287e-01
6.120560e-01
6.015228e-01
5.912138e-01
5.814066e-01
0.000000e+00
1.000000e+00
5.823438e-01
5.915953e-01
6.022868e-01
6.130983e-01
6.233557e-01
6.319842e-01
6.378139e-01
6.399039e-01
6.378852e-01
6.321343e-01
6.235499e-01
6.132691e-01
6.023980e-01
5.917737e-01
5.816603e-01
0.000000e+00
1.000000e+00
5.824678e-01
5.917237e-01
6.025437e-01
6.134526e-01
6.238023e-01
6.325083e-01
6.383903e-01
6.404983e-01
6.384602e-01
6.326573e-01
6.239969e-01
6.136228e-01
6.026549e-01
5.919371e-01
5.817555e-01
0.000000e+00
1.000000e+00
5.824062e-01
5.914768e-01
6.022325e-01
6.130280e-01
6.232692e-01
6.318836e-01
6.377030e-01
6.397867e-01
6.377679e-01
6.320244e-01
6.234524e-01
6.131878e-01
6.023394e-01
5.917361e-01
5.816607e-01
0.000000e+00
1.000000e+00
5.821541e-01
5.909262e-01
6.014284e-01
6.119266e-01
6.218850e-01
6.302613e-01
6.359195e-01
6.379436e-01
6.359730e-01
6.303844e-01
6.220473e-01
6.120661e-01
6.015148e-01
5.912059e-01
5.814456e-01
0.000000e+00
1.000000e+00
5.727343e-01
5.722652e-01
5.718532e-01
5.714278e-01
5.710245e-01
5.706855e-01
5.704571e-01
5.703760e-01
5.704567e-01
5.706851e-01
5.710235e-01
5.714369e-01
5.718655e-01
5.722861e-01
5.725702e-01
0.000000e+00
1.000000e+00
5.731807e-01
5.731825e-01
5.732902e-01
5.733948e-01
5.734939e-01
5.735771e-01
5.736329e-01
5.736521e-01
5.736311e-01
5.735737e-01
5.734879e-01
5.733968e-01
5.733057e-01
5.732085e-01
5.730782e-01
0.000000e+00
1.000000e+00
5.737801e-01
5.744224e-01
5.752350e-01
5.760576e-01
5.768375e-01
5.774927e-01
5.779338e-01
5.780892e-01
5.779309e-01
5.774864e-01
5.768260e-01
5.760540e-01
5.752658e-01
5.744641e-01
5.736092e-01
0.000000e+00
1.000000e+00
5.745403e-01
5.759902e-01
5.776939e-01
5.794245e-01
5.810655e-01
5.824443e-01
5.833731e-01
5.837013e-01
5.833702e-01
5.824375e-01
5.810541e-01
5.794391e-01
5.777500e-01
5.760387e-01
5.743311e-01
0.000000e+00
1.000000e+00
5.754626e-01
5.778620e-01
5.806303e-01
5.834450e-01
5.861141e-01
5.883571e-01
5.898686e-01
5.904039e-01
5.898684e-01
5.883573e-01
5.861256e-01
5.834946e-01
5.806918e-01
5.779144e-01
5.752322e-01
0.000000e+00
1.000000e+00
5.765213e-01
5.799803e-01
5.839587e-01
5.880025e-01
5.918375e-01
5.950606e-01
5.972333e-01
5.980046e-01
5.972387e-01
5.950744e-01
5.918778e-01
5.880678e-01
5.840264e-01
5.800464e-01
5.762250e-01
0.000000e+00
1.000000e+00
5.776490e-01
5.822620e-01
5.875445e-01
5.929124e-01
5.980033e-01
6.022825e-01
6.051683e-01
6.061944e-01
6.051806e-01
6.023131e-01
5.980704e-01
5.929919e-01
5.876212e-01
5.823434e-01
5.773009e-01
0.000000e+00
1.000000e+00
5.787918e-01
5.845959e-01
5.912109e-01
5.979322e-01
6.043070e-01
6.096661e-01
6.132812e-01
6.145683e-01
6.133020e-01
6.097180e-01
6.044009e-01
5.980311e-01
5.912958e-01
5.846890e-01
5.783927e-01
0.000000e+00
1.000000e+00
5.799037e-01
5.868503e-01
5.947545e-01
6.027840e-01
6.103997e-01
6.168028e-01
6.211233e-01
6.226636e-01
6.211555e-01
6.168808e-01
6.105202e-01
6.029037e-01
5.948500e-01
5.869549e-01
5.794561e-01
0.000000e+00
1.000000e+00
5.809240e-01
5.888922e-01
5.979702e-01
6.071869e-01
6.159291e-01
6.232799e-01
6.282415e-01
6.300134e-01
6.282885e-01
6.233867e-01
6.160750e-01
6.073282e-01
5.980780e-01
5.890115e-01
5.804217e-01
0.000000e+00
1.000000e+00
5.817874e-01
5.906064e-01
6.006773e-01
6.108934e-01
6.205838e-01
6.287331e-01
6.342359e-01
6.362049e-01
6.342988e-01
6.288674e-01
6.207547e-01
6.110520e-01
6.007989e-01
5.907406e-01
5.812307e-01
0.000000e+00
1.000000e+00
5.824519e-01
5.919063e-01
6.027403e-01
6.137175e-01
6.241309e-01
6.328900e-01
6.388073e-01
6.409280e-01
6.388832e-01
6.330455e-01
6.243258e-01
6.138905e-01
6.028704e-01
5.920593e-01
5.818438e-01
0.000000e+00
1.000000e+00
5.828991e-01
5.927402e-01
6.040818e-01
6.155548e-01
6.264403e-01
6.355980e-01
6.417858e-01
6.440050e-01
6.418684e-01
6.357638e-01
6.266523e-01
6.157453e-01
6.042078e-01
5.929172e-01
5.822342e-01
0.000000e+00
1.000000e+00
5.831326e-01
5.930909e-01
6.046864e-01
6.163855e-01
6.274863e-01
6.368249e-01
6.431349e-01
6.453974e-01
6.432176e-01
6.369914e-01
6.277059e-01
6.165869e-01
6.048093e-01
5.933001e-01
5.824049e-01
0.000000e+00
1.000000e+00
5.831482e-01
5.929834e-01
6.045942e-01
6.162627e-01
6.273330e-01
6.366451e-01
6.429362e-01
6.451904e-01
6.430148e-01
6.368060e-01
6.275493e-01
6.164596e-01
6.047147e-01
5.932369e-01
5.823795e-01
0.000000e+00
1.000000e+00
5.829404e-01
5.924888e-01
6.038842e-01
6.152914e-01
6.261122e-01
6.352140e-01
6.413621e-01
6.435623e-01
6.414332e-01
6.353642e-01
6.263142e-01
6.154711e-01
6.039978e-01
5.927854e-01
5.821756e-01
0.000000e+00
1.000000e+00
5.825727e-01
5.916856e-01
6.026567e-01
6.136092e-01
6.239982e-01
6.327366e-01
6.386386e-01
6.407469e-01
6.386971e-01
6.328699e-01
6.241758e-01
6.137600e-01
6.027448e-01
5.919809e-01
5.818209e-01
0.000000e+00
1.000000e+00
5.723540e-01
5.714868e-01
5.706339e-01
5.697583e-01
5.689280e-01
5.682303e-01
5.677603e-01
5.675939e-01
5.677607e-01
5.682319e-01
5.689298e-01
5.697771e-01
5.706571e-01
5.715163e-01
5.721535e-01
0.000000e+00
1.000000e+00
5.729166e-01
5.726267e-01
5.724194e-01
5.722028e-01
5.719974e-01
5.718247e-01
5.717081e-01
5.716663e-01
5.717066e-01
5.718221e-01
5.719921e-01
5.722170e-01
5.724413e-01
5.726545e-01
5.727703e-01
0.000000e+00
1.000000e+00
5.736310e-01
5.741208e-01
5.747605e-01
5.754079e-01
5.760218e-01
5.765374e-01
5.768845e-01
5.770066e-01
5.768814e-01
5.765308e-01
5.760092e-01
5.754095e-01
5.747981e-01
5.741688e-01
5.734239e-01
0.000000e+00
1.000000e+00
5.745302e-01
5.759676e-01
5.776553e-01
5.793716e-01
5.809991e-01
5.823666e-01
5.832876e-01
5.836128e-01
5.832842e-01
5.823586e-01
5.809836e-01
5.793847e-01
5.777244e-01
5.760256e-01
5.742765e-01
0.000000e+00
1.000000e+00
5.755978e-01
5.781330e-01
5.810521e-01
5.840225e-01
5.868391e-01
5.892061e-01
5.908009e-01
5.913654e-01
5.907997e-01
5.892041e-01
5.868468e-01
5.840759e-01
5.811283e-01
5.781954e-01
5.753120e-01
0.000000e+00
1.000000e+00
5.767972e-01
5.805468e-01
5.848438e-01
5.892142e-01
5.933588e-01
5.968420e-01
5.991899e-01
6.000230e-01
5.991950e-01
5.968559e-01
5.934021e-01
5.892868e-01
5.849224e-01
5.806207e-01
5.764603e-01
0.000000e+00
1.000000e+00
5.780622e-01
5.831071e-01
5.888677e-01
5.947238e-01
6.002775e-01
6.049458e-01
6.080937e-01
6.092129e-01
6.081073e-01
6.049793e-01
6.003504e-01
5.948144e-01
5.889526e-01
5.831940e-01
5.776785e-01
0.000000e+00
1.000000e+00
5.793321e-01
5.856811e-01
5.929148e-01
6.002649e-01
6.072359e-01
6.130962e-01
6.170493e-01
6.184571e-01
6.170740e-01
6.131555e-01
6.073379e-01
6.003801e-01
5.930067e-01
5.857808e-01
5.789026e-01
0.000000e+00
1.000000e+00
5.805406e-01
5.881191e-01
5.967514e-01
6.055176e-01
6.138319e-01
6.208224e-01
6.255398e-01
6.272231e-01
6.255805e-01
6.209139e-01
6.139626e-01
6.056573e-01
5.968563e-01
5.882327e-01
5.800640e-01
0.000000e+00
1.000000e+00
5.816199e-01
5.902724e-01
6.001473e-01
6.101669e-01
6.196706e-01
6.276625e-01
6.330583e-01
6.349885e-01
6.331192e-01
6.277888e-01
6.198280e-01
6.103280e-01
6.002729e-01
5.904002e-01
5.810858e-01
0.000000e+00
1.000000e+00
5.825118e-01
5.920145e-01
6.029074e-01
6.139458e-01
6.244170e-01
6.332245e-01
6.391740e-01
6.413075e-01
6.392545e-01
6.333816e-01
6.246035e-01
6.141177e-01
6.030615e-01
5.921630e-01
5.818999e-01
0.000000e+00
1.000000e+00
5.831599e-01
5.932602e-01
6.048956e-01
6.166680e-01
6.278377e-01
6.372349e-01
6.435852e-01
6.458656e-01
6.436781e-01
6.374112e-01
6.280506e-01
6.168557e-01
6.050616e-01
5.934414e-01
5.824841e-01
0.000000e+00
1.000000e+00
5.835557e-01
5.939643e-01
6.060459e-01
6.182454e-01
6.298222e-01
6.395627e-01
6.461452e-01
6.485094e-01
6.462417e-01
6.397438e-01
6.300521e-01
6.184672e-01
6.062014e-01
5.941800e-01
5.828236e-01
0.000000e+00
1.000000e+00
5.837065e-01
5.941262e-01
6.063652e-01
6.186873e-01
6.303803e-01
6.402171e-01
6.468636e-01
6.492491e-01
6.469566e-01
6.403936e-01
6.306151e-01
6.189197e-01
6.065129e-01
5.943644e-01
5.829232e-01
0.000000e+00
1.000000e+00
5.835813e-01
5.938105e-01
6.059220e-01
6.180828e-01
6.296210e-01
6.393264e-01
6.458828e-01
6.482332e-01
6.459677e-01
6.394935e-01
6.298510e-01
6.183060e-01
6.060600e-01
5.940536e-01
5.827775e-01
0.000000e+00
1.000000e+00
5.831991e-01
5.931169e-01
6.048209e-01
6.165740e-01
6.277243e-01
6.371031e-01
6.434383e-01
6.457064e-01
6.435122e-01
6.372580e-01
6.279407e-01
6.167749e-01
6.049454e-01
5.933674e-01
5.824449e-01
0.000000e+00
1.000000e+00
5.826946e-01
5.920862e-01
6.031847e-01
6.143325e-01
6.249085e-01
6.338040e-01
6.398123e-01
6.419601e-01
6.398727e-01
6.339439e-01
6.250999e-01
6.144969e-01
6.032790e-01
5.923176e-01
5.819839e-01
0.000000e+00
1.000000e+00
5.718436e-01
5.704452e-01
5.690019e-01
5.675235e-01
5.661219e-01
5.649443e-01
5.641513e-01
5.638711e-01
5.641537e-01
5.649500e-01
5.661286e-01
5.675538e-01
5.690370e-01
5.704875e-01
5.716275e-01
0.000000e+00
1.000000e+00
5.725083e-01
5.717866e-01
5.711033e-01
5.704009e-01
5.697350e-01
5.691756e-01
5.687987e-01
5.686651e-01
5.687984e-01
5.691757e-01
5.697327e-01
5.704335e-01
5.711384e-01
5.718249e-01
5.723397e-01
0.000000e+00
1.000000e+00
5.733360e-01
5.735110e-01
5.738042e-01
5.740987e-01
5.743779e-01
5.746125e-01
5.747703e-01
5.748255e-01
5.747679e-01
5.746075e-01
5.743672e-01
5.741137e-01
5.738456e-01
5.735652e-01
5.731112e-01
0.000000e+00
1.000000e+00
5.743577e-01
5.756113e-01
5.770951e-01
5.786047e-01
5.800362e-01
5.812389e-01
5.820489e-01
5.823347e-01
5.820454e-01
5.812315e-01
5.800208e-01
5.786165e-01
5.771688e-01
5.756790e-01
5.740940e-01
0.000000e+00
1.000000e+00
5.755489e-01
5.780443e-01
5.809096e-01
5.838274e-01
5.865943e-01
5.889195e-01
5.904862e-01
5.910405e-01
5.904842e-01
5.889154e-01
5.865933e-01
5.838806e-01
5.809998e-01
5.781171e-01
5.752628e-01
0.000000e+00
1.000000e+00
5.768719e-01
5.807261e-01
5.851191e-01
5.895909e-01
5.938315e-01
5.973953e-01
5.997973e-01
6.006490e-01
5.998008e-01
5.974059e-01
5.938698e-01
5.896725e-01
5.852122e-01
5.808076e-01
5.765315e-01
0.000000e+00
1.000000e+00
5.782606e-01
5.835360e-01
5.895335e-01
5.956350e-01
6.014214e-01
6.062848e-01
6.095640e-01
6.107293e-01
6.095769e-01
6.063171e-01
6.014947e-01
5.957335e-01
5.896307e-01
5.836283e-01
5.778766e-01
0.000000e+00
1.000000e+00
5.796396e-01
5.863216e-01
5.939138e-01
6.016322e-01
6.089522e-01
6.151056e-01
6.192562e-01
6.207342e-01
6.192822e-01
6.151672e-01
6.090576e-01
6.017556e-01
5.940166e-01
5.864262e-01
5.792029e-01
0.000000e+00
1.000000e+00
5.809324e-01
5.889151e-01
5.979975e-01
6.072230e-01
6.159728e-01
6.233293e-01
6.282938e-01
6.300661e-01
6.283393e-01
6.234286e-01
6.161091e-01
6.073738e-01
5.981150e-01
5.890328e-01
5.804369e-01
0.000000e+00
1.000000e+00
5.820653e-01
5.911538e-01
6.015325e-01
6.120626e-01
6.220506e-01
6.304500e-01
6.361218e-01
6.381531e-01
6.361919e-01
6.305896e-01
6.222163e-01
6.122287e-01
6.016760e-01
5.912884e-01
5.814947e-01
0.000000e+00
1.000000e+00
5.829746e-01
5.929042e-01
6.043123e-01
6.158690e-01
6.268320e-01
6.360540e-01
6.422853e-01
6.445232e-01
6.423772e-01
6.362261e-01
6.270298e-01
6.160336e-01
6.044953e-01
5.930687e-01
5.823086e-01
0.000000e+00
1.000000e+00
5.835936e-01
5.940855e-01
6.062037e-01
6.184588e-01
6.300871e-01
6.398713e-01
6.464852e-01
6.488635e-01
6.465886e-01
6.400592e-01
6.303082e-01
6.186435e-01
6.063801e-01
5.942970e-01
5.828594e-01
0.000000e+00
1.000000e+00
5.839213e-01
5.946637e-01
6.071540e-01
6.197626e-01
6.317286e-01
6.417975e-01
6.486035e-01
6.510503e-01
6.487075e-01
6.419852e-01
6.319612e-01
6.199866e-01
6.073095e-01
5.949134e-01
5.831477e-01
0.000000e+00
1.000000e+00
5.839660e-01
5.946605e-01
6.071930e-01
6.198204e-01
6.318038e-01
6.418858e-01
6.486990e-01
6.511455e-01
6.487960e-01
6.420648e-01
6.320403e-01
6.200621e-01
6.073602e-01
5.949013e-01
5.831806e-01
0.000000e+00
1.000000e+00
5.837018e-01
5.941631e-01
6.064157e-01
6.187570e-01
6.304669e-01
6.403180e-01
6.469741e-01
6.493609e-01
6.470594e-01
6.404853e-01
6.307020e-01
6.189956e-01
6.065648e-01
5.943509e-01
5.829789e-01
0.000000e+00
1.000000e+00
5.831938e-01
5.932560e-01
6.049517e-01
6.167497e-01
6.279437e-01
6.373605e-01
6.437235e-01
6.460037e-01
6.437962e-01
6.375153e-01
6.281684e-01
6.169638e-01
6.050833e-01
5.934541e-01
5.825187e-01
0.000000e+00
1.000000e+00
5.825700e-01
5.919847e-01
6.029450e-01
6.140019e-01
6.244935e-01
6.333189e-01
6.392813e-01
6.414164e-01
6.393420e-01
6.334591e-01
6.246902e-01
6.141694e-01
6.030404e-01
5.921806e-01
5.819230e-01
0.000000e+00
1.000000e+00
5.712219e-01
5.691697e-01
5.670030e-01
5.647867e-01
5.626854e-01
5.609204e-01
5.597319e-01
5.593126e-01
5.597372e-01
5.609313e-01
5.626985e-01
5.648283e-01
5.670489e-01
5.692192e-01
5.710211e-01
0.000000e+00
1.000000e+00
5.719676e-01
5.706837e-01
5.693755e-01
5.680353e-01
5.667649e-01
5.656979e-01
5.649797e-01
5.647261e-01
5.649823e-01
5.657036e-01
5.667692e-01
5.680842e-01
5.694271e-01
5.707357e-01
5.718098e-01
0.000000e+00
1.000000e+00
5.728951e-01
5.726054e-01
5.723850e-01
5.721557e-01
5.719384e-01
5.717559e-01
5.716330e-01
5.715893e-01
5.716324e-01
5.717548e-01
5.719318e-01
5.721946e-01
5.724350e-01
5.726648e-01
5.726817e-01
0.000000e+00
1.000000e+00
5.740183e-01
5.749216e-01
5.760129e-01
5.771231e-01
5.781757e-01
5.790602e-01
5.796559e-01
5.798661e-01
5.796531e-01
5.790542e-01
5.781633e-01
5.771396e-01
5.760863e-01
5.749964e-01
5.737738e-01
0.000000e+00
1.000000e+00
5.753159e-01
5.775805e-01
5.801800e-01
5.828286e-01
5.853404e-01
5.874511e-01
5.888731e-01
5.893760e-01
5.888710e-01
5.874467e-01
5.853315e-01
5.828740e-01
5.802812e-01
5.776624e-01
5.750483e-01
0.000000e+00
1.000000e+00
5.767451e-01
5.804856e-01
5.847373e-01
5.890681e-01
5.931750e-01
5.966265e-01
5.989526e-01
5.997769e-01
5.989545e-01
5.966327e-01
5.932020e-01
5.891578e-01
5.848423e-01
5.805726e-01
5.764257e-01
0.000000e+00
1.000000e+00
5.782327e-01
5.834999e-01
5.894706e-01
5.955487e-01
6.013127e-01
6.061570e-01
6.094228e-01
6.105825e-01
6.094334e-01
6.061845e-01
6.013824e-01
5.956557e-01
5.895796e-01
5.835964e-01
5.778581e-01
0.000000e+00
1.000000e+00
5.796901e-01
5.864550e-01
5.941148e-01
6.019070e-01
6.092967e-01
6.155082e-01
6.196974e-01
6.211883e-01
6.197214e-01
6.155657e-01
6.094029e-01
6.020290e-01
5.942313e-01
5.865619e-01
5.792583e-01
0.000000e+00
1.000000e+00
5.810428e-01
5.891670e-01
5.983832e-01
6.077505e-01
6.166344e-01
6.241032e-01
6.291430e-01
6.309417e-01
6.291874e-01
6.242012e-01
6.167745e-01
6.078896e-01
5.985159e-01
5.892849e-01
5.805301e-01
0.000000e+00
1.000000e+00
5.822074e-01
5.914618e-01
6.020064e-01
6.127109e-01
6.228638e-01
6.314016e-01
6.371666e-01
6.392313e-01
6.372372e-01
6.315426e-01
6.230373e-01
6.128579e-01
6.021700e-01
5.915974e-01
5.816054e-01
0.000000e+00
1.000000e+00
5.831076e-01
5.932045e-01
6.047716e-01
6.164969e-01
6.276195e-01
6.369757e-01
6.432979e-01
6.455688e-01
6.433911e-01
6.371485e-01
6.278212e-01
6.166598e-01
6.049501e-01
5.933737e-01
5.824141e-01
0.000000e+00
1.000000e+00
5.836885e-01
5.943170e-01
6.065493e-01
6.189313e-01
6.306794e-01
6.405645e-01
6.472468e-01
6.496501e-01
6.473511e-01
6.407500e-01
6.308981e-01
6.191336e-01
6.067032e-01
5.945294e-01
5.829392e-01
0.000000e+00
1.000000e+00
5.839459e-01
5.947778e-01
6.073025e-01
6.199648e-01
6.319810e-01
6.420921e-01
6.489271e-01
6.513842e-01
6.490302e-01
6.422751e-01
6.322061e-01
6.201805e-01
6.074472e-01
5.950207e-01
5.831905e-01
0.000000e+00
1.000000e+00
5.838817e-01
5.946274e-01
6.070823e-01
6.196664e-01
6.316080e-01
6.416549e-01
6.484457e-01
6.508834e-01
6.485392e-01
6.418279e-01
6.318384e-01
6.199038e-01
6.072567e-01
5.948529e-01
5.831521e-01
0.000000e+00
1.000000e+00
5.835189e-01
5.939487e-01
6.060059e-01
6.181932e-01
6.297559e-01
6.394835e-01
6.460580e-01
6.484168e-01
6.461394e-01
6.396441e-01
6.299889e-01
6.184336e-01
6.061561e-01
5.941295e-01
5.828544e-01
0.000000e+00
1.000000e+00
5.829316e-01
5.928294e-01
6.042255e-01
6.157526e-01
6.266897e-01
6.358915e-01
6.421103e-01
6.443421e-01
6.421825e-01
6.360394e-01
6.269137e-01
6.159652e-01
6.043539e-01
5.930025e-01
5.823238e-01
0.000000e+00
1.000000e+00
5.822213e-01
5.913553e-01
6.019107e-01
6.125822e-01
6.227081e-01
6.312265e-01
6.369819e-01
6.390455e-01
6.370447e-01
6.313590e-01
6.229000e-01
6.127435e-01
6.020039e-01
5.915187e-01
5.816107e-01
0.000000e+00
1.000000e+00
5.705154e-01
5.677102e-01
5.647165e-01
5.616562e-01
5.587549e-01
5.563181e-01
5.546777e-01
5.540995e-01
5.546863e-01
5.563350e-01
5.587749e-01
5.617088e-01
5.647728e-01
5.677651e-01
5.703328e-01
0.000000e+00
1.000000e+00
5.713224e-01
5.693638e-01
5.673078e-01
5.652044e-01
5.632107e-01
5.615364e-01
5.604098e-01
5.600131e-01
5.604165e-01
5.615492e-01
5.632232e-01
5.652669e-01
5.673742e-01
5.694265e-01
5.711775e-01
0.000000e+00
1.000000e+00
5.723298e-01
5.714427e-01
5.705634e-01
5.696618e-01
5.688073e-01
5.680898e-01
5.676068e-01
5.674364e-01
5.676090e-01
5.680943e-01
5.688071e-01
5.697267e-01
5.706301e-01
5.715116e-01
5.721254e-01
0.000000e+00
1.000000e+00
5.735302e-01
5.739275e-01
5.744547e-01
5.749896e-01
5.754970e-01
5.759237e-01
5.762114e-01
5.763130e-01
5.762102e-01
5.759208e-01
5.754872e-01
5.750249e-01
5.745304e-01
5.740062e-01
5.732966e-01
0.000000e+00
1.000000e+00
5.749112e-01
5.767593e-01
5.788913e-01
5.810644e-01
5.831251e-01
5.848567e-01
5.860231e-01
5.864356e-01
5.860211e-01
5.848530e-01
5.831138e-01
5.810988e-01
5.790018e-01
5.768504e-01
5.746565e-01
0.000000e+00
1.000000e+00
5.764224e-01
5.798299e-01
5.837067e-01
5.876573e-01
5.914039e-01
5.945526e-01
5.966746e-01
5.974264e-01
5.966757e-01
5.945559e-01
5.914165e-01
5.877453e-01
5.838221e-01
5.799236e-01
5.761125e-01
0.000000e+00
1.000000e+00
5.779811e-01
5.829899e-01
5.886670e-01
5.944486e-01
5.999315e-01
6.045394e-01
6.076454e-01
6.087475e-01
6.076533e-01
6.045603e-01
5.999895e-01
5.945641e-01
5.887827e-01
5.830923e-01
5.776184e-01
0.000000e+00
1.000000e+00
5.794872e-01
5.860590e-01
5.934877e-01
6.010485e-01
6.082186e-01
6.142452e-01
6.183088e-01
6.197539e-01
6.183286e-01
6.142926e-01
6.083192e-01
6.011746e-01
5.936069e-01
5.861699e-01
5.790589e-01
0.000000e+00
1.000000e+00
5.808676e-01
5.888423e-01
5.978646e-01
6.070406e-01
6.157427e-01
6.230581e-01
6.279934e-01
6.297531e-01
6.280311e-01
6.231428e-01
6.158814e-01
6.071761e-01
5.979964e-01
5.889606e-01
5.803497e-01
0.000000e+00
1.000000e+00
5.820387e-01
5.911585e-01
6.015177e-01
6.120420e-01
6.220234e-01
6.304162e-01
6.360819e-01
6.381086e-01
6.361434e-01
6.305412e-01
6.221925e-01
6.121851e-01
6.016767e-01
5.912897e-01
5.814245e-01
0.000000e+00
1.000000e+00
5.829118e-01
5.928738e-01
6.042324e-01
6.157587e-01
6.266916e-01
6.358871e-01
6.420989e-01
6.443274e-01
6.421820e-01
6.360418e-01
6.268807e-01
6.159317e-01
6.044020e-01
5.930262e-01
5.822232e-01
0.000000e+00
1.000000e+00
5.834446e-01
5.939131e-01
6.058857e-01
6.180225e-01
6.295366e-01
6.392233e-01
6.457697e-01
6.481212e-01
6.458636e-01
6.393906e-01
6.297403e-01
6.182308e-01
6.060500e-01
5.940916e-01
5.827151e-01
0.000000e+00
1.000000e+00
5.836358e-01
5.942644e-01
6.064546e-01
6.188034e-01
6.305201e-01
6.403780e-01
6.470404e-01
6.494327e-01
6.471331e-01
6.405444e-01
6.307355e-01
6.190275e-01
6.066170e-01
5.944567e-01
5.829268e-01
0.000000e+00
1.000000e+00
5.834904e-01
5.939781e-01
6.060090e-01
6.181952e-01
6.297577e-01
6.394848e-01
6.460589e-01
6.484186e-01
6.461429e-01
6.396434e-01
6.299830e-01
6.184361e-01
6.061690e-01
5.941559e-01
5.828483e-01
0.000000e+00
1.000000e+00
5.830658e-01
5.931406e-01
6.046859e-01
6.163824e-01
6.274791e-01
6.368144e-01
6.431242e-01
6.453899e-01
6.432009e-01
6.369631e-01
6.277058e-01
6.166097e-01
6.048186e-01
5.932911e-01
5.824643e-01
0.000000e+00
1.000000e+00
5.824312e-01
5.918466e-01
6.026551e-01
6.136013e-01
6.239860e-01
6.327219e-01
6.386250e-01