<?xml version="1.0"?>
<VTKFile type="StructuredGrid" version="0.1">
  <StructuredGrid WholeExtent="0 16 0 16 0 16">
    <Piece Extent="0 16 0 16 0 16">
      <PointData Scalars="temperature" Vectors="velocity">
        <DataArray type="Float32" Name="temperature" format="ascii">
1.000000e+00
5.803711e-01
5.885481e-01
5.973328e-01
6.063172e-01
6.148367e-01
6.219959e-01
6.268202e-01
6.285287e-01
6.268202e-01
6.219959e-01
6.148367e-01
6.063172e-01
5.973328e-01
5.885481e-01
5.803711e-01
0.000000e+00
1.000000e+00
5.794985e-01
5.867074e-01
5.944522e-01
6.023730e-01
6.098839e-01
6.161956e-01
6.204487e-01
6.219550e-01
6.204487e-01
6.161956e-01
6.098839e-01
6.023730e-01
5.944522e-01
5.867074e-01
5.794985e-01
0.000000e+00
1.000000e+00
5.785174e-01
5.846381e-01
5.912137e-01
5.979387e-01
6.043157e-01
6.096746e-01
6.132856e-01
6.145645e-01
6.132856e-01
6.096746e-01
6.043157e-01
5.979387e-01
5.912137e-01
5.846381e-01
5.785174e-01
0.000000e+00
1.000000e+00
5.774536e-01
5.823942e-01
5.877019e-01
5.931303e-01
5.982778e-01
6.026034e-01
6.055182e-01
6.065506e-01
6.055182e-01
6.026034e-01
5.982778e-01
5.931303e-01
5.877019e-01
5.823942e-01
5.774536e-01
0.000000e+00
1.000000e+00
5.763435e-01
5.800526e-01
5.840374e-01
5.881127e-01
5.919772e-01
5.952246e-01
5.974129e-01
5.981879e-01
5.974129e-01
5.952246e-01
5.919772e-01
5.881127e-01
5.840374e-01
5.800526e-01
5.763435e-01
0.000000e+00
1.000000e+00
5.752331e-01
5.777104e-01
5.803718e-01
5.830936e-01
5.856746e-01
5.878436e-01
5.893051e-01
5.898227e-01
5.893051e-01
5.878436e-01
5.856746e-01
5.830936e-01
5.803718e-01
5.777104e-01
5.752331e-01
0.000000e+00
1.000000e+00
5.741747e-01
5.754778e-01
5.768778e-01
5.783096e-01
5.796673e-01
5.808082e-01
5.815770e-01
5.818493e-01
5.815770e-01
5.808082e-01
5.796673e-01
5.783096e-01
5.768778e-01
5.754778e-01
5.741747e-01
0.000000e+00
1.000000e+00
5.732223e-01
5.734688e-01
5.737337e-01
5.740046e-01
5.742615e-01
5.744774e-01
5.746229e-01
5.746744e-01
5.746229e-01
5.744774e-01
5.742615e-01
5.740046e-01
5.737337e-01
5.734688e-01
5.732223e-01
0.000000e+00
1.000000e+00
5.724257e-01
5.717886e-01
5.711041e-01
5.704040e-01
5.697402e-01
5.691824e-01
5.688065e-01
5.686734e-01
5.688065e-01
5.691824e-01
5.697402e-01
5.704040e-01
5.711041e-01
5.717886e-01
5.724257e-01
0.000000e+00
1.000000e+00
5.718249e-01
5.705213e-01
5.691208e-01
5.676885e-01
5.663303e-01
5.651889e-01
5.644198e-01
5.641474e-01
5.644198e-01
5.651889e-01
5.663303e-01
5.676885e-01
5.691208e-01
5.705213e-01
5.718249e-01
0.000000e+00
1.000000e+00
5.714455e-01
5.697210e-01
5.678684e-01
5.659736e-01
5.641769e-01
5.626670e-01
5.616496e-01
5.612893e-01
5.616496e-01
5.626670e-01
5.641769e-01
5.659736e-01
5.678684e-01
5.697210e-01
5.714455e-01
0.000000e+00
1.000000e+00
5.712964e-01
5.694064e-01
5.673761e-01
5.652995e-01
5.633304e-01
5.616758e-01
5.605607e-01
5.601659e-01
5.605607e-01
5.616758e-01
5.633304e-01
5.652995e-01
5.673761e-01
5.694064e-01
5.712964e-01
0.000000e+00
1.000000e+00
5.713698e-01
5.695614e-01
5.676186e-01
5.656316e-01
5.637474e-01
5.621641e-01
5.610971e-01
5.607193e-01
5.610971e-01
5.621641e-01
5.637474e-01
5.656316e-01
5.676186e-01
5.695614e-01
5.713698e-01
0.000000e+00
1.000000e+00
5.716442e-01
5.701401e-01
5.685243e-01
5.668717e-01
5.653047e-01
5.639878e-01
5.631005e-01
5.627862e-01
5.631005e-01
5.639878e-01
5.653047e-01
5.668717e-01
5.685243e-01
5.701401e-01
5.716442e-01
0.000000e+00
1.000000e+00
5.720878e-01
5.710758e-01
5.699886e-01
5.688767e-01
5.678223e-01
5.669363e-01
5.663392e-01
5.661278e-01
5.663392e-01
5.669363e-01
5.678223e-01
5.688767e-01
5.699886e-01
5.710758e-01
5.720878e-01
0.000000e+00
1.000000e+00
5.726634e-01
5.722901e-01
5.718889e-01
5.714787e-01
5.710897e-01
5.707628e-01
5.705425e-01
5.704645e-01
5.705425e-01
5.707628e-01
5.710897e-01
5.714787e-01
5.718889e-01
5.722901e-01
5.726634e-01
0.000000e+00
1.000000e+00
5.733329e-01
5.737023e-01
5.740991e-01
5.745049e-01
5.748897e-01
5.752130e-01
5.754309e-01
5.755081e-01
5.754309e-01
5.752130e-01
5.748897e-01
5.745049e-01
5.740991e-01
5.737023e-01
5.733329e-01
0.000000e+00
1.000000e+00
5.810680e-01
5.900180e-01
5.996333e-01
6.094671e-01
6.187921e-01
6.266281e-01
6.319085e-01
6.337786e-01
6.319085e-01
6.266281e-01
6.187921e-01
6.094671e-01
5.996333e-01
5.900180e-01
5.810680e-01
0.000000e+00
1.000000e+00
5.802448e-01
5.882817e-01
5.969160e-01
6.057465e-01
6.141200e-01
6.211566e-01
6.258982e-01
6.275775e-01
6.258982e-01
6.211566e-01
6.141200e-01
6.057465e-01
5.969160e-01
5.882817e-01
5.802448e-01
0.000000e+00
1.000000e+00
5.792989e-01
5.862864e-01
5.937934e-01
6.014709e-01
6.087512e-01
6.148690e-01
6.189915e-01
6.204515e-01
6.189915e-01
6.148690e-01
6.087512e-01
6.014709e-01
5.937934e-01
5.862864e-01
5.792989e-01
0.000000e+00
1.000000e+00
5.782542e-01
5.840829e-01
5.903449e-01
5.967491e-01
6.028220e-01
6.079252e-01
6.113640e-01
6.125819e-01
6.113640e-01
6.079252e-01
6.028220e-01
5.967491e-01
5.903449e-01
5.840829e-01
5.782542e-01
0.000000e+00
1.000000e+00
5.771471e-01
5.817477e-01
5.866902e-01
5.917450e-01
5.965382e-01
6.005661e-01
6.032804e-01
6.042416e-01
6.032804e-01
6.005661e-01
5.965382e-01
5.917450e-01
5.866902e-01
5.817477e-01
5.771471e-01
0.000000e+00
1.000000e+00
5.760250e-01
5.793807e-01
5.829859e-01
5.866730e-01
5.901693e-01
5.931074e-01
5.950872e-01
5.957883e-01
5.950872e-01
5.931074e-01
5.901693e-01
5.866730e-01
5.829859e-01
5.793807e-01
5.760250e-01
0.000000e+00
1.000000e+00
5.749434e-01
5.770993e-01
5.794155e-01
5.817842e-01
5.840304e-01
5.859180e-01
5.871899e-01
5.876404e-01
5.871899e-01
5.859180e-01
5.840304e-01
5.817842e-01
5.794155e-01
5.770993e-01
5.749434e-01
0.000000e+00
1.000000e+00
5.739608e-01
5.750267e-01
5.761718e-01
5.773429e-01
5.784534e-01
5.793866e-01
5.800155e-01
5.802382e-01
5.800155e-01
5.793866e-01
5.784534e-01
5.773429e-01
5.761718e-01
5.750267e-01
5.739608e-01
0.000000e+00
1.000000e+00
5.731321e-01
5.732786e-01
5.734360e-01
5.735970e-01
5.737497e-01
5.738779e-01
5.739644e-01
5.739950e-01
5.739644e-01
5.738779e-01
5.737497e-01
5.735970e-01
5.734360e-01
5.732786e-01
5.731321e-01
0.000000e+00
1.000000e+00
5.725018e-01
5.719492e-01
5.713554e-01
5.707482e-01
5.701724e-01
5.696885e-01
5.693624e-01
5.692470e-01
5.693624e-01
5.696885e-01
5.701724e-01
5.707482e-01
5.713554e-01
5.719492e-01
5.725018e-01
0.000000e+00
1.000000e+00
5.720990e-01
5.710996e-01
5.700258e-01
5.689276e-01
5.678863e-01
5.670112e-01
5.664216e-01
5.662127e-01
5.664216e-01
5.670112e-01
5.678863e-01
5.689276e-01
5.700258e-01
5.710996e-01
5.720990e-01
0.000000e+00
1.000000e+00
5.719344e-01
5.707522e-01
5.694822e-01
5.681833e-01
5.669516e-01
5.659166e-01
5.652192e-01
5.649722e-01
5.652192e-01
5.659166e-01
5.669516e-01
5.681833e-01
5.694822e-01
5.707522e-01
5.719344e-01
0.000000e+00
1.000000e+00
5.720001e-01
5.708908e-01
5.696992e-01
5.684804e-01
5.673247e-01
5.663535e-01
5.656991e-01
5.654673e-01
5.656991e-01
5.663535e-01
5.673247e-01
5.684804e-01
5.696992e-01
5.708908e-01
5.720001e-01
0.000000e+00
1.000000e+00
5.722731e-01
5.714667e-01
5.706004e-01
5.697143e-01
5.688742e-01
5.681681e-01
5.676924e-01
5.675239e-01
5.676924e-01
5.681681e-01
5.688742e-01
5.697143e-01
5.706004e-01
5.714667e-01
5.722731e-01
0.000000e+00
1.000000e+00
5.727194e-01
5.724081e-01
5.720736e-01
5.717316e-01
5.714072e-01
5.711347e-01
5.709510e-01
5.708860e-01
5.709510e-01
5.711347e-01
5.714072e-01
5.717316e-01
5.720736e-01
5.724081e-01
5.727194e-01
0.000000e+00
1.000000e+00
5.732994e-01
5.736315e-01
5.739882e-01
5.743531e-01
5.746991e-01
5.749898e-01
5.751858e-01
5.752551e-01
5.751858e-01
5.749898e-01
5.746991e-01
5.743531e-01
5.739882e-01
5.736315e-01
5.732994e-01
0.000000e+00
1.000000e+00
5.739725e-01
5.750513e-01
5.762104e-01
5.773957e-01
5.785197e-01
5.794643e-01
5.801008e-01
5.803262e-01
5.801008e-01
5.794643e-01
5.785197e-01
5.773957e-01
5.762104e-01
5.750513e-01
5.739725e-01
0.000000e+00
1.000000e+00
5.816206e-01
5.911837e-01
6.014576e-01
6.119650e-01
6.219286e-01
6.303014e-01
6.359434e-01
6.379416e-01
6.359434e-01
6.303014e-01
6.219286e-01
6.119650e-01
6.014576e-01
5.911837e-01
5.816206e-01
0.000000e+00
1.000000e+00
5.808494e-01
5.895569e-01
5.989117e-01
6.084790e-01
6.175513e-01
6.251750e-01
6.303123e-01
6.321317e-01
6.303123e-01
6.251750e-01
6.175513e-01
6.084790e-01
5.989117e-01
5.895569e-01
5.808494e-01
0.000000e+00
1.000000e+00
5.799421e-01
5.876432e-01
5.959167e-01
6.043783e-01
6.124020e-01
6.191445e-01
6.236880e-01
6.252971e-01
6.236880e-01
6.191445e-01
6.124020e-01
6.043783e-01
5.959167e-01
5.876432e-01
5.799421e-01
0.000000e+00
1.000000e+00
5.789209e-01
5.854891e-01
5.925455e-01
5.997623e-01
6.066057e-01
6.123564e-01
6.162315e-01
6.176039e-01
6.162315e-01
6.123564e-01
6.066057e-01
5.997623e-01
5.925455e-01
5.854891e-01
5.789209e-01
0.000000e+00
1.000000e+00
5.778213e-01
5.831697e-01
5.889156e-01
5.947922e-01
6.003646e-01
6.050473e-01
6.082027e-01
6.093203e-01
6.082027e-01
6.050473e-01
6.003646e-01
5.947922e-01
5.889156e-01
5.831697e-01
5.778213e-01
0.000000e+00
1.000000e+00
5.766919e-01
5.807874e-01
5.851873e-01
5.896873e-01
5.939543e-01
5.975401e-01
5.999563e-01
6.008121e-01
5.999563e-01
5.975401e-01
5.939543e-01
5.896873e-01
5.851873e-01
5.807874e-01
5.766919e-01
0.000000e+00
1.000000e+00
5.755911e-01
5.784655e-01
5.815535e-01
5.847117e-01
5.877064e-01
5.902230e-01
5.919189e-01
5.925195e-01
5.919189e-01
5.902230e-01
5.877064e-01
5.847117e-01
5.815535e-01
5.784655e-01
5.755911e-01
0.000000e+00
1.000000e+00
5.745817e-01
5.763363e-01
5.782213e-01
5.801492e-01
5.819773e-01
5.835135e-01
5.845486e-01
5.849153e-01
5.845486e-01
5.835135e-01
5.819773e-01
5.801492e-01
5.782213e-01
5.763363e-01
5.745817e-01
0.000000e+00
1.000000e+00
5.737235e-01
5.745261e-01
5.753884e-01
5.762703e-01
5.771065e-01
5.778092e-01
5.782828e-01
5.784505e-01
5.782828e-01
5.778092e-01
5.771065e-01
5.762703e-01
5.753884e-01
5.745261e-01
5.737235e-01
0.000000e+00
1.000000e+00
5.730659e-01
5.731391e-01
5.732177e-01
5.732980e-01
5.733742e-01
5.734383e-01
5.734814e-01
5.734967e-01
5.734814e-01
5.734383e-01
5.733742e-01
5.732980e-01
5.732177e-01
5.731391e-01
5.730659e-01
0.000000e+00
1.000000e+00
5.726415e-01
5.722438e-01
5.718166e-01
5.713796e-01
5.709653e-01
5.706171e-01
5.703825e-01
5.702994e-01
5.703825e-01
5.706171e-01
5.709653e-01
5.713796e-01
5.718166e-01
5.722438e-01
5.726415e-01
0.000000e+00
1.000000e+00
5.724627e-01
5.718666e-01
5.712263e-01
5.705713e-01
5.699503e-01
5.694284e-01
5.690767e-01
5.689522e-01
5.690767e-01
5.694284e-01
5.699503e-01
5.705713e-01
5.712263e-01
5.718666e-01
5.724627e-01
0.000000e+00
1.000000e+00
5.725218e-01
5.719913e-01
5.714214e-01
5.708385e-01
5.702858e-01
5.698213e-01
5.695083e-01
5.693975e-01
5.695083e-01
5.698213e-01
5.702858e-01
5.708385e-01
5.714214e-01
5.719913e-01
5.725218e-01
0.000000e+00
1.000000e+00
5.727943e-01
5.725661e-01
5.723210e-01
5.720703e-01
5.718326e-01
5.716328e-01
5.714982e-01
5.714505e-01
5.714982e-01
5.716328e-01
5.718326e-01
5.720703e-01
5.723210e-01
5.725661e-01
5.727943e-01
0.000000e+00
1.000000e+00
5.732441e-01
5.735148e-01
5.738056e-01
5.741031e-01
5.743851e-01
5.746222e-01
5.747819e-01
5.748385e-01
5.747819e-01
5.746222e-01
5.743851e-01
5.741031e-01
5.738056e-01
5.735148e-01
5.732441e-01
0.000000e+00
1.000000e+00
5.738289e-01
5.747485e-01
5.757364e-01
5.767468e-01
5.777048e-01
5.785099e-01
5.790525e-01
5.792446e-01
5.790525e-01
5.785099e-01
5.777048e-01
5.767468e-01
5.757364e-01
5.747485e-01
5.738289e-01
0.000000e+00
1.000000e+00
5.745063e-01
5.761773e-01
5.779725e-01
5.798085e-01
5.815495e-01
5.830125e-01
5.839984e-01
5.843475e-01
5.839984e-01
5.830125e-01
5.815495e-01
5.798085e-01
5.779725e-01
5.761773e-01
5.745063e-01
0.000000e+00
1.000000e+00
5.819929e-01
5.919690e-01
6.026867e-01
6.136479e-01
6.240419e-01
6.327763e-01
6.386620e-01
6.407465e-01
6.386620e-01
6.327763e-01
6.240419e-01
6.136479e-01
6.026867e-01
5.919690e-01
5.819929e-01
0.000000e+00
1.000000e+00
5.812719e-01
5.904482e-01
6.003066e-01
6.103891e-01
6.199498e-01
6.279839e-01
6.333977e-01
6.353151e-01
6.333977e-01
6.279839e-01
6.199498e-01
6.103891e-01
6.003066e-01
5.904482e-01
5.812719e-01
0.000000e+00
1.000000e+00
5.804032e-01
5.886158e-01
5.974388e-01
6.064624e-01
6.150190e-01
6.222094e-01
6.270546e-01
6.287706e-01
6.270546e-01
6.222094e-01
6.150190e-01
6.064624e-01
5.974388e-01
5.886158e-01
5.804032e-01
0.000000e+00
1.000000e+00
5.794065e-01
5.865135e-01
5.941488e-01
6.019575e-01
6.093622e-01
6.155846e-01
6.197776e-01
6.212626e-01
6.197776e-01
6.155846e-01
6.093622e-01
6.019575e-01
5.941488e-01
5.865135e-01
5.794065e-01
0.000000e+00
1.000000e+00
5.783167e-01
5.842146e-01
5.905510e-01
5.970313e-01
6.031763e-01
6.083402e-01
6.118198e-01
6.130522e-01
6.118198e-01
6.083402e-01
6.031763e-01
5.970313e-01
5.905510e-01
5.842146e-01
5.783167e-01
0.000000e+00
1.000000e+00
5.771829e-01
5.818231e-01
5.868082e-01
5.919066e-01
5.967411e-01
6.008038e-01
6.035414e-01
6.045109e-01
6.035414e-01
6.008038e-01
5.967411e-01
5.919066e-01
5.868082e-01
5.818231e-01
5.771829e-01
0.000000e+00
1.000000e+00
5.760661e-01
5.794675e-01
5.831217e-01
5.868589e-01
5.904027e-01
5.933807e-01
5.953874e-01
5.960981e-01
5.953874e-01
5.933807e-01
5.904027e-01
5.868589e-01
5.831217e-01
5.794675e-01
5.760661e-01
0.000000e+00
1.000000e+00
5.750333e-01
5.772889e-01
5.797121e-01
5.821904e-01
5.845404e-01
5.865153e-01
5.878460e-01
5.883173e-01
5.878460e-01
5.865153e-01
5.845404e-01
5.821904e-01
5.797121e-01
5.772889e-01
5.750333e-01
0.000000e+00
1.000000e+00
5.741490e-01
5.754236e-01
5.767930e-01
5.781935e-01
5.795215e-01
5.806374e-01
5.813894e-01
5.816558e-01
5.813894e-01
5.806374e-01
5.795215e-01
5.781935e-01
5.767930e-01
5.754236e-01
5.741490e-01
0.000000e+00
1.000000e+00
5.734673e-01
5.739857e-01
5.745426e-01
5.751121e-01
5.756522e-01
5.761060e-01
5.764119e-01
5.765202e-01
5.764119e-01
5.761060e-01
5.756522e-01
5.751121e-01
5.745426e-01
5.739857e-01
5.734673e-01
0.000000e+00
1.000000e+00
5.730242e-01
5.730511e-01
5.730800e-01
5.731095e-01
5.731375e-01
5.731611e-01
5.731769e-01
5.731826e-01
5.731769e-01
5.731611e-01
5.731375e-01
5.731095e-01
5.730800e-01
5.730511e-01
5.730242e-01
0.000000e+00
1.000000e+00
5.728341e-01
5.726501e-01
5.724524e-01
5.722502e-01
5.720585e-01
5.718974e-01
5.717888e-01
5.717504e-01
5.717888e-01
5.718974e-01
5.720585e-01
5.722502e-01
5.724524e-01
5.726501e-01
5.728341e-01
0.000000e+00
1.000000e+00
5.728894e-01
5.727666e-01
5.726347e-01
5.724999e-01
5.723720e-01
5.722645e-01
5.721921e-01
5.721664e-01
5.721921e-01
5.722645e-01
5.723720e-01
5.724999e-01
5.726347e-01
5.727666e-01
5.728894e-01
0.000000e+00
1.000000e+00
5.731640e-01
5.733460e-01
5.735415e-01
5.737414e-01
5.739310e-01
5.740903e-01
5.741976e-01
5.742356e-01
5.741976e-01
5.740903e-01
5.739310e-01
5.737414e-01
5.735415e-01
5.733460e-01
5.731640e-01
0.000000e+00
1.000000e+00
5.736198e-01
5.743073e-01
5.750459e-01
5.758013e-01
5.765177e-01
5.771196e-01
5.775252e-01
5.776689e-01
5.775252e-01
5.771196e-01
5.765177e-01
5.758013e-01
5.750459e-01
5.743073e-01
5.736198e-01
0.000000e+00
1.000000e+00
5.742122e-01
5.755569e-01
5.770015e-01
5.784790e-01
5.798800e-01
5.810573e-01
5.818506e-01
5.821316e-01
5.818506e-01
5.810573e-01
5.798800e-01
5.784790e-01
5.770015e-01
5.755569e-01
5.742122e-01
0.000000e+00
1.000000e+00
5.748965e-01
5.770004e-01
5.792606e-01
5.815722e-01
5.837642e-01
5.856061e-01
5.868474e-01
5.872870e-01
5.868474e-01
5.856061e-01
5.837642e-01
5.815722e-01
5.792606e-01
5.770004e-01
5.748965e-01
0.000000e+00
1.000000e+00
5.821538e-01
5.923085e-01
6.032179e-01
6.143753e-01
6.249553e-01
6.338460e-01
6.398370e-01
6.419588e-01
6.398370e-01
6.338460e-01
6.249553e-01
6.143753e-01
6.032179e-01
5.923085e-01
5.821538e-01
0.000000e+00
1.000000e+00
5.814768e-01
5.908804e-01
6.009830e-01
6.113151e-01
6.211126e-01
6.293458e-01
6.348937e-01
6.368586e-01
6.348937e-01
6.293458e-01
6.211126e-01
6.113151e-01
6.009830e-01
5.908804e-01
5.814768e-01
0.000000e+00
1.000000e+00
5.806421e-01
5.891198e-01
5.982276e-01
6.075424e-01
6.163751e-01
6.237976e-01
6.287992e-01
6.305706e-01
6.287992e-01
6.237976e-01
6.163751e-01
6.075424e-01
5.982276e-01
5.891198e-01
5.806421e-01
0.000000e+00
1.000000e+00
5.796675e-01
5.870640e-01
5.950103e-01
6.031371e-01
6.108434e-01
6.173193e-01
6.216830e-01
6.232285e-01
6.216830e-01
6.173193e-01
6.108434e-01
6.031371e-01
5.950103e-01
5.870640e-01
5.796675e-01
0.000000e+00
1.000000e+00
5.785866e-01
5.847841e-01
5.914421e-01
5.982515e-01
6.047085e-01
6.101346e-01
6.137909e-01
6.150859e-01
6.137909e-01
6.101346e-01
6.047085e-01
5.982515e-01
5.914421e-01
5.847841e-01
5.785866e-01
0.000000e+00
1.000000e+00
5.774493e-01
5.823851e-01
5.876877e-01
5.931109e-01
5.982534e-01
6.025748e-01
6.054868e-01
6.065181e-01
6.054868e-01
6.025748e-01
5.982534e-01
5.931109e-01
5.876877e-01
5.823851e-01
5.774493e-01
0.000000e+00
1.000000e+00
5.763188e-01
5.800004e-01
5.839557e-01
5.880009e-01
5.918367e-01
5.950601e-01
5.972322e-01
5.980014e-01
5.972322e-01
5.950601e-01
5.918367e-01
5.880009e-01
5.839557e-01
5.800004e-01
5.763188e-01
0.000000e+00
1.000000e+00
5.752656e-01
5.777789e-01
5.804790e-01
5.832405e-01
5.858591e-01
5.880595e-01
5.895423e-01
5.900675e-01
5.895423e-01
5.880595e-01
5.858591e-01
5.832405e-01
5.804790e-01
5.777789e-01
5.752656e-01
0.000000e+00
1.000000e+00
5.743590e-01
5.758665e-01
5.774861e-01
5.791425e-01
5.807132e-01
5.820331e-01
5.829226e-01
5.832376e-01
5.829226e-01
5.820331e-01
5.807132e-01
5.791425e-01
5.774861e-01
5.758665e-01
5.743590e-01
0.000000e+00
1.000000e+00
5.736573e-01
5.743864e-01
5.751697e-01
5.759709e-01
5.767305e-01
5.773689e-01
5.777991e-01
5.779514e-01
5.777991e-01
5.773689e-01
5.767305e-01
5.759709e-01
5.751697e-01
5.743864e-01
5.736573e-01
0.000000e+00
1.000000e+00
5.731999e-01
5.734217e-01
5.736600e-01
5.739037e-01
5.741348e-01
5.743290e-01
5.744598e-01
5.745062e-01
5.744598e-01
5.743290e-01
5.741348e-01
5.739037e-01
5.736600e-01
5.734217e-01
5.731999e-01
0.000000e+00
1.000000e+00
5.730030e-01
5.730063e-01
5.730098e-01
5.730134e-01
5.730168e-01
5.730197e-01
5.730216e-01
5.730223e-01
5.730216e-01
5.730197e-01
5.730168e-01
5.730134e-01
5.730098e-01
5.730063e-01
5.730030e-01
0.000000e+00
1.000000e+00
5.730588e-01
5.731239e-01
5.731939e-01
5.732655e-01
5.733334e-01
5.733905e-01
5.734289e-01
5.734426e-01
5.734289e-01
5.733905e-01
5.733334e-01
5.732655e-01
5.731939e-01
5.731239e-01
5.730588e-01
0.000000e+00
1.000000e+00
5.733401e-01
5.737173e-01
5.741225e-01
5.745370e-01
5.749300e-01
5.752603e-01
5.754829e-01
5.755617e-01
5.754829e-01
5.752603e-01
5.749300e-01
5.745370e-01
5.741225e-01
5.737173e-01
5.733401e-01
0.000000e+00
1.000000e+00
5.738064e-01
5.747009e-01
5.756619e-01
5.766447e-01
5.775767e-01
5.783599e-01
5.788876e-01
5.790745e-01
5.788876e-01
5.783599e-01
5.775767e-01
5.766447e-01
5.756619e-01
5.747009e-01
5.738064e-01
0.000000e+00
1.000000e+00
5.744110e-01
5.759762e-01
5.776578e-01
5.793776e-01
5.810085e-01
5.823789e-01
5.833023e-01
5.836294e-01
5.833023e-01
5.823789e-01
5.810085e-01
5.793776e-01
5.776578e-01
5.759762e-01
5.744110e-01
0.000000e+00
1.000000e+00
5.751073e-01
5.774449e-01
5.799563e-01
5.825248e-01
5.849603e-01
5.870070e-01
5.883862e-01
5.888746e-01
5.883862e-01
5.870070e-01
5.849603e-01
5.825248e-01
5.799563e-01
5.774449e-01
5.751073e-01
0.000000e+00
1.000000e+00
5.820815e-01
5.921559e-01
6.029792e-01
6.140484e-01
6.245448e-01
6.333653e-01
6.393090e-01
6.414140e-01
6.393090e-01
6.333653e-01
6.245448e-01
6.140484e-01
6.029792e-01
5.921559e-01
5.820815e-01
0.000000e+00
1.000000e+00
5.814377e-01
5.907980e-01
6.008540e-01
6.111385e-01
6.208908e-01
6.290860e-01
6.346083e-01
6.365642e-01
6.346083e-01
6.290860e-01
6.208908e-01
6.111385e-01
6.008540e-01
5.907980e-01
5.814377e-01
0.000000e+00
1.000000e+00
5.806285e-01
5.890910e-01
5.981825e-01
6.074806e-01
6.162976e-01
6.237068e-01
6.286994e-01
6.304677e-01
6.286994e-01
6.237068e-01
6.162976e-01
6.074806e-01
5.981825e-01
5.890910e-01
5.806285e-01
0.000000e+00
1.000000e+00
5.796696e-01
5.870684e-01
5.950172e-01
6.031466e-01
6.108553e-01
6.173333e-01
6.216984e-01
6.232444e-01
6.216984e-01
6.173333e-01
6.108553e-01
6.031466e-01
5.950172e-01
5.870684e-01
5.796696e-01
0.000000e+00
1.000000e+00
5.785940e-01
5.847996e-01
5.914664e-01
5.982848e-01
6.047503e-01
6.101835e-01
6.138446e-01
6.151413e-01
6.138446e-01
6.101835e-01
6.047503e-01
5.982848e-01
5.914664e-01
5.847996e-01
5.785940e-01
0.000000e+00
1.000000e+00
5.774519e-01
5.823904e-01
5.876961e-01
5.931224e-01
5.982678e-01
6.025917e-01
6.055054e-01
6.065373e-01
6.055054e-01
6.025917e-01
5.982678e-01
5.931224e-01
5.876961e-01
5.823904e-01
5.774519e-01
0.000000e+00
1.000000e+00
5.763085e-01
5.799787e-01
5.839217e-01
5.879543e-01
5.917782e-01
5.949916e-01
5.971569e-01
5.979238e-01
5.971569e-01
5.949916e-01
5.917782e-01
5.879543e-01
5.839217e-01
5.799787e-01
5.763085e-01
0.000000e+00
1.000000e+00
5.752377e-01
5.777200e-01
5.803869e-01
5.831143e-01
5.857006e-01
5.878740e-01
5.893385e-01
5.898572e-01
5.893385e-01
5.878740e-01
5.857006e-01
5.831143e-01
5.803869e-01
5.777200e-01
5.752377e-01
0.000000e+00
1.000000e+00
5.743128e-01
5.757691e-01
5.773336e-01
5.789338e-01
5.804511e-01
5.817261e-01
5.825853e-01
5.828896e-01
5.825853e-01
5.817261e-01
5.804511e-01
5.789338e-01
5.773336e-01
5.757691e-01
5.743128e-01
0.000000e+00
1.000000e+00
5.735960e-01
5.742573e-01
5.749676e-01
5.756941e-01
5.763830e-01
5.769619e-01
5.773520e-01
5.774901e-01
5.773520e-01
5.769619e-01
5.763830e-01
5.756941e-01
5.749676e-01
5.742573e-01
5.735960e-01
0.000000e+00
1.000000e+00
5.731299e-01
5.732740e-01
5.734287e-01
5.735870e-01
5.737371e-01
5.738633e-01
5.739483e-01
5.739784e-01
5.739483e-01
5.738633e-01
5.737371e-01
5.735870e-01
5.734287e-01
5.732740e-01
5.731299e-01
0.000000e+00
1.000000e+00
5.729317e-01
5.728560e-01
5.727746e-01
5.726914e-01
5.726125e-01
5.725462e-01
5.725015e-01
5.724857e-01
5.725015e-01
5.725462e-01
5.726125e-01
5.726914e-01
5.727746e-01
5.728560e-01
5.729317e-01
0.000000e+00
1.000000e+00
5.729939e-01
5.729871e-01
5.729799e-01
5.729724e-01
5.729654e-01
5.729594e-01
5.729554e-01
5.729540e-01
5.729554e-01
5.729594e-01
5.729654e-01
5.729724e-01
5.729799e-01
5.729871e-01
5.729939e-01
0.000000e+00
1.000000e+00
5.732878e-01
5.736070e-01
5.739500e-01
5.743007e-01
5.746333e-01
5.749128e-01
5.751012e-01
5.751679e-01
5.751012e-01
5.749128e-01
5.746333e-01
5.743007e-01
5.739500e-01
5.736070e-01
5.732878e-01
0.000000e+00
1.000000e+00
5.737708e-01
5.746259e-01
5.755445e-01
5.764840e-01
5.773748e-01
5.781235e-01
5.786279e-01
5.788066e-01
5.786279e-01
5.781235e-01
5.773748e-01
5.764840e-01
5.755445e-01
5.746259e-01
5.737708e-01
0.000000e+00
1.000000e+00
5.743941e-01
5.759406e-01
5.776021e-01
5.793013e-01
5.809126e-01
5.822666e-01
5.831790e-01
5.835022e-01
5.831790e-01
5.822666e-01
5.809126e-01
5.793013e-01
5.776021e-01
5.759406e-01
5.743941e-01
0.000000e+00
1.000000e+00
5.751091e-01
5.774488e-01
5.799624e-01
5.825332e-01
5.849709e-01
5.870194e-01
5.883997e-01
5.888886e-01
5.883997e-01
5.870194e-01
5.849709e-01
5.825332e-01
5.799624e-01
5.774488e-01
5.751091e-01
0.000000e+00
1.000000e+00
5.817674e-01
5.914934e-01
6.019424e-01
6.126288e-01
6.227621e-01
6.312776e-01
6.370157e-01
6.390479e-01
6.370157e-01
6.312776e-01
6.227621e-01
6.126288e-01
6.019424e-01
5.914934e-01
5.817674e-01
0.000000e+00
1.000000e+00
5.811428e-01
5.901759e-01
5.998804e-01
6.098054e-01
6.192168e-01
6.271256e-01
6.324549e-01
6.343424e-01
6.324549e-01
6.271256e-01
6.192168e-01
6.098054e-01
5.998804e-01
5.901759e-01
5.811428e-01
0.000000e+00
1.000000e+00
5.803470e-01
5.884973e-01
5.972534e-01
6.062085e-01
6.147002e-01
6.218361e-01
6.266445e-01
6.283475e-01
6.266445e-01
6.218361e-01
6.147002e-01
6.062085e-01
5.972534e-01
5.884973e-01
5.803470e-01
0.000000e+00
1.000000e+00
5.793947e-01
5.864886e-01
5.941098e-01
6.019042e-01
6.092952e-01
6.155062e-01
6.196914e-01
6.211737e-01
6.196914e-01
6.155062e-01
6.092952e-01
6.019042e-01
5.941098e-01
5.864886e-01
5.793947e-01
0.000000e+00
1.000000e+00
5.783182e-01
5.842179e-01
5.905561e-01
5.970383e-01
6.031851e-01
6.083504e-01
6.118311e-01
6.130638e-01
6.118311e-01
6.083504e-01
6.031851e-01
5.970383e-01
5.905561e-01
5.842179e-01
5.783182e-01
0.000000e+00
1.000000e+00
5.771683e-01
5.817923e-01
5.867600e-01
5.918407e-01
5.966584e-01
6.007069e-01
6.034349e-01
6.044011e-01
6.034349e-01
6.007069e-01
5.966584e-01
5.918407e-01
5.867600e-01
5.817923e-01
5.771683e-01
0.000000e+00
1.000000e+00
5.760120e-01
5.793533e-01
5.829429e-01
5.866141e-01
5.900954e-01
5.930208e-01
5.949921e-01
5.956902e-01
5.949921e-01
5.930208e-01
5.900954e-01
5.866141e-01
5.829429e-01
5.793533e-01
5.760120e-01
0.000000e+00
1.000000e+00
5.749260e-01
5.770626e-01
5.793580e-01
5.817055e-01
5.839316e-01
5.858023e-01
5.870628e-01
5.875092e-01
5.870628e-01
5.858023e-01
5.839316e-01
5.817055e-01
5.793580e-01
5.770626e-01
5.749260e-01
0.000000e+00
1.000000e+00
5.739871e-01
5.750820e-01
5.762584e-01
5.774615e-01
5.786023e-01
5.795610e-01
5.802070e-01
5.804358e-01
5.802070e-01
5.795610e-01
5.786023e-01
5.774615e-01
5.762584e-01
5.750820e-01
5.739871e-01
0.000000e+00
1.000000e+00
5.732607e-01
5.735498e-01
5.738605e-01
5.741782e-01
5.744795e-01
5.747327e-01
5.749033e-01
5.749637e-01
5.749033e-01
5.747327e-01
5.744795e-01
5.741782e-01
5.738605e-01
5.735498e-01
5.732607e-01
0.000000e+00
1.000000e+00
5.727917e-01
5.725606e-01
5.723123e-01
5.720584e-01
5.718176e-01
5.716152e-01
5.714789e-01
5.714306e-01
5.714789e-01
5.716152e-01
5.718176e-01
5.720584e-01
5.723123e-01
5.725606e-01
5.727917e-01
0.000000e+00
1.000000e+00
5.725986e-01
5.721534e-01
5.716750e-01
5.711857e-01
5.707218e-01
5.703320e-01
5.700693e-01
5.699762e-01
5.700693e-01
5.703320e-01
5.707218e-01
5.711857e-01
5.716750e-01
5.721534e-01
5.725986e-01
0.000000e+00
1.000000e+00
5.726735e-01
5.723114e-01
5.719223e-01
5.715244e-01
5.711470e-01
5.708299e-01
5.706162e-01
5.705406e-01
5.706162e-01
5.708299e-01
5.711470e-01
5.715244e-01
5.719223e-01
5.723114e-01
5.726735e-01
0.000000e+00
1.000000e+00
5.729865e-01
5.729715e-01
5.729553e-01
5.729388e-01
5.729232e-01
5.729100e-01
5.729012e-01
5.728980e-01
5.729012e-01
5.729100e-01
5.729232e-01
5.729388e-01
5.729553e-01
5.729715e-01
5.729865e-01
0.000000e+00
1.000000e+00
5.734930e-01
5.740398e-01
5.746273e-01
5.752281e-01
5.757978e-01
5.762766e-01
5.765992e-01
5.767135e-01
5.765992e-01
5.762766e-01
5.757978e-01
5.752281e-01
5.746273e-01
5.740398e-01
5.734930e-01
0.000000e+00
1.000000e+00
5.741421e-01
5.754090e-01
5.767701e-01
5.781622e-01
5.794822e-01
5.805914e-01
5.813389e-01
5.816036e-01
5.813389e-01
5.805914e-01
5.794822e-01
5.781622e-01
5.767701e-01
5.754090e-01
5.741421e-01
0.000000e+00
1.000000e+00
5.748835e-01
5.769729e-01
5.792176e-01
5.815134e-01
5.836903e-01
5.855197e-01
5.867524e-01
5.871890e-01
5.867524e-01
5.855197e-01
5.836903e-01
5.815134e-01
5.792176e-01
5.769729e-01
5.748835e-01
0.000000e+00
1.000000e+00
5.812193e-01
5.903373e-01
6.001330e-01
6.101513e-01
6.196512e-01
6.276343e-01
6.330137e-01
6.349189e-01
6.330137e-01
6.276343e-01
6.196512e-01
6.101513e-01
6.001330e-01
5.903373e-01
5.812193e-01
0.000000e+00
1.000000e+00
5.805982e-01
5.890270e-01
5.980824e-01
6.073436e-01
6.161255e-01
6.235053e-01
6.284781e-01
6.302393e-01
6.284781e-01
6.235053e-01
6.161255e-01
6.073436e-01
5.980824e-01
5.890270e-01
5.805982e-01
0.000000e+00
1.000000e+00
5.798024e-01
5.873485e-01
5.954555e-01
6.037467e-01
6.116089e-01
6.182158e-01
6.226678e-01
6.242446e-01
6.226678e-01
6.182158e-01
6.116089e-01
6.037467e-01
5.954555e-01
5.873485e-01
5.798024e-01
0.000000e+00
1.000000e+00
5.788461e-01
5.853313e-01
5.922986e-01
5.994242e-01
6.061811e-01
6.118591e-01
6.156852e-01
6.170403e-01
6.156852e-01
6.118591e-01
6.061811e-01
5.994242e-01
5.922986e-01
5.853313e-01
5.788461e-01
0.000000e+00
1.000000e+00
5.777614e-01
5.830434e-01
5.887180e-01
5.945216e-01
6.000248e-01
6.046494e-01
6.077657e-01
6.088693e-01
6.077657e-01
6.046494e-01
6.000248e-01
5.945216e-01
5.887180e-01
5.830434e-01
5.777614e-01
0.000000e+00
1.000000e+00
5.766000e-01
5.805936e-01
5.848841e-01
5.892721e-01
5.934329e-01
5.969295e-01
5.992856e-01
6.001201e-01
5.992856e-01
5.969295e-01
5.934329e-01
5.892721e-01
5.848841e-01
5.805936e-01
5.766000e-01
0.000000e+00
1.000000e+00
5.754304e-01
5.781265e-01
5.810231e-01
5.839854e-01
5.867945e-01
5.891551e-01
5.907457e-01
5.913091e-01
5.907457e-01
5.891551e-01
5.867945e-01
5.839854e-01
5.810231e-01
5.781265e-01
5.754304e-01
0.000000e+00
1.000000e+00
5.743316e-01
5.758088e-01
5.773958e-01
5.790188e-01
5.805579e-01
5.818512e-01
5.827227e-01
5.830314e-01
5.827227e-01
5.818512e-01
5.805579e-01
5.790188e-01
5.773958e-01
5.758088e-01
5.743316e-01
0.000000e+00
1.000000e+00
5.733829e-01
5.738076e-01
5.742639e-01
5.747306e-01
5.751731e-01
5.755450e-01
5.757956e-01
5.758843e-01
5.757956e-01
5.755450e-01
5.751731e-01
5.747306e-01
5.742639e-01
5.738076e-01
5.733829e-01
0.000000e+00
1.000000e+00
5.726522e-01
5.722664e-01
5.718519e-01
5.714280e-01
5.710260e-01
5.706882e-01
5.704606e-01
5.703800e-01
5.704606e-01
5.706882e-01
5.710260e-01
5.714280e-01
5.718519e-01
5.722664e-01
5.726522e-01
0.000000e+00
1.000000e+00
5.721861e-01
5.712833e-01
5.703133e-01
5.693213e-01
5.683807e-01
5.675902e-01
5.670575e-01
5.668689e-01
5.670575e-01
5.675902e-01
5.683807e-01
5.693213e-01
5.703133e-01
5.712833e-01
5.721861e-01
0.000000e+00
1.000000e+00
5.720039e-01
5.708989e-01
5.697117e-01
5.684975e-01
5.673462e-01
5.663787e-01
5.657268e-01
5.654959e-01
5.657268e-01
5.663787e-01
5.673462e-01
5.684975e-01
5.697117e-01
5.708989e-01
5.720039e-01
0.000000e+00
1.000000e+00
5.720971e-01
5.710955e-01
5.700195e-01
5.689190e-01
5.678754e-01
5.669985e-01
5.664075e-01
5.661982e-01
5.664075e-01
5.669985e-01
5.678754e-01
5.689190e-01
5.700195e-01
5.710955e-01
5.720971e-01
0.000000e+00
1.000000e+00
5.724347e-01
5.718076e-01
5.711338e-01
5.704448e-01
5.697914e-01
5.692423e-01
5.688724e-01
5.687413e-01
5.688724e-01
5.692423e-01
5.697914e-01
5.704448e-01
5.711338e-01
5.718076e-01
5.724347e-01
0.000000e+00
1.000000e+00
5.729705e-01
5.729377e-01
5.729025e-01
5.728664e-01
5.728323e-01
5.728036e-01
5.727842e-01
5.727774e-01
5.727842e-01
5.728036e-01
5.728323e-01
5.728664e-01
5.729025e-01
5.729377e-01
5.729705e-01
0.000000e+00
1.000000e+00
5.736517e-01
5.743747e-01
5.751514e-01
5.759458e-01
5.766990e-01
5.773320e-01
5.777586e-01