<?xml version="1.0"?>
<VTKFile type="StructuredGrid" version="0.1">
  <StructuredGrid WholeExtent="0 16 0 16 0 16">
    <Piece Extent="0 16 0 16 0 16">
      <PointData Scalars="temperature" Vectors="velocity">
        <DataArray type="Float32" Name="temperature" format="ascii">
1.000000e+00
5.737371e-01
5.745548e-01
5.754333e-01
5.763317e-01
5.771837e-01
5.778996e-01
5.783820e-01
5.785529e-01
5.783820e-01
5.778996e-01
5.771837e-01
5.763317e-01
5.754333e-01
5.745548e-01
5.737371e-01
0.000000e+00
1.000000e+00
5.736498e-01
5.743708e-01
5.751452e-01
5.759373e-01
5.766884e-01
5.773196e-01
5.777449e-01
5.778955e-01
5.777449e-01
5.773196e-01
5.766884e-01
5.759373e-01
5.751452e-01
5.743708e-01
5.736498e-01
0.000000e+00
1.000000e+00
5.735517e-01
5.741638e-01
5.748214e-01
5.754939e-01
5.761316e-01
5.766675e-01
5.770286e-01
5.771565e-01
5.770286e-01
5.766675e-01
5.761316e-01
5.754939e-01
5.748214e-01
5.741638e-01
5.735517e-01
0.000000e+00
1.000000e+00
5.734454e-01
5.739394e-01
5.744702e-01
5.750131e-01
5.755278e-01
5.759604e-01
5.762518e-01
5.763551e-01
5.762518e-01
5.759604e-01
5.755278e-01
5.750131e-01
5.744702e-01
5.739394e-01
5.734454e-01
0.000000e+00
1.000000e+00
5.733344e-01
5.737053e-01
5.741038e-01
5.745113e-01
5.748977e-01
5.752225e-01
5.754413e-01
5.755188e-01
5.754413e-01
5.752225e-01
5.748977e-01
5.745113e-01
5.741038e-01
5.737053e-01
5.733344e-01
0.000000e+00
1.000000e+00
5.732233e-01
5.734711e-01
5.737372e-01
5.740094e-01
5.742675e-01
5.744844e-01
5.746305e-01
5.746823e-01
5.746305e-01
5.744844e-01
5.742675e-01
5.740094e-01
5.737372e-01
5.734711e-01
5.732233e-01
0.000000e+00
1.000000e+00
5.731175e-01
5.732478e-01
5.733878e-01
5.735310e-01
5.736667e-01
5.737808e-01
5.738577e-01
5.738849e-01
5.738577e-01
5.737808e-01
5.736667e-01
5.735310e-01
5.733878e-01
5.732478e-01
5.731175e-01
0.000000e+00
1.000000e+00
5.730222e-01
5.730469e-01
5.730734e-01
5.731005e-01
5.731262e-01
5.731478e-01
5.731623e-01
5.731675e-01
5.731623e-01
5.731478e-01
5.731262e-01
5.731005e-01
5.730734e-01
5.730469e-01
5.730222e-01
0.000000e+00
1.000000e+00
5.729426e-01
5.728789e-01
5.728104e-01
5.727404e-01
5.726740e-01
5.726183e-01
5.725807e-01
5.725674e-01
5.725807e-01
5.726183e-01
5.726740e-01
5.727404e-01
5.728104e-01
5.728789e-01
5.729426e-01
0.000000e+00
1.000000e+00
5.728825e-01
5.727521e-01
5.726121e-01
5.724689e-01
5.723330e-01
5.722189e-01
5.721420e-01
5.721148e-01
5.721420e-01
5.722189e-01
5.723330e-01
5.724689e-01
5.726121e-01
5.727521e-01
5.728825e-01
0.000000e+00
1.000000e+00
5.728446e-01
5.726721e-01
5.724868e-01
5.722974e-01
5.721177e-01
5.719667e-01
5.718650e-01
5.718289e-01
5.718650e-01
5.719667e-01
5.721177e-01
5.722974e-01
5.724868e-01
5.726721e-01
5.728446e-01
0.000000e+00
1.000000e+00
5.728297e-01
5.726407e-01
5.724376e-01
5.722300e-01
5.720331e-01
5.718676e-01
5.717561e-01
5.717166e-01
5.717561e-01
5.718676e-01
5.720331e-01
5.722300e-01
5.724376e-01
5.726407e-01
5.728297e-01
0.000000e+00
1.000000e+00
5.728370e-01
5.726561e-01
5.724619e-01
5.722632e-01
5.720748e-01
5.719164e-01
5.718097e-01
5.717719e-01
5.718097e-01
5.719164e-01
5.720748e-01
5.722632e-01
5.724619e-01
5.726561e-01
5.728370e-01
0.000000e+00
1.000000e+00
5.728644e-01
5.727140e-01
5.725524e-01
5.723872e-01
5.722305e-01
5.720988e-01
5.720101e-01
5.719786e-01
5.720101e-01
5.720988e-01
5.722305e-01
5.723872e-01
5.725524e-01
5.727140e-01
5.728644e-01
0.000000e+00
1.000000e+00
5.729088e-01
5.728076e-01
5.726989e-01
5.725877e-01
5.724822e-01
5.723936e-01
5.723339e-01
5.723128e-01
5.723339e-01
5.723936e-01
5.724822e-01
5.725877e-01
5.726989e-01
5.728076e-01
5.729088e-01
0.000000e+00
1.000000e+00
5.729664e-01
5.729290e-01
5.728889e-01
5.728479e-01
5.728090e-01
5.727763e-01
5.727543e-01
5.727465e-01
5.727543e-01
5.727763e-01
5.728090e-01
5.728479e-01
5.728889e-01
5.729290e-01
5.729664e-01
0.000000e+00
1.000000e+00
5.730333e-01
5.730702e-01
5.731099e-01
5.731505e-01
5.731890e-01
5.732213e-01
5.732431e-01
5.732508e-01
5.732431e-01
5.732213e-01
5.731890e-01
5.731505e-01
5.731099e-01
5.730702e-01
5.730333e-01
0.000000e+00
1.000000e+00
5.738068e-01
5.747018e-01
5.756633e-01
5.766467e-01
5.775792e-01
5.783628e-01
5.788909e-01
5.790779e-01
5.788909e-01
5.783628e-01
5.775792e-01
5.766467e-01
5.756633e-01
5.747018e-01
5.738068e-01
0.000000e+00
1.000000e+00
5.737245e-01
5.745282e-01
5.753916e-01
5.762747e-01
5.771120e-01
5.778157e-01
5.782898e-01
5.784578e-01
5.782898e-01
5.778157e-01
5.771120e-01
5.762747e-01
5.753916e-01
5.745282e-01
5.737245e-01
0.000000e+00
1.000000e+00
5.736299e-01
5.743287e-01
5.750793e-01
5.758471e-01
5.765751e-01
5.771869e-01
5.775992e-01
5.777452e-01
5.775992e-01
5.771869e-01
5.765751e-01
5.758471e-01
5.750793e-01
5.743287e-01
5.736299e-01
0.000000e+00
1.000000e+00
5.735254e-01
5.741083e-01
5.747345e-01
5.753749e-01
5.759822e-01
5.764925e-01
5.768364e-01
5.769582e-01
5.768364e-01
5.764925e-01
5.759822e-01
5.753749e-01
5.747345e-01
5.741083e-01
5.735254e-01
0.000000e+00
1.000000e+00
5.734147e-01
5.738748e-01
5.743690e-01
5.748745e-01
5.753538e-01
5.757566e-01
5.760280e-01
5.761242e-01
5.760280e-01
5.757566e-01
5.753538e-01
5.748745e-01
5.743690e-01
5.738748e-01
5.734147e-01
0.000000e+00
1.000000e+00
5.733025e-01
5.736381e-01
5.739986e-01
5.743673e-01
5.747169e-01
5.750107e-01
5.752087e-01
5.752788e-01
5.752087e-01
5.750107e-01
5.747169e-01
5.743673e-01
5.739986e-01
5.736381e-01
5.733025e-01
0.000000e+00
1.000000e+00
5.731944e-01
5.734099e-01
5.736416e-01
5.738784e-01
5.741031e-01
5.742918e-01
5.744190e-01
5.744641e-01
5.744190e-01
5.742918e-01
5.741031e-01
5.738784e-01
5.736416e-01
5.734099e-01
5.731944e-01
0.000000e+00
1.000000e+00
5.730961e-01
5.732027e-01
5.733172e-01
5.734343e-01
5.735454e-01
5.736387e-01
5.737016e-01
5.737238e-01
5.737016e-01
5.736387e-01
5.735454e-01
5.734343e-01
5.733172e-01
5.732027e-01
5.730961e-01
0.000000e+00
1.000000e+00
5.730132e-01
5.730279e-01
5.730436e-01
5.730597e-01
5.730750e-01
5.730878e-01
5.730965e-01
5.730995e-01
5.730965e-01
5.730878e-01
5.730750e-01
5.730597e-01
5.730436e-01
5.730279e-01
5.730132e-01
0.000000e+00
1.000000e+00
5.729502e-01
5.728949e-01
5.728356e-01
5.727748e-01
5.727172e-01
5.726689e-01
5.726363e-01
5.726247e-01
5.726363e-01
5.726689e-01
5.727172e-01
5.727748e-01
5.728356e-01
5.728949e-01
5.729502e-01
0.000000e+00
1.000000e+00
5.729099e-01
5.728100e-01
5.727026e-01
5.725928e-01
5.724886e-01
5.724011e-01
5.723422e-01
5.723213e-01
5.723422e-01
5.724011e-01
5.724886e-01
5.725928e-01
5.727026e-01
5.728100e-01
5.729099e-01
0.000000e+00
1.000000e+00
5.728935e-01
5.727752e-01
5.726482e-01
5.725183e-01
5.723952e-01
5.722917e-01
5.722219e-01
5.721972e-01
5.722219e-01
5.722917e-01
5.723952e-01
5.725183e-01
5.726482e-01
5.727752e-01
5.728935e-01
0.000000e+00
1.000000e+00
5.729000e-01
5.727891e-01
5.726699e-01
5.725480e-01
5.724325e-01
5.723354e-01
5.722699e-01
5.722467e-01
5.722699e-01
5.723354e-01
5.724325e-01
5.725480e-01
5.726699e-01
5.727891e-01
5.729000e-01
0.000000e+00
1.000000e+00
5.729273e-01
5.728467e-01
5.727600e-01
5.726714e-01
5.725874e-01
5.725168e-01
5.724692e-01
5.724524e-01
5.724692e-01
5.725168e-01
5.725874e-01
5.726714e-01
5.727600e-01
5.728467e-01
5.729273e-01
0.000000e+00
1.000000e+00
5.729720e-01
5.729408e-01
5.729074e-01
5.728732e-01
5.728407e-01
5.728135e-01
5.727951e-01
5.727886e-01
5.727951e-01
5.728135e-01
5.728407e-01
5.728732e-01
5.729074e-01
5.729408e-01
5.729720e-01
0.000000e+00
1.000000e+00
5.730299e-01
5.730632e-01
5.730988e-01
5.731353e-01
5.731699e-01
5.731990e-01
5.732186e-01
5.732255e-01
5.732186e-01
5.731990e-01
5.731699e-01
5.731353e-01
5.730988e-01
5.730632e-01
5.730299e-01
0.000000e+00
1.000000e+00
5.730973e-01
5.732051e-01
5.733210e-01
5.734396e-01
5.735520e-01
5.736464e-01
5.737101e-01
5.737326e-01
5.737101e-01
5.736464e-01
5.735520e-01
5.734396e-01
5.733210e-01
5.732051e-01
5.730973e-01
0.000000e+00
1.000000e+00
5.738621e-01
5.748184e-01
5.758458e-01
5.768965e-01
5.778929e-01
5.787302e-01
5.792944e-01
5.794942e-01
5.792944e-01
5.787302e-01
5.778929e-01
5.768965e-01
5.758458e-01
5.748184e-01
5.738621e-01
0.000000e+00
1.000000e+00
5.737849e-01
5.746557e-01
5.755912e-01
5.765479e-01
5.774551e-01
5.782175e-01
5.787312e-01
5.789132e-01
5.787312e-01
5.782175e-01
5.774551e-01
5.765479e-01
5.755912e-01
5.746557e-01
5.737849e-01
0.000000e+00
1.000000e+00
5.736942e-01
5.744643e-01
5.752917e-01
5.761378e-01
5.769402e-01
5.776145e-01
5.780688e-01
5.782297e-01
5.780688e-01
5.776145e-01
5.769402e-01
5.761378e-01
5.752917e-01
5.744644e-01
5.736942e-01
0.000000e+00
1.000000e+00
5.735921e-01
5.742489e-01
5.749546e-01
5.756763e-01
5.763606e-01
5.769357e-01
5.773232e-01
5.774604e-01
5.773232e-01
5.769357e-01
5.763606e-01
5.756763e-01
5.749546e-01
5.742489e-01
5.735921e-01
0.000000e+00
1.000000e+00
5.734821e-01
5.740170e-01
5.745916e-01
5.751792e-01
5.757365e-01
5.762047e-01
5.765203e-01
5.766320e-01
5.765203e-01
5.762047e-01
5.757365e-01
5.751792e-01
5.745916e-01
5.740170e-01
5.734821e-01
0.000000e+00
1.000000e+00
5.733692e-01
5.737788e-01
5.742187e-01
5.746687e-01
5.750954e-01
5.754540e-01
5.756956e-01
5.757812e-01
5.756956e-01
5.754540e-01
5.750954e-01
5.746687e-01
5.742187e-01
5.737788e-01
5.733692e-01
0.000000e+00
1.000000e+00
5.732591e-01
5.735466e-01
5.738554e-01
5.741712e-01
5.744707e-01
5.747223e-01
5.748919e-01
5.749520e-01
5.748919e-01
5.747223e-01
5.744707e-01
5.741712e-01
5.738554e-01
5.735466e-01
5.732591e-01
0.000000e+00
1.000000e+00
5.731582e-01
5.733336e-01
5.735221e-01
5.737149e-01
5.738977e-01
5.740514e-01
5.741549e-01
5.741915e-01
5.741549e-01
5.740514e-01
5.738977e-01
5.737149e-01
5.735221e-01
5.733336e-01
5.731582e-01
0.000000e+00
1.000000e+00
5.730724e-01
5.731526e-01
5.732389e-01
5.733270e-01
5.734107e-01
5.734809e-01
5.735283e-01
5.735451e-01
5.735283e-01
5.734809e-01
5.734107e-01
5.733270e-01
5.732389e-01
5.731526e-01
5.730724e-01
0.000000e+00
1.000000e+00
5.730066e-01
5.730139e-01
5.730218e-01
5.730298e-01
5.730374e-01
5.730438e-01
5.730482e-01
5.730497e-01
5.730482e-01
5.730438e-01
5.730374e-01
5.730298e-01
5.730218e-01
5.730139e-01
5.730066e-01
0.000000e+00
1.000000e+00
5.729642e-01
5.729244e-01
5.728817e-01
5.728380e-01
5.727965e-01
5.727617e-01
5.727383e-01
5.727300e-01
5.727383e-01
5.727617e-01
5.727965e-01
5.728380e-01
5.728817e-01
5.729244e-01
5.729642e-01
0.000000e+00
1.000000e+00
5.729463e-01
5.728867e-01
5.728226e-01
5.727571e-01
5.726950e-01
5.726429e-01
5.726077e-01
5.725952e-01
5.726077e-01
5.726429e-01
5.726950e-01
5.727571e-01
5.728226e-01
5.728867e-01
5.729463e-01
0.000000e+00
1.000000e+00
5.729522e-01
5.728991e-01
5.728422e-01
5.727839e-01
5.727286e-01
5.726821e-01
5.726508e-01
5.726398e-01
5.726508e-01
5.726821e-01
5.727286e-01
5.727839e-01
5.728422e-01
5.728991e-01
5.729522e-01
0.000000e+00
1.000000e+00
5.729794e-01
5.729566e-01
5.729321e-01
5.729070e-01
5.728833e-01
5.728633e-01
5.728498e-01
5.728451e-01
5.728498e-01
5.728633e-01
5.728833e-01
5.729070e-01
5.729321e-01
5.729566e-01
5.729794e-01
0.000000e+00
1.000000e+00
5.730244e-01
5.730515e-01
5.730806e-01
5.731103e-01
5.731385e-01
5.731622e-01
5.731782e-01
5.731839e-01
5.731782e-01
5.731622e-01
5.731385e-01
5.731103e-01
5.730806e-01
5.730515e-01
5.730244e-01
0.000000e+00
1.000000e+00
5.730829e-01
5.731749e-01
5.732737e-01
5.733747e-01
5.734705e-01
5.735510e-01
5.736053e-01
5.736245e-01
5.736053e-01
5.735510e-01
5.734705e-01
5.733747e-01
5.732737e-01
5.731749e-01
5.730829e-01
0.000000e+00
1.000000e+00
5.731506e-01
5.733177e-01
5.734973e-01
5.736809e-01
5.738550e-01
5.740013e-01
5.740999e-01
5.741348e-01
5.740999e-01
5.740013e-01
5.738550e-01
5.736809e-01
5.734973e-01
5.733177e-01
5.731506e-01
0.000000e+00
1.000000e+00
5.738993e-01
5.748969e-01
5.759687e-01
5.770648e-01
5.781042e-01
5.789776e-01
5.795662e-01
5.797747e-01
5.795662e-01
5.789776e-01
5.781042e-01
5.770648e-01
5.759687e-01
5.748969e-01
5.738993e-01
0.000000e+00
1.000000e+00
5.738272e-01
5.747449e-01
5.757307e-01
5.767389e-01
5.776950e-01
5.784984e-01
5.790398e-01
5.792315e-01
5.790398e-01
5.784984e-01
5.776950e-01
5.767389e-01
5.757307e-01
5.747449e-01
5.738272e-01
0.000000e+00
1.000000e+00
5.737403e-01
5.745616e-01
5.754439e-01
5.763463e-01
5.772019e-01
5.779210e-01
5.784055e-01
5.785771e-01
5.784055e-01
5.779210e-01
5.772019e-01
5.763463e-01
5.754439e-01
5.745616e-01
5.737403e-01
0.000000e+00
1.000000e+00
5.736407e-01
5.743514e-01
5.751149e-01
5.758958e-01
5.766362e-01
5.772585e-01
5.776778e-01
5.778263e-01
5.776778e-01
5.772585e-01
5.766362e-01
5.758958e-01
5.751149e-01
5.743514e-01
5.736407e-01
0.000000e+00
1.000000e+00
5.735317e-01
5.741215e-01
5.747551e-01
5.754031e-01
5.760176e-01
5.765340e-01
5.768820e-01
5.770052e-01
5.768820e-01
5.765340e-01
5.760176e-01
5.754031e-01
5.747551e-01
5.741215e-01
5.735317e-01
0.000000e+00
1.000000e+00
5.734183e-01
5.738823e-01
5.743808e-01
5.748907e-01
5.753741e-01
5.757804e-01
5.760541e-01
5.761511e-01
5.760541e-01
5.757804e-01
5.753741e-01
5.748907e-01
5.743808e-01
5.738823e-01
5.734183e-01
0.000000e+00
1.000000e+00
5.733066e-01
5.736468e-01
5.740122e-01
5.743859e-01
5.747403e-01
5.750381e-01
5.752388e-01
5.753098e-01
5.752388e-01
5.750381e-01
5.747403e-01
5.743859e-01
5.740122e-01
5.736468e-01
5.733066e-01
0.000000e+00
1.000000e+00
5.732033e-01
5.734289e-01
5.736712e-01
5.739191e-01
5.741541e-01
5.743515e-01
5.744846e-01
5.745317e-01
5.744846e-01
5.743515e-01
5.741541e-01
5.739191e-01
5.736712e-01
5.734289e-01
5.732033e-01
0.000000e+00
1.000000e+00
5.731149e-01
5.732424e-01
5.733793e-01
5.735194e-01
5.736522e-01
5.737638e-01
5.738390e-01
5.738656e-01
5.738390e-01
5.737638e-01
5.736522e-01
5.735194e-01
5.733793e-01
5.732424e-01
5.731149e-01
0.000000e+00
1.000000e+00
5.730467e-01
5.730986e-01
5.731543e-01
5.732112e-01
5.732652e-01
5.733106e-01
5.733412e-01
5.733520e-01
5.733412e-01
5.733106e-01
5.732652e-01
5.732112e-01
5.731543e-01
5.730986e-01
5.730467e-01
0.000000e+00
1.000000e+00
5.730024e-01
5.730051e-01
5.730080e-01
5.730110e-01
5.730138e-01
5.730161e-01
5.730177e-01
5.730183e-01
5.730177e-01
5.730161e-01
5.730138e-01
5.730110e-01
5.730080e-01
5.730051e-01
5.730024e-01
0.000000e+00
1.000000e+00
5.729834e-01
5.729650e-01
5.729453e-01
5.729250e-01
5.729059e-01
5.728898e-01
5.728789e-01
5.728750e-01
5.728789e-01
5.728898e-01
5.729059e-01
5.729250e-01
5.729453e-01
5.729650e-01
5.729834e-01
0.000000e+00
1.000000e+00
5.729889e-01
5.729767e-01
5.729635e-01
5.729500e-01
5.729372e-01
5.729265e-01
5.729192e-01
5.729167e-01
5.729192e-01
5.729265e-01
5.729372e-01
5.729500e-01
5.729635e-01
5.729767e-01
5.729889e-01
0.000000e+00
1.000000e+00
5.730164e-01
5.730346e-01
5.730542e-01
5.730742e-01
5.730931e-01
5.731090e-01
5.731198e-01
5.731236e-01
5.731198e-01
5.731090e-01
5.730931e-01
5.730742e-01
5.730542e-01
5.730346e-01
5.730164e-01
0.000000e+00
1.000000e+00
5.730620e-01
5.731307e-01
5.732046e-01
5.732801e-01
5.733518e-01
5.734120e-01
5.734525e-01
5.734669e-01
5.734525e-01
5.734120e-01
5.733518e-01
5.732801e-01
5.732046e-01
5.731307e-01
5.730620e-01
0.000000e+00
1.000000e+00
5.731212e-01
5.732557e-01
5.734002e-01
5.735479e-01
5.736880e-01
5.738057e-01
5.738851e-01
5.739132e-01
5.738851e-01
5.738057e-01
5.736880e-01
5.735479e-01
5.734002e-01
5.732557e-01
5.731212e-01
0.000000e+00
1.000000e+00
5.731897e-01
5.734001e-01
5.736261e-01
5.738572e-01
5.740764e-01
5.742606e-01
5.743847e-01
5.744287e-01
5.743847e-01
5.742606e-01
5.740764e-01
5.738572e-01
5.736261e-01
5.734001e-01
5.731897e-01
0.000000e+00
1.000000e+00
5.739154e-01
5.749309e-01
5.760218e-01
5.771376e-01
5.781955e-01
5.790846e-01
5.796837e-01
5.798959e-01
5.796837e-01
5.790846e-01
5.781955e-01
5.771376e-01
5.760218e-01
5.749309e-01
5.739154e-01
0.000000e+00
1.000000e+00
5.738477e-01
5.747881e-01
5.757983e-01
5.768315e-01
5.778113e-01
5.786346e-01
5.791894e-01
5.793859e-01
5.791894e-01
5.786346e-01
5.778113e-01
5.768315e-01
5.757983e-01
5.747881e-01
5.738477e-01
0.000000e+00
1.000000e+00
5.737642e-01
5.746120e-01
5.755228e-01
5.764543e-01
5.773375e-01
5.780798e-01
5.785799e-01
5.787571e-01
5.785799e-01
5.780798e-01
5.773375e-01
5.764543e-01
5.755228e-01
5.746120e-01
5.737642e-01
0.000000e+00
1.000000e+00
5.736668e-01
5.744064e-01
5.752010e-01
5.760137e-01
5.767844e-01
5.774319e-01
5.778683e-01
5.780229e-01
5.778683e-01
5.774319e-01
5.767844e-01
5.760137e-01
5.752010e-01
5.744064e-01
5.736668e-01
0.000000e+00
1.000000e+00
5.735587e-01
5.741784e-01
5.748442e-01
5.755252e-01
5.761709e-01
5.767135e-01
5.770791e-01
5.772086e-01
5.770791e-01
5.767135e-01
5.761709e-01
5.755252e-01
5.748442e-01
5.741784e-01
5.735587e-01
0.000000e+00
1.000000e+00
5.734449e-01
5.739385e-01
5.744688e-01
5.750111e-01
5.755254e-01
5.759575e-01
5.762487e-01
5.763518e-01
5.762487e-01
5.759575e-01
5.755254e-01
5.750111e-01
5.744688e-01
5.739385e-01
5.734449e-01
0.000000e+00
1.000000e+00
5.733319e-01
5.737001e-01
5.740956e-01
5.745001e-01
5.748837e-01
5.752060e-01
5.754232e-01
5.755002e-01
5.754232e-01
5.752060e-01
5.748837e-01
5.745001e-01
5.740956e-01
5.737001e-01
5.733319e-01
0.000000e+00
1.000000e+00
5.732266e-01
5.734779e-01
5.737479e-01
5.740241e-01
5.742859e-01
5.745060e-01
5.746542e-01
5.747068e-01
5.746542e-01
5.745060e-01
5.742859e-01
5.740241e-01
5.737479e-01
5.734779e-01
5.732266e-01
0.000000e+00
1.000000e+00
5.731359e-01
5.732867e-01
5.734486e-01
5.736143e-01
5.737713e-01
5.739033e-01
5.739923e-01
5.740238e-01
5.739923e-01
5.739033e-01
5.737713e-01
5.736143e-01
5.734486e-01
5.732867e-01
5.731359e-01
0.000000e+00
1.000000e+00
5.730657e-01
5.731387e-01
5.732170e-01
5.732971e-01
5.733731e-01
5.734369e-01
5.734799e-01
5.734952e-01
5.734799e-01
5.734369e-01
5.733731e-01
5.732971e-01
5.732170e-01
5.731387e-01
5.730657e-01
0.000000e+00
1.000000e+00
5.730200e-01
5.730422e-01
5.730660e-01
5.730904e-01
5.731135e-01
5.731329e-01
5.731460e-01
5.731506e-01
5.731460e-01
5.731329e-01
5.731135e-01
5.730904e-01
5.730660e-01
5.730422e-01
5.730200e-01
0.000000e+00
1.000000e+00
5.730003e-01
5.730006e-01
5.730010e-01
5.730014e-01
5.730017e-01
5.730020e-01
5.730022e-01
5.730022e-01
5.730022e-01
5.730020e-01
5.730017e-01
5.730014e-01
5.730010e-01
5.730006e-01
5.730003e-01
0.000000e+00
1.000000e+00
5.730059e-01
5.730124e-01
5.730194e-01
5.730266e-01
5.730334e-01
5.730391e-01
5.730429e-01
5.730443e-01
5.730429e-01
5.730391e-01
5.730334e-01
5.730266e-01
5.730194e-01
5.730124e-01
5.730059e-01
0.000000e+00
1.000000e+00
5.730340e-01
5.730717e-01
5.731123e-01
5.731537e-01
5.731930e-01
5.732260e-01
5.732483e-01
5.732562e-01
5.732483e-01
5.732260e-01
5.731930e-01
5.731537e-01
5.731123e-01
5.730717e-01
5.730340e-01
0.000000e+00
1.000000e+00
5.730806e-01
5.731701e-01
5.732662e-01
5.733645e-01
5.734577e-01
5.735360e-01
5.735888e-01
5.736075e-01
5.735888e-01
5.735360e-01
5.734577e-01
5.733645e-01
5.732662e-01
5.731701e-01
5.730806e-01
0.000000e+00
1.000000e+00
5.731411e-01
5.732976e-01
5.734658e-01
5.736378e-01
5.738009e-01
5.739379e-01
5.740302e-01
5.740630e-01
5.740302e-01
5.739379e-01
5.738009e-01
5.736378e-01
5.734658e-01
5.732976e-01
5.731411e-01
0.000000e+00
1.000000e+00
5.732107e-01
5.734445e-01
5.736956e-01
5.739525e-01
5.741960e-01
5.744007e-01
5.745386e-01
5.745875e-01
5.745386e-01
5.744007e-01
5.741960e-01
5.739525e-01
5.736956e-01
5.734445e-01
5.732107e-01
0.000000e+00
1.000000e+00
5.739081e-01
5.749156e-01
5.759979e-01
5.771049e-01
5.781545e-01
5.790365e-01
5.796309e-01
5.798414e-01
5.796309e-01
5.790365e-01
5.781545e-01
5.771049e-01
5.759979e-01
5.749156e-01
5.739081e-01
0.000000e+00
1.000000e+00
5.738438e-01
5.747798e-01
5.757854e-01
5.768139e-01
5.777891e-01
5.786086e-01
5.791608e-01
5.793564e-01
5.791608e-01
5.786086e-01
5.777891e-01
5.768139e-01
5.757854e-01
5.747798e-01
5.738438e-01
0.000000e+00
1.000000e+00
5.737628e-01
5.746091e-01
5.755183e-01
5.764481e-01
5.773298e-01
5.780707e-01
5.785700e-01
5.787468e-01
5.785700e-01
5.780707e-01
5.773298e-01
5.764481e-01
5.755183e-01
5.746091e-01
5.737628e-01
0.000000e+00
1.000000e+00
5.736670e-01
5.744069e-01
5.752017e-01
5.760147e-01
5.767856e-01
5.774333e-01
5.778699e-01
5.780244e-01
5.778699e-01
5.774333e-01
5.767856e-01
5.760147e-01
5.752017e-01
5.744069e-01
5.736670e-01
0.000000e+00
1.000000e+00
5.735594e-01
5.741800e-01
5.748467e-01
5.755285e-01
5.761750e-01
5.767184e-01
5.770845e-01
5.772141e-01
5.770845e-01
5.767184e-01
5.761750e-01
5.755285e-01
5.748467e-01
5.741800e-01
5.735594e-01
0.000000e+00
1.000000e+00
5.734452e-01
5.739391e-01
5.744696e-01
5.750123e-01
5.755268e-01
5.759592e-01
5.762505e-01
5.763537e-01
5.762505e-01
5.759592e-01
5.755268e-01
5.750123e-01
5.744696e-01
5.739391e-01
5.734452e-01
0.000000e+00
1.000000e+00
5.733309e-01
5.736979e-01
5.740922e-01
5.744954e-01
5.748778e-01
5.751992e-01
5.754157e-01
5.754924e-01
5.754157e-01
5.751992e-01
5.748778e-01
5.744954e-01
5.740922e-01
5.736979e-01
5.733309e-01
0.000000e+00
1.000000e+00
5.732238e-01
5.734720e-01
5.737387e-01
5.740114e-01
5.742701e-01
5.744874e-01
5.746339e-01
5.746857e-01
5.746339e-01
5.744874e-01
5.742701e-01
5.740114e-01
5.737387e-01
5.734720e-01
5.732238e-01
0.000000e+00
1.000000e+00
5.731313e-01
5.732769e-01
5.734334e-01
5.735934e-01
5.737451e-01
5.738726e-01
5.739585e-01
5.739890e-01
5.739585e-01
5.738726e-01
5.737451e-01
5.735934e-01
5.734334e-01
5.732769e-01
5.731313e-01
0.000000e+00
1.000000e+00
5.730596e-01
5.731257e-01
5.731968e-01
5.732694e-01
5.733383e-01
5.733962e-01
5.734352e-01
5.734490e-01
5.734352e-01
5.733962e-01
5.733383e-01
5.732694e-01
5.731968e-01
5.731257e-01
5.730596e-01
0.000000e+00
1.000000e+00
5.730130e-01
5.730274e-01
5.730429e-01
5.730587e-01
5.730737e-01
5.730863e-01
5.730948e-01
5.730978e-01
5.730948e-01
5.730863e-01
5.730737e-01
5.730587e-01
5.730429e-01
5.730274e-01
5.730130e-01
0.000000e+00
1.000000e+00
5.729932e-01
5.729856e-01
5.729775e-01
5.729692e-01
5.729613e-01
5.729546e-01
5.729502e-01
5.729486e-01
5.729502e-01
5.729546e-01
5.729613e-01
5.729692e-01
5.729775e-01
5.729856e-01
5.729932e-01
0.000000e+00
1.000000e+00
5.729994e-01
5.729987e-01
5.729980e-01
5.729973e-01
5.729965e-01
5.729960e-01
5.729956e-01
5.729954e-01
5.729956e-01
5.729960e-01
5.729965e-01
5.729973e-01
5.729980e-01
5.729987e-01
5.729994e-01
0.000000e+00
1.000000e+00
5.730288e-01
5.730607e-01
5.730950e-01
5.731301e-01
5.731633e-01
5.731913e-01
5.732101e-01
5.732168e-01
5.732101e-01
5.731913e-01
5.731633e-01
5.731301e-01
5.730950e-01
5.730607e-01
5.730288e-01
0.000000e+00
1.000000e+00
5.730771e-01
5.731626e-01
5.732545e-01
5.733484e-01
5.734375e-01
5.735124e-01
5.735628e-01
5.735807e-01
5.735628e-01
5.735124e-01
5.734375e-01
5.733484e-01
5.732545e-01
5.731626e-01
5.730771e-01
0.000000e+00
1.000000e+00
5.731394e-01
5.732941e-01
5.734602e-01
5.736301e-01
5.737913e-01
5.739267e-01
5.740179e-01
5.740502e-01
5.740179e-01
5.739267e-01
5.737913e-01
5.736301e-01
5.734602e-01
5.732941e-01
5.731394e-01
0.000000e+00
1.000000e+00
5.732109e-01
5.734449e-01
5.736963e-01
5.739533e-01
5.741971e-01
5.744019e-01
5.745400e-01
5.745889e-01
5.745400e-01
5.744019e-01
5.741971e-01
5.739533e-01
5.736963e-01
5.734449e-01
5.732109e-01
0.000000e+00
1.000000e+00
5.738767e-01
5.748494e-01
5.758942e-01
5.769629e-01
5.779762e-01
5.788278e-01
5.794016e-01
5.796048e-01
5.794016e-01
5.788278e-01
5.779762e-01
5.769629e-01
5.758942e-01
5.748494e-01
5.738767e-01
0.000000e+00
1.000000e+00
5.738143e-01
5.747176e-01
5.756880e-01
5.766806e-01
5.776217e-01
5.784126e-01
5.789455e-01
5.791342e-01
5.789455e-01
5.784126e-01
5.776217e-01
5.766806e-01
5.756880e-01
5.747176e-01
5.738143e-01
0.000000e+00
1.000000e+00
5.737347e-01
5.745498e-01
5.754254e-01
5.763209e-01
5.771700e-01
5.778836e-01
5.783645e-01
5.785348e-01
5.783645e-01
5.778836e-01
5.771700e-01
5.763209e-01
5.754254e-01
5.745498e-01
5.737347e-01
0.000000e+00
1.000000e+00
5.736395e-01
5.743489e-01
5.751110e-01
5.758904e-01
5.766295e-01
5.772506e-01
5.776692e-01
5.778174e-01
5.776692e-01
5.772506e-01
5.766295e-01
5.758904e-01
5.751110e-01
5.743489e-01
5.736395e-01
0.000000e+00
1.000000e+00
5.735318e-01
5.741218e-01
5.747556e-01
5.754038e-01
5.760185e-01
5.765351e-01
5.768831e-01
5.770064e-01
5.768831e-01
5.765351e-01
5.760185e-01
5.754038e-01
5.747556e-01
5.741218e-01
5.735318e-01
0.000000e+00
1.000000e+00
5.734168e-01
5.738793e-01
5.743760e-01
5.748841e-01
5.753659e-01
5.757707e-01
5.760435e-01
5.761401e-01
5.760435e-01
5.757707e-01
5.753659e-01
5.748841e-01
5.743760e-01
5.738793e-01
5.734168e-01
0.000000e+00
1.000000e+00
5.733012e-01
5.736353e-01
5.739943e-01
5.743614e-01
5.747096e-01
5.750021e-01
5.751992e-01
5.752690e-01
5.751992e-01
5.750021e-01
5.747096e-01
5.743614e-01
5.739943e-01
5.736353e-01
5.733012e-01
0.000000e+00
1.000000e+00
5.731926e-01
5.734063e-01
5.736358e-01
5.738706e-01
5.740932e-01
5.742802e-01
5.744063e-01
5.744509e-01
5.744063e-01
5.742802e-01
5.740932e-01
5.738706e-01
5.736358e-01
5.734063e-01
5.731926e-01
0.000000e+00
1.000000e+00
5.730987e-01
5.732082e-01
5.733259e-01
5.734462e-01
5.735602e-01
5.736561e-01
5.737207e-01
5.737436e-01
5.737207e-01
5.736561e-01
5.735602e-01
5.734462e-01
5.733259e-01
5.732082e-01
5.730987e-01
0.000000e+00
1.000000e+00
5.730261e-01
5.730550e-01
5.730861e-01
5.731178e-01
5.731480e-01
5.731733e-01
5.731903e-01
5.731964e-01
5.731903e-01
5.731733e-01
5.731480e-01
5.731178e-01
5.730861e-01
5.730550e-01
5.730261e-01
0.000000e+00
1.000000e+00
5.729792e-01
5.729561e-01
5.729312e-01
5.729058e-01
5.728818e-01
5.728615e-01
5.728479e-01
5.728431e-01
5.728479e-01
5.728615e-01
5.728818e-01
5.729058e-01
5.729312e-01
5.729561e-01
5.729792e-01
0.000000e+00
1.000000e+00
5.729599e-01
5.729153e-01
5.728675e-01
5.728186e-01
5.727722e-01
5.727332e-01
5.727069e-01
5.726976e-01
5.727069e-01
5.727332e-01
5.727722e-01
5.728186e-01
5.728675e-01
5.729153e-01
5.729599e-01
0.000000e+00
1.000000e+00
5.729674e-01
5.729311e-01
5.728922e-01
5.728524e-01
5.728147e-01
5.727830e-01
5.727616e-01
5.727541e-01
5.727616e-01
5.727830e-01
5.728147e-01
5.728524e-01
5.728922e-01
5.729311e-01
5.729674e-01
0.000000e+00
1.000000e+00
5.729987e-01
5.729972e-01
5.729955e-01
5.729939e-01
5.729923e-01
5.729910e-01
5.729901e-01
5.729898e-01
5.729901e-01
5.729910e-01
5.729923e-01
5.729939e-01
5.729955e-01
5.729972e-01
5.729987e-01
0.000000e+00
1.000000e+00
5.730493e-01
5.731040e-01
5.731627e-01
5.732228e-01
5.732798e-01
5.733277e-01
5.733599e-01
5.733714e-01
5.733599e-01
5.733277e-01
5.732798e-01
5.732228e-01
5.731627e-01
5.731040e-01
5.730493e-01
0.000000e+00
1.000000e+00
5.731142e-01
5.732409e-01
5.733770e-01
5.735162e-01
5.736482e-01
5.737592e-01
5.738339e-01
5.738604e-01
5.738339e-01
5.737592e-01
5.736482e-01
5.735162e-01
5.733770e-01
5.732409e-01
5.731142e-01
0.000000e+00
1.000000e+00
5.731884e-01
5.733973e-01
5.736218e-01
5.738514e-01
5.740690e-01
5.742520e-01
5.743753e-01
5.744189e-01
5.743753e-01
5.742520e-01
5.740690e-01
5.738514e-01
5.736218e-01
5.733973e-01
5.731884e-01
0.000000e+00
1.000000e+00
5.738219e-01
5.747338e-01
5.757133e-01
5.767152e-01
5.776651e-01
5.784634e-01
5.790014e-01
5.791919e-01
5.790014e-01
5.784634e-01
5.776651e-01
5.767152e-01
5.757133e-01
5.747338e-01
5.738219e-01
0.000000e+00
1.000000e+00
5.737598e-01
5.746027e-01
5.755083e-01
5.764344e-01
5.773126e-01
5.780505e-01
5.785478e-01
5.787239e-01
5.785478e-01
5.780505e-01
5.773126e-01
5.764344e-01
5.755082e-01
5.746027e-01
5.737598e-01
0.000000e+00
1.000000e+00
5.736802e-01
5.744349e-01
5.752456e-01
5.760747e-01
5.768609e-01
5.775216e-01
5.779668e-01
5.781245e-01
5.779668e-01
5.775216e-01
5.768609e-01
5.760747e-01
5.752456e-01
5.744349e-01
5.736802e-01
0.000000e+00
1.000000e+00
5.735846e-01
5.742332e-01
5.749299e-01
5.756424e-01
5.763181e-01
5.768859e-01
5.772685e-01
5.774040e-01
5.772685e-01
5.768859e-01
5.763181e-01
5.756424e-01
5.749299e-01
5.742332e-01
5.735846e-01
0.000000e+00
1.000000e+00
5.734761e-01
5.740044e-01
5.745718e-01
5.751522e-01
5.757025e-01
5.761650e-01
5.764766e-01
5.765869e-01
5.764766e-01
5.761650e-01
5.757025e-01
5.751522e-01
5.745718e-01
5.740044e-01
5.734761e-01
0.000000e+00
1.000000e+00
5.733600e-01
5.737594e-01
5.741884e-01
5.746272e-01
5.750433e-01
5.753930e-01
5.756286e-01
5.757120e-01
5.756286e-01
5.753930e-01
5.750433e-01
5.746272e-01
5.741884e-01
5.737594e-01
5.733600e-01
0.000000e+00
1.000000e+00
5.732430e-01
5.735127e-01
5.738023e-01
5.740986e-01
5.743795e-01
5.746155e-01
5.747746e-01
5.748309e-01
5.747746e-01
5.746155e-01
5.743795e-01
5.740986e-01
5.738023e-01
5.735127e-01
5.732430e-01
0.000000e+00
1.000000e+00
5.731332e-01
5.732809e-01
5.734396e-01
5.736019e-01
5.737558e-01
5.738851e-01
5.739723e-01
5.740031e-01
5.739723e-01
5.738851e-01
5.737558e-01
5.736019e-01
5.734396e-01
5.732809e-01
5.731332e-01
0.000000e+00
1.000000e+00
5.730383e-01
5.730808e-01
5.731264e-01
5.731731e-01
5.732173e-01
5.732545e-01
5.732796e-01
5.732884e-01
5.732796e-01
5.732545e-01
5.732173e-01
5.731731e-01
5.731264e-01
5.730808e-01
5.730383e-01
0.000000e+00
1.000000e+00
5.729652e-01
5.729267e-01
5.728852e-01
5.728428e-01
5.728026e-01
5.727688e-01
5.727461e-01
5.727380e-01
5.727461e-01
5.727688e-01
5.728026e-01
5.728428e-01
5.728852e-01
5.729267e-01
5.729652e-01
0.000000e+00
1.000000e+00
5.729186e-01
5.728283e-01
5.727313e-01
5.726321e-01
5.725381e-01
5.724590e-01
5.724058e-01
5.723869e-01
5.724058e-01
5.724590e-01
5.725381e-01
5.726321e-01
5.727313e-01
5.728283e-01
5.729186e-01
0.000000e+00
1.000000e+00
5.729004e-01
5.727899e-01
5.726712e-01
5.725498e-01
5.724346e-01
5.723379e-01
5.722727e-01
5.722496e-01
5.722727e-01
5.723379e-01
5.724346e-01
5.725498e-01
5.726712e-01
5.727899e-01
5.729004e-01
0.000000e+00
1.000000e+00
5.729097e-01
5.728096e-01
5.727020e-01
5.725919e-01
5.724876e-01
5.723999e-01
5.723408e-01
5.723198e-01
5.723408e-01
5.723999e-01
5.724876e-01
5.725919e-01
5.727020e-01
5.728096e-01
5.729097e-01
0.000000e+00
1.000000e+00
5.729435e-01
5.728808e-01
5.728134e-01
5.727445e-01
5.726792e-01
5.726242e-01
5.725872e-01
5.725741e-01
5.725872e-01
5.726242e-01
5.726792e-01
5.727445e-01
5.728134e-01
5.728808e-01
5.729435e-01
0.000000e+00
1.000000e+00
5.729971e-01
5.729938e-01
5.729903e-01
5.729867e-01
5.729832e-01
5.729804e-01
5.729784e-01
5.729778e-01
5.729784e-01
5.729804e-01
5.729832e-01
5.729867e-01
5.729903e-01
5.729938e-01
5.729971e-01
0.000000e+00
1.000000e+00
5.730652e-01
5.731375e-01
5.732152e-01
5.732946e-01
5.733699e-01
5.734332e-01
5.734759e-01