<?xml version="1.0"?>
<VTKFile type="StructuredGrid" version="0.1">
  <StructuredGrid WholeExtent="0 16 0 16 0 16">
    <Piece Extent="0 16 0 16 0 16">
      <PointData Scalars="temperature" Vectors="velocity">
        <DataArray type="Float32" Name="temperature" format="ascii">
1.000000e+00
5.651851e-01
5.568456e-01
5.477040e-01
5.383664e-01
5.295238e-01
5.221098e-01
5.171365e-01
5.154090e-01
5.172310e-01
5.222801e-01
5.297431e-01
5.386602e-01
5.479281e-01
5.571266e-01
5.649748e-01
0.000000e+00
1.000000e+00
5.660255e-01
5.586485e-01
5.505124e-01
5.422075e-01
5.343415e-01
5.277457e-01
5.233214e-01
5.217849e-01
5.234066e-01
5.278984e-01
5.345383e-01
5.424895e-01
5.507075e-01
5.588920e-01
5.658037e-01
0.000000e+00
1.000000e+00
5.670521e-01
5.607028e-01
5.537252e-01
5.466041e-01
5.398577e-01
5.341985e-01
5.304007e-01
5.290799e-01
5.304687e-01
5.343200e-01
5.400135e-01
5.468589e-01
5.539064e-01
5.609229e-01
5.667825e-01
0.000000e+00
1.000000e+00
5.681703e-01
5.629556e-01
5.572544e-01
5.514356e-01
5.459224e-01
5.412969e-01
5.381918e-01
5.371109e-01
5.382447e-01
5.413913e-01
5.460436e-01
5.516630e-01
5.574212e-01
5.631570e-01
5.678657e-01
0.000000e+00
1.000000e+00
5.693510e-01
5.653403e-01
5.609914e-01
5.565519e-01
5.523450e-01
5.488150e-01
5.464444e-01
5.456178e-01
5.464820e-01
5.488826e-01
5.524325e-01
5.567512e-01
5.611422e-01
5.655266e-01
5.689177e-01
0.000000e+00
1.000000e+00
5.705688e-01
5.677621e-01
5.647885e-01
5.617500e-01
5.588707e-01
5.564545e-01
5.548312e-01
5.542634e-01
5.548532e-01
5.564962e-01
5.589242e-01
5.619265e-01
5.649335e-01
5.678712e-01
5.706159e-01
0.000000e+00
1.000000e+00
5.717745e-01
5.701089e-01
5.684720e-01
5.667929e-01
5.652019e-01
5.638667e-01
5.629688e-01
5.626529e-01
5.629759e-01
5.638820e-01
5.652176e-01
5.669498e-01
5.686153e-01
5.702037e-01
5.720322e-01
0.000000e+00
1.000000e+00
5.728833e-01
5.722642e-01
5.718589e-01
5.714301e-01
5.710240e-01
5.706833e-01
5.704538e-01
5.703714e-01
5.704502e-01
5.706765e-01
5.710060e-01
5.715338e-01
5.719878e-01
5.723874e-01
5.727854e-01
0.000000e+00
1.000000e+00
5.738406e-01
5.741177e-01
5.747756e-01
5.754241e-01
5.760394e-01
5.765564e-01
5.769043e-01
5.770256e-01
5.768978e-01
5.765431e-01
5.760132e-01
5.754570e-01
5.749067e-01
5.742371e-01
5.735936e-01
0.000000e+00
1.000000e+00
5.746179e-01
5.755764e-01
5.770776e-01
5.785762e-01
5.799977e-01
5.811926e-01
5.819978e-01
5.822821e-01
5.819940e-01
5.811839e-01
5.799852e-01
5.786336e-01
5.772362e-01
5.756659e-01
5.743013e-01
0.000000e+00
1.000000e+00
5.751672e-01
5.765779e-01
5.786654e-01
5.807503e-01
5.827278e-01
5.843900e-01
5.855108e-01
5.859081e-01
5.855107e-01
5.843928e-01
5.827563e-01
5.808678e-01
5.788290e-01
5.766484e-01
5.744101e-01
0.000000e+00
1.000000e+00
5.754558e-01
5.770975e-01
5.794941e-01
5.818853e-01
5.841533e-01
5.860600e-01
5.873461e-01
5.878032e-01
5.873501e-01
5.860748e-01
5.842176e-01
5.820225e-01
5.796474e-01
5.772161e-01
5.742840e-01
0.000000e+00
1.000000e+00
5.754951e-01
5.771454e-01
5.795751e-01
5.819964e-01
5.842930e-01
5.862237e-01
5.875261e-01
5.879892e-01
5.875305e-01
5.862380e-01
5.843652e-01
5.821356e-01
5.797215e-01
5.772976e-01
5.744481e-01
0.000000e+00
1.000000e+00
5.752924e-01
5.767620e-01
5.789681e-01
5.811652e-01
5.832491e-01
5.850008e-01
5.861822e-01
5.866016e-01
5.861836e-01
5.850043e-01
5.832975e-01
5.812900e-01
5.791113e-01
5.769238e-01
5.742817e-01
0.000000e+00
1.000000e+00
5.748930e-01
5.760056e-01
5.777682e-01
5.795221e-01
5.811857e-01
5.825841e-01
5.835268e-01
5.838607e-01
5.835251e-01
5.825773e-01
5.811925e-01
5.796133e-01
5.779269e-01
5.761778e-01
5.739411e-01
0.000000e+00
1.000000e+00
5.743268e-01
5.749471e-01
5.760918e-01
5.772266e-01
5.783031e-01
5.792080e-01
5.798175e-01
5.800320e-01
5.798121e-01
5.791951e-01
5.782860e-01
5.772799e-01
5.762480e-01
5.751220e-01
5.734379e-01
0.000000e+00
1.000000e+00
5.736277e-01
5.736622e-01
5.740619e-01
5.744469e-01
5.748124e-01
5.751197e-01
5.753265e-01
5.753974e-01
5.753189e-01
5.751044e-01
5.747945e-01
5.745171e-01
5.741967e-01
5.738255e-01
5.728208e-01
0.000000e+00
1.000000e+00
5.646561e-01
5.553737e-01
5.454101e-01
5.352266e-01
5.255824e-01
5.174954e-01
5.120695e-01
5.101828e-01
5.121677e-01
5.176735e-01
5.258119e-01
5.355199e-01
5.456534e-01
5.556293e-01
5.641234e-01
0.000000e+00
1.000000e+00
5.653576e-01
5.570437e-01
5.480212e-01
5.387993e-01
5.300668e-01
5.227457e-01
5.178359e-01
5.161318e-01
5.179326e-01
5.229189e-01
5.302875e-01
5.391034e-01
5.482573e-01
5.573026e-01
5.649318e-01
0.000000e+00
1.000000e+00
5.663148e-01
5.590120e-01
5.510940e-01
5.430028e-01
5.353385e-01
5.289112e-01
5.245992e-01
5.231006e-01
5.246790e-01
5.290522e-01
5.355130e-01
5.432867e-01
5.513035e-01
5.592552e-01
5.658431e-01
0.000000e+00
1.000000e+00
5.673800e-01
5.612118e-01
5.545349e-01
5.477129e-01
5.412501e-01
5.358290e-01
5.321913e-01
5.309262e-01
5.322562e-01
5.359425e-01
5.413866e-01
5.479654e-01
5.547272e-01
5.614887e-01
5.670796e-01
0.000000e+00
1.000000e+00
5.685356e-01
5.635782e-01
5.582385e-01
5.527829e-01
5.476139e-01
5.432771e-01
5.403657e-01
5.393520e-01
5.404146e-01
5.433622e-01
5.477128e-01
5.530015e-01
5.584134e-01
5.639921e-01
5.676641e-01
0.000000e+00
1.000000e+00
5.697360e-01
5.660139e-01
5.620527e-01
5.580047e-01
5.541686e-01
5.509495e-01
5.487873e-01
5.480327e-01
5.488199e-01
5.510073e-01
5.542338e-01
5.581845e-01
5.622043e-01
5.663056e-01
5.686690e-01
0.000000e+00
1.000000e+00
5.709282e-01
5.684016e-01
5.657949e-01
5.631279e-01
5.606002e-01
5.584787e-01
5.570527e-01
5.565531e-01
5.570698e-01
5.585109e-01
5.606344e-01
5.632772e-01
5.659340e-01
5.684793e-01
5.705853e-01
0.000000e+00
1.000000e+00
5.720443e-01
5.706153e-01
5.692678e-01
5.678827e-01
5.665698e-01
5.654676e-01
5.647258e-01
5.644642e-01
5.647300e-01
5.654766e-01
5.665734e-01
5.680040e-01
5.693897e-01
5.706765e-01
5.717835e-01
0.000000e+00
1.000000e+00
5.730275e-01
5.725332e-01
5.722815e-01
5.720089e-01
5.717505e-01
5.715333e-01
5.713866e-01
5.713334e-01
5.713827e-01
5.715259e-01
5.717325e-01
5.720705e-01
5.723816e-01
5.725830e-01
5.725511e-01
0.000000e+00
1.000000e+00
5.738290e-01
5.740527e-01
5.746758e-01
5.752872e-01
5.758670e-01
5.763542e-01
5.766820e-01
5.767967e-01
5.766768e-01
5.763430e-01
5.758456e-01
5.753036e-01
5.747783e-01
5.741120e-01
5.736322e-01
0.000000e+00
1.000000e+00
5.743965e-01
5.751039e-01
5.763389e-01
5.775644e-01
5.787267e-01
5.797035e-01
5.803616e-01
5.805941e-01
5.803580e-01
5.796942e-01
5.787169e-01
5.776072e-01
5.764604e-01
5.751461e-01
5.741104e-01
0.000000e+00
1.000000e+00
5.746981e-01
5.756564e-01
5.772188e-01
5.787695e-01
5.802401e-01
5.814762e-01
5.823095e-01
5.826048e-01
5.823083e-01
5.814722e-01
5.802524e-01
5.788479e-01
5.773452e-01
5.757255e-01
5.737550e-01
0.000000e+00
1.000000e+00
5.747433e-01
5.757197e-01
5.773259e-01
5.789164e-01
5.804248e-01
5.816928e-01
5.825477e-01
5.828508e-01
5.825473e-01
5.816901e-01
5.804439e-01
5.790033e-01
5.774479e-01
5.758445e-01
5.737493e-01
0.000000e+00
1.000000e+00
5.745417e-01
5.753380e-01
5.767244e-01
5.780928e-01
5.793905e-01
5.804814e-01
5.812167e-01
5.814771e-01
5.812151e-01
5.804755e-01
5.793939e-01
5.781596e-01
5.768339e-01
5.754835e-01
5.736330e-01
0.000000e+00
1.000000e+00
5.741317e-01
5.745754e-01
5.755165e-01
5.764387e-01
5.773133e-01
5.780484e-01
5.785437e-01
5.787184e-01
5.785401e-01
5.780390e-01
5.773013e-01
5.764803e-01
5.756298e-01
5.747342e-01
5.732661e-01
0.000000e+00
1.000000e+00
5.735612e-01
5.735064e-01
5.738261e-01
5.741239e-01
5.744064e-01
5.746439e-01
5.748036e-01
5.748587e-01
5.747982e-01
5.746327e-01
5.743950e-01
5.741823e-01
5.739422e-01
5.736719e-01
5.727564e-01
0.000000e+00
1.000000e+00
5.728744e-01
5.722105e-01
5.717835e-01
5.713271e-01
5.708946e-01
5.705316e-01
5.702870e-01
5.701995e-01
5.702837e-01
5.705265e-01
5.709009e-01
5.714308e-01
5.718943e-01
5.723647e-01
5.721017e-01
0.000000e+00
1.000000e+00
5.641271e-01
5.542145e-01
5.435918e-01
5.327373e-01
5.224580e-01
5.138391e-01
5.080565e-01
5.060462e-01
5.081627e-01
5.140327e-01
5.227100e-01
5.330332e-01
5.438560e-01
5.544217e-01
5.636476e-01
0.000000e+00
1.000000e+00
5.647565e-01
5.557553e-01
5.460045e-01
5.360389e-01
5.266028e-01
5.186926e-01
5.133881e-01
5.115478e-01
5.134945e-01
5.188833e-01
5.268532e-01
5.363428e-01
5.462575e-01
5.559685e-01
5.643710e-01
0.000000e+00
1.000000e+00
5.656610e-01
5.576243e-01
5.489229e-01
5.400304e-01
5.316080e-01
5.245458e-01
5.198081e-01
5.181624e-01
5.198975e-01
5.247033e-01
5.318131e-01
5.403226e-01
5.491439e-01
5.578228e-01
5.652014e-01
0.000000e+00
1.000000e+00
5.666838e-01
5.597569e-01
5.522587e-01
5.445966e-01
5.373383e-01
5.312508e-01
5.271661e-01
5.257458e-01
5.272399e-01
5.313796e-01
5.375026e-01
5.448575e-01
5.524557e-01
5.600410e-01
5.662847e-01
0.000000e+00
1.000000e+00
5.678167e-01
5.620909e-01
5.559101e-01
5.495948e-01
5.436114e-01
5.385920e-01
5.352225e-01
5.340494e-01
5.352792e-01
5.386908e-01
5.437326e-01
5.498154e-01
5.560975e-01
5.625784e-01
5.667204e-01
0.000000e+00
1.000000e+00
5.690100e-01
5.645263e-01
5.597226e-01
5.548140e-01
5.501626e-01
5.462593e-01
5.436376e-01
5.427230e-01
5.436770e-01
5.463287e-01
5.502434e-01
5.549866e-01
5.598815e-01
5.648634e-01
5.677019e-01
0.000000e+00
1.000000e+00
5.701958e-01
5.669406e-01
5.635053e-01
5.599928e-01
5.566637e-01
5.538690e-01
5.519907e-01
5.513331e-01
5.520136e-01
5.539112e-01
5.567107e-01
5.601207e-01
5.636299e-01
5.670080e-01
5.698975e-01
0.000000e+00
1.000000e+00
5.713245e-01
5.691999e-01
5.670481e-01
5.648433e-01
5.627532e-01
5.609980e-01
5.598171e-01
5.594017e-01
5.598262e-01
5.610164e-01
5.627711e-01
5.649416e-01
5.671553e-01
5.692159e-01
5.713419e-01
0.000000e+00
1.000000e+00
5.723391e-01
5.711722e-01
5.701449e-01
5.690832e-01
5.680766e-01
5.672308e-01
5.666609e-01
5.664589e-01
5.666605e-01
5.672308e-01
5.680704e-01
5.691506e-01
5.702318e-01
5.711603e-01
5.721713e-01
0.000000e+00
1.000000e+00
5.731523e-01
5.727455e-01
5.726193e-01
5.724711e-01
5.723305e-01
5.722122e-01
5.721319e-01
5.721021e-01
5.721275e-01
5.722035e-01
5.723138e-01
5.724914e-01
5.726855e-01
5.727559e-01
5.732023e-01
0.000000e+00
1.000000e+00
5.737168e-01
5.738414e-01
5.743477e-01
5.748376e-01
5.753021e-01
5.756924e-01
5.759549e-01
5.760468e-01
5.759508e-01
5.756833e-01
5.752873e-01
5.748437e-01
5.744162e-01
5.738385e-01
5.736894e-01
0.000000e+00
1.000000e+00
5.740233e-01
5.744226e-01
5.752709e-01
5.761018e-01
5.768898e-01
5.775519e-01
5.779980e-01
5.781554e-01
5.779955e-01
5.775451e-01
5.768832e-01
5.761289e-01
5.753439e-01
5.744016e-01
5.731631e-01
0.000000e+00
1.000000e+00
5.740769e-01
5.744969e-01
5.753974e-01
5.762754e-01
5.771080e-01
5.778077e-01
5.782793e-01
5.784460e-01
5.782775e-01
5.778024e-01
5.771049e-01
5.763083e-01
5.754625e-01
5.745587e-01
5.728616e-01
0.000000e+00
1.000000e+00
5.738850e-01
5.741132e-01
5.747959e-01
5.754520e-01
5.760741e-01
5.765969e-01
5.769492e-01
5.770734e-01
5.769468e-01
5.765909e-01
5.760683e-01
5.754778e-01
5.748557e-01
5.742279e-01
5.728484e-01
0.000000e+00
1.000000e+00
5.734813e-01
5.733414e-01
5.735761e-01
5.737815e-01
5.739764e-01
5.741401e-01
5.742502e-01
5.742883e-01
5.742469e-01
5.741334e-01
5.739727e-01
5.738212e-01
5.736476e-01
5.734779e-01
5.725541e-01
0.000000e+00
1.000000e+00
5.729192e-01
5.722601e-01
5.718693e-01
5.714443e-01
5.710415e-01
5.707031e-01
5.704749e-01
5.703934e-01
5.704728e-01
5.707002e-01
5.710495e-01
5.715271e-01
5.719668e-01
5.724122e-01
5.721085e-01
0.000000e+00
1.000000e+00
5.722448e-01
5.709539e-01
5.698129e-01
5.686288e-01
5.675064e-01
5.665640e-01
5.659298e-01
5.657059e-01
5.659330e-01
5.665742e-01
5.675398e-01
5.687339e-01
5.699142e-01
5.711004e-01
5.714905e-01
0.000000e+00
1.000000e+00
5.637641e-01
5.534351e-01
5.423714e-01
5.310669e-01
5.203627e-01
5.113884e-01
5.053686e-01
5.032776e-01
5.054839e-01
5.115976e-01
5.206281e-01
5.314011e-01
5.426447e-01
5.536369e-01
5.632688e-01
0.000000e+00
1.000000e+00
5.643581e-01
5.548538e-01
5.445951e-01
5.341098e-01
5.241825e-01
5.158611e-01
5.102814e-01
5.083465e-01
5.103960e-01
5.160664e-01
5.244549e-01
5.344299e-01
5.448462e-01
5.550640e-01
5.639186e-01
0.000000e+00
1.000000e+00
5.652051e-01
5.566225e-01
5.473579e-01
5.378881e-01
5.289202e-01
5.214013e-01
5.163582e-01
5.146074e-01
5.164563e-01
5.215747e-01
5.291578e-01
5.381793e-01
5.475807e-01
5.568389e-01
5.648231e-01
0.000000e+00
1.000000e+00
5.661863e-01
5.586837e-01
5.505827e-01
5.423025e-01
5.344594e-01
5.278823e-01
5.234698e-01
5.219364e-01
5.235520e-01
5.280263e-01
5.346574e-01
5.425605e-01
5.507855e-01
5.590532e-01
5.656780e-01
0.000000e+00
1.000000e+00
5.672807e-01
5.609779e-01
5.541714e-01
5.472150e-01
5.406246e-01
5.350964e-01
5.313861e-01
5.300949e-01
5.314504e-01
5.352088e-01
5.407735e-01
5.474376e-01
5.543693e-01
5.615877e-01
5.655099e-01
0.000000e+00
1.000000e+00
5.684625e-01
5.634060e-01
5.579692e-01
5.524135e-01
5.471492e-01
5.427319e-01
5.397655e-01
5.387310e-01
5.398112e-01
5.428124e-01
5.472484e-01
5.525913e-01
5.581386e-01
5.638097e-01
5.665511e-01
0.000000e+00
1.000000e+00
5.696619e-01
5.658380e-01
5.617775e-01
5.576269e-01
5.536930e-01
5.503910e-01
5.481718e-01
5.473955e-01
5.481998e-01
5.504416e-01
5.537517e-01
5.577488e-01
5.618964e-01
5.659141e-01
5.690695e-01
0.000000e+00
1.000000e+00
5.707988e-01
5.681317e-01
5.653738e-01
5.625503e-01
5.598737e-01
5.576260e-01
5.561139e-01
5.555825e-01
5.561268e-01
5.576510e-01
5.599010e-01
5.626251e-01
5.654588e-01
5.681398e-01
5.708038e-01
0.000000e+00
1.000000e+00
5.718166e-01
5.701468e-01
5.685369e-01
5.668811e-01
5.653111e-01
5.639920e-01
5.631034e-01
5.627892e-01
5.631053e-01
5.639972e-01
5.653147e-01
5.669241e-01
5.686020e-01
5.701449e-01
5.722096e-01
0.000000e+00
1.000000e+00
5.726420e-01
5.717623e-01
5.710755e-01
5.703573e-01
5.696760e-01
5.691032e-01
5.687168e-01
5.685789e-01
5.687134e-01
5.690971e-01
5.696648e-01
5.703725e-01
5.711190e-01
5.718066e-01
5.734261e-01
0.000000e+00
1.000000e+00
5.732244e-01
5.728917e-01
5.728544e-01
5.727929e-01
5.727345e-01
5.726852e-01
5.726515e-01
5.726387e-01
5.726482e-01
5.726781e-01
5.727225e-01
5.727874e-01
5.728858e-01
5.729075e-01
5.740270e-01
0.000000e+00
1.000000e+00
5.735360e-01
5.734918e-01
5.738081e-01
5.740984e-01
5.743737e-01
5.746050e-01
5.747607e-01
5.748154e-01
5.747593e-01
5.746015e-01
5.743675e-01
5.741010e-01
5.738359e-01
5.733659e-01
5.734284e-01
0.000000e+00
1.000000e+00
5.735878e-01
5.735691e-01
5.739420e-01
5.742823e-01
5.746050e-01
5.748761e-01
5.750588e-01
5.751234e-01
5.750585e-01
5.748754e-01
5.746042e-01
5.742905e-01
5.739620e-01
5.734734e-01
5.725618e-01
0.000000e+00
1.000000e+00
5.733965e-01
5.731773e-01
5.733292e-01
5.734436e-01
5.735520e-01
5.736432e-01
5.737045e-01
5.737259e-01
5.737034e-01
5.736418e-01
5.735550e-01
5.734599e-01
5.733541e-01
5.731727e-01
5.722746e-01
0.000000e+00
1.000000e+00
5.729942e-01
5.723923e-01
5.720876e-01
5.717434e-01
5.714169e-01
5.711427e-01
5.709578e-01
5.708920e-01
5.709568e-01
5.711424e-01
5.714280e-01
5.717877e-01
5.721352e-01
5.724383e-01
5.720163e-01
0.000000e+00
1.000000e+00
5.724364e-01
5.712949e-01
5.703556e-01
5.693718e-01
5.684390e-01
5.676554e-01
5.671279e-01
5.669416e-01
5.671302e-01
5.676630e-01
5.684653e-01
5.694463e-01
5.704364e-01
5.713778e-01
5.715578e-01
0.000000e+00
1.000000e+00
5.717587e-01
5.699739e-01
5.682770e-01
5.665258e-01
5.648659e-01
5.634720e-01
5.625342e-01
5.622045e-01
5.625429e-01
5.634934e-01
5.649127e-01
5.666105e-01
5.683588e-01
5.700803e-01
5.709615e-01
0.000000e+00
1.000000e+00
5.636267e-01
5.531076e-01
5.418570e-01
5.303627e-01
5.194799e-01
5.103570e-01
5.042387e-01
5.021154e-01
5.043611e-01
5.105796e-01
5.197512e-01
5.307428e-01
5.421072e-01
5.533248e-01
5.630491e-01
0.000000e+00
1.000000e+00
5.641887e-01
5.544197e-01
5.439143e-01
5.331778e-01
5.230133e-01
5.144937e-01
5.087818e-01
5.068020e-01
5.089024e-01
5.147105e-01
5.232957e-01
5.335301e-01
5.441454e-01
5.546499e-01
5.636364e-01
0.000000e+00
1.000000e+00
5.649904e-01
5.560973e-01
5.465362e-01
5.367638e-01
5.275099e-01
5.197524e-01
5.145500e-01
5.127452e-01
5.146547e-01
5.199388e-01
5.277652e-01
5.370739e-01
5.467570e-01
5.563516e-01
5.646167e-01
0.000000e+00
1.000000e+00
5.659384e-01
5.580914e-01
5.496581e-01
5.410372e-01
5.328721e-01
5.260256e-01
5.214333e-01
5.198386e-01
5.215221e-01
5.261824e-01
5.330902e-01
5.413112e-01
5.498744e-01
5.585746e-01
5.650605e-01
0.000000e+00
1.000000e+00
5.669927e-01
5.603445e-01
5.531844e-01
5.458647e-01
5.389306e-01
5.331146e-01
5.292118e-01
5.278546e-01
5.292822e-01
5.332384e-01
5.390984e-01
5.461078e-01
5.533933e-01
5.610580e-01
5.645384e-01
0.000000e+00
1.000000e+00
5.681489e-01
5.627607e-01
5.569613e-01
5.510344e-01
5.454186e-01
5.407068e-01
5.375431e-01
5.364407e-01
5.375940e-01
5.407968e-01
5.455336e-01
5.512343e-01
5.571280e-01
5.631967e-01
5.661910e-01
0.000000e+00
1.000000e+00
5.693631e-01
5.652041e-01
5.607843e-01
5.562671e-01
5.519861e-01
5.483929e-01
5.459785e-01
5.451346e-01
5.460104e-01
5.484507e-01
5.520563e-01
5.564030e-01
5.608893e-01
5.652819e-01
5.687004e-01
0.000000e+00
1.000000e+00
5.705170e-01
5.675229e-01
5.644189e-01
5.612428e-01
5.582319e-01
5.557037e-01
5.540032e-01
5.534061e-01
5.540185e-01
5.557331e-01
5.582674e-01
5.613161e-01
5.644802e-01
5.675139e-01
5.703043e-01
0.000000e+00
1.000000e+00
5.715350e-01
5.695695e-01
5.676306e-01
5.656399e-01
5.637522e-01
5.621663e-01
5.610981e-01
5.607207e-01
5.611010e-01
5.621735e-01
5.637616e-01
5.656683e-01
5.676626e-01
5.696056e-01
5.721025e-01
0.000000e+00
1.000000e+00
5.723683e-01
5.712129e-01
5.702146e-01
5.691779e-01
5.681945e-01
5.673678e-01
5.668101e-01
5.666114e-01
5.668063e-01
5.673614e-01
5.681862e-01
5.691786e-01
5.702284e-01
5.714025e-01
5.737363e-01
0.000000e+00
1.000000e+00
5.729734e-01
5.723604e-01
5.720235e-01
5.716550e-01
5.713054e-01
5.710112e-01
5.708124e-01
5.707408e-01
5.708083e-01
5.710027e-01
5.712922e-01
5.716408e-01
5.720264e-01
5.726270e-01
5.750751e-01
0.000000e+00
1.000000e+00
5.733064e-01
5.729680e-01
5.729875e-01
5.729749e-01
5.729628e-01
5.729524e-01
5.729452e-01
5.729421e-01
5.729433e-01
5.729480e-01
5.729542e-01
5.729655e-01
5.729851e-01
5.730390e-01
5.753536e-01
0.000000e+00
1.000000e+00
5.733486e-01
5.730377e-01
5.731124e-01
5.731458e-01
5.731774e-01
5.732040e-01
5.732219e-01
5.732284e-01
5.732221e-01
5.732037e-01
5.731745e-01
5.731407e-01
5.731051e-01
5.729054e-01
5.743778e-01
0.000000e+00
1.000000e+00
5.731309e-01
5.726262e-01
5.724706e-01
5.722676e-01
5.720752e-01
5.719135e-01
5.718047e-01
5.717662e-01
5.718052e-01
5.719159e-01
5.720804e-01
5.722726e-01
5.724760e-01
5.724767e-01
5.734372e-01
0.000000e+00
1.000000e+00
5.727036e-01
5.718180e-01
5.711898e-01
5.705141e-01
5.698734e-01
5.693351e-01
5.689726e-01
5.688444e-01
5.689737e-01
5.693403e-01
5.698910e-01
5.705444e-01
5.712208e-01
5.717055e-01
5.727085e-01
0.000000e+00
1.000000e+00
5.721362e-01
5.706951e-01
5.694164e-01
5.680858e-01
5.668243e-01
5.657646e-01
5.650514e-01
5.648002e-01
5.650564e-01
5.657783e-01
5.668558e-01
5.681370e-01
5.694758e-01
5.706216e-01
5.718058e-01
0.000000e+00
1.000000e+00
5.714586e-01
5.693493e-01
5.672992e-01
5.651871e-01
5.631849e-01
5.615036e-01
5.603726e-01
5.599756e-01
5.603843e-01
5.615304e-01
5.632332e-01
5.652516e-01
5.673642e-01
5.693402e-01
5.706773e-01
0.000000e+00
1.000000e+00
5.637005e-01
5.532780e-01
5.421221e-01
5.307248e-01
5.199352e-01
5.108917e-01
5.048279e-01
5.027255e-01
5.049546e-01
5.111243e-01
5.202095e-01
5.311267e-01
5.423684e-01
5.535446e-01
5.629678e-01
0.000000e+00
1.000000e+00
5.642573e-01
5.545098e-01
5.440523e-01
5.333659e-01
5.232491e-01
5.147701e-01
5.090861e-01
5.071172e-01
5.092095e-01
5.149937e-01
5.235353e-01
5.337352e-01
5.442739e-01
5.547598e-01
5.635687e-01
0.000000e+00
1.000000e+00
5.650202e-01
5.561147e-01
5.465633e-01
5.368012e-01
5.275575e-01
5.198093e-01
5.146141e-01
5.128132e-01
5.147226e-01
5.200041e-01
5.278211e-01
5.371301e-01
5.467783e-01
5.564132e-01
5.645999e-01
0.000000e+00
1.000000e+00
5.659391e-01
5.580568e-01
5.496041e-01
5.409636e-01
5.327803e-01
5.259193e-01
5.213181e-01
5.197217e-01
5.214110e-01
5.260845e-01
5.330092e-01
5.412579e-01
5.498249e-01
5.586311e-01
5.645221e-01
0.000000e+00
1.000000e+00
5.669830e-01
5.602784e-01
5.530810e-01
5.457233e-01
5.387536e-01
5.329083e-01
5.289867e-01
5.276243e-01
5.290610e-01
5.330399e-01
5.389340e-01
5.459894e-01
5.532913e-01
5.610583e-01
5.641176e-01
0.000000e+00
1.000000e+00
5.681335e-01
5.626824e-01
5.568395e-01
5.508679e-01
5.452099e-01
5.404633e-01
5.372769e-01
5.361677e-01
5.373312e-01
5.405600e-01
5.453379e-01
5.510879e-01
5.570032e-01
5.631654e-01
5.657060e-01
0.000000e+00
1.000000e+00
5.693440e-01
5.651310e-01
5.606702e-01
5.561112e-01
5.517908e-01
5.481650e-01
5.457291e-01
5.448784e-01
5.457634e-01
5.482277e-01
5.518718e-01
5.562607e-01
5.607800e-01
5.652146e-01
5.685755e-01
0.000000e+00
1.000000e+00
5.705018e-01
5.674663e-01
5.643296e-01
5.611207e-01
5.580790e-01
5.555252e-01
5.538077e-01
5.532050e-01
5.538242e-01
5.555573e-01
5.581217e-01
5.612025e-01
5.643991e-01
5.674474e-01
5.707061e-01
0.000000e+00
1.000000e+00
5.715308e-01
5.695333e-01
5.675711e-01
5.655586e-01
5.636504e-01
5.620472e-01
5.609674e-01
5.605858e-01
5.609701e-01
5.620545e-01
5.636632e-01
5.655918e-01
5.676091e-01
5.695651e-01
5.719155e-01
0.000000e+00
1.000000e+00
5.723873e-01
5.711916e-01
5.701787e-01
5.691285e-01
5.681324e-01
5.672949e-01
5.667297e-01
5.665277e-01
5.667241e-01
5.672857e-01
5.681233e-01
5.691305e-01
5.701945e-01
5.713185e-01
5.722295e-01
0.000000e+00
1.000000e+00
5.729871e-01
5.723407e-01
5.719957e-01
5.716162e-01
5.712562e-01
5.709531e-01
5.707480e-01
5.706734e-01
5.707412e-01
5.709398e-01
5.712384e-01
5.716005e-01
5.719954e-01
5.725621e-01
5.730665e-01
0.000000e+00
1.000000e+00
5.733053e-01
5.729382e-01
5.729452e-01
5.729167e-01
5.728895e-01
5.728663e-01
5.728502e-01
5.728434e-01
5.728464e-01
5.728584e-01
5.728774e-01
5.729045e-01
5.729355e-01
5.732555e-01
5.751522e-01
0.000000e+00
1.000000e+00
5.733503e-01
5.729877e-01
5.730364e-01
5.730416e-01
5.730464e-01
5.730504e-01
5.730527e-01
5.730529e-01
5.730507e-01
5.730460e-01
5.730384e-01
5.730299e-01
5.730159e-01
5.731665e-01
5.755201e-01
0.000000e+00
1.000000e+00
5.730936e-01
5.725409e-01
5.723452e-01
5.720955e-01
5.718587e-01
5.716598e-01
5.715259e-01
5.714785e-01
5.715258e-01
5.716591e-01
5.718547e-01
5.720847e-01
5.723327e-01
5.725353e-01
5.748915e-01
0.000000e+00
1.000000e+00
5.726414e-01
5.716937e-01
5.710021e-01
5.702570e-01
5.695505e-01
5.689569e-01
5.685571e-01
5.684159e-01
5.685584e-01
5.689618e-01
5.695604e-01
5.702654e-01
5.710171e-01
5.715989e-01
5.739532e-01
0.000000e+00
1.000000e+00
5.720679e-01
5.705325e-01
5.691644e-01
5.677407e-01
5.663910e-01
5.652573e-01
5.644941e-01
5.642253e-01
5.644993e-01
5.652712e-01
5.664169e-01
5.677706e-01
5.692058e-01
5.703816e-01
5.731162e-01
0.000000e+00
1.000000e+00
5.713762e-01
5.691485e-01
5.669855e-01
5.647576e-01
5.626457e-01
5.608723e-01
5.596793e-01
5.592605e-01
5.596913e-01
5.608992e-01
5.626885e-01
5.648040e-01
5.670361e-01
5.689667e-01
5.715257e-01
0.000000e+00
1.000000e+00
5.639865e-01
5.539643e-01
5.431969e-01
5.321947e-01
5.217798e-01
5.130514e-01
5.072005e-01
5.051741e-01
5.073284e-01
5.132884e-01
5.220541e-01
5.325981e-01
5.434436e-01
5.542778e-01
5.630318e-01
0.000000e+00
1.000000e+00
5.645555e-01
5.551488e-01
5.450506e-01
5.347312e-01
5.249615e-01
5.167739e-01
5.112859e-01
5.093865e-01
5.114087e-01
5.169978e-01
5.252457e-01
5.350980e-01
5.452696e-01
5.553915e-01
5.638846e-01
0.000000e+00
1.000000e+00
5.652916e-01
5.567091e-01
5.474936e-01
5.380746e-01
5.291560e-01
5.216807e-01
5.166695e-01
5.149339e-01
5.167784e-01
5.218775e-01
5.294211e-01
5.384059e-01
5.477130e-01
5.570286e-01
5.648715e-01
0.000000e+00
1.000000e+00
5.661965e-01
5.586216e-01
5.504868e-01
5.421718e-01
5.342970e-01
5.276951e-01
5.232687e-01
5.217344e-01
5.233623e-01
5.278630e-01
5.345299e-01
5.424738e-01
5.507162e-01
5.592424e-01
5.645786e-01
0.000000e+00
1.000000e+00
5.672508e-01
5.608270e-01
5.539367e-01
5.468943e-01
5.402235e-01
5.346294e-01
5.308773e-01
5.295752e-01
5.309524e-01
5.347638e-01
5.404111e-01
5.471706e-01
5.541543e-01
5.615955e-01
5.643827e-01
0.000000e+00
1.000000e+00
5.684141e-01
5.632249e-01
5.576872e-01
5.520281e-01
5.466665e-01
5.421689e-01
5.391505e-01
5.381010e-01
5.392054e-01
5.422678e-01
5.468035e-01
5.522582e-01
5.578652e-01
5.636761e-01
5.661489e-01
0.000000e+00
1.000000e+00
5.696221e-01
5.656765e-01
5.615244e-01
5.572808e-01
5.532595e-01
5.498849e-01
5.476185e-01
5.468276e-01
5.476529e-01
5.499491e-01
5.533485e-01
5.574460e-01
5.616626e-01
5.657767e-01
5.689318e-01
0.000000e+00
1.000000e+00
5.707783e-01
5.680207e-01
5.651974e-01
5.623094e-01
5.595720e-01
5.572738e-01
5.557285e-01
5.551862e-01
5.557440e-01
5.573056e-01
5.596200e-01
5.624116e-01
5.653064e-01
5.680055e-01
5.710633e-01
0.000000e+00
1.000000e+00
5.718173e-01
5.700956e-01
5.684503e-01
5.667629e-01
5.651631e-01
5.638190e-01
5.629137e-01
5.625931e-01
5.629144e-01
5.638239e-01
5.651774e-01
5.668164e-01
5.685327e-01
5.701270e-01
5.728378e-01
0.000000e+00
1.000000e+00
5.726913e-01
5.717537e-01
5.710571e-01
5.703319e-01
5.696441e-01
5.690656e-01
5.686748e-01
5.685341e-01
5.686675e-01
5.690534e-01
5.696338e-01
5.703473e-01
5.711106e-01
5.718540e-01
5.727564e-01
0.000000e+00
1.000000e+00
5.733040e-01
5.728900e-01
5.728559e-01
5.727944e-01
5.727360e-01
5.726863e-01
5.726518e-01
5.726370e-01
5.726436e-01
5.726717e-01
5.727200e-01
5.727907e-01
5.728885e-01
5.728358e-01
5.700778e-01
0.000000e+00
1.000000e+00
5.736052e-01
5.734576e-01
5.737681e-01
5.740431e-01
5.743038e-01
5.745226e-01
5.746693e-01
5.747197e-01
5.746639e-01
5.745138e-01
5.742965e-01
5.740421e-01
5.737857e-01
5.734653e-01
5.715197e-01
0.000000e+00
1.000000e+00
5.736150e-01
5.734669e-01
5.737996e-01
5.740864e-01
5.743583e-01
5.745866e-01
5.747397e-01
5.747926e-01
5.747355e-01
5.745799e-01
5.743528e-01
5.740812e-01
5.738002e-01
5.737233e-01
5.741076e-01
0.000000e+00
1.000000e+00
5.733243e-01
5.729691e-01
5.730342e-01
5.730386e-01
5.730428e-01
5.730463e-01
5.730480e-01
5.730473e-01
5.730434e-01
5.730376e-01
5.730318e-01
5.730232e-01
5.730271e-01
5.732534e-01
5.752172e-01
0.000000e+00
1.000000e+00
5.728376e-01
5.720670e-01
5.716053e-01
5.710823e-01
5.705866e-01
5.701700e-01
5.698893e-01
5.697898e-01
5.698884e-01
5.701685e-01
5.705823e-01
5.710744e-01
5.716147e-01
5.722376e-01
5.749335e-01
0.000000e+00
1.000000e+00
5.722574e-01
5.708559e-01
5.696760e-01
5.684413e-01
5.672709e-01
5.662877e-01
5.656257e-01
5.653921e-01
5.656286e-01
5.662966e-01
5.672849e-01
5.684556e-01
5.697117e-01
5.709139e-01
5.745559e-01
0.000000e+00
1.000000e+00
5.715193e-01
5.694170e-01
5.674084e-01
5.653368e-01
5.633732e-01
5.617244e-01
5.606153e-01
5.602257e-01
5.606258e-01
5.617484e-01
5.634077e-01
5.653701e-01
5.674536e-01
5.692723e-01
5.737517e-01
0.000000e+00
1.000000e+00
5.644997e-01
5.551525e-01
5.450573e-01
5.347397e-01
5.249723e-01
5.167873e-01
5.113020e-01
5.094044e-01
5.114273e-01
5.170197e-01
5.252405e-01
5.351281e-01
5.452997e-01
5.554942e-01
5.633394e-01
0.000000e+00
1.000000e+00
5.650886e-01
5.563255e-01
5.468904e-01
5.372485e-01
5.281194e-01
5.204685e-01
5.153411e-01
5.135676e-01
5.154592e-01
5.206846e-01
5.283928e-01
5.375972e-01
5.471109e-01
5.565556e-01
5.645919e-01
0.000000e+00
1.000000e+00
5.658280e-01
5.578745e-01
5.493157e-01
5.405684e-01
5.322855e-01
5.253432e-01
5.206902e-01
5.190802e-01
5.207957e-01
5.255347e-01
5.325438e-01
5.408884e-01
5.495402e-01
5.582007e-01
5.653865e-01
0.000000e+00
1.000000e+00
5.667432e-01
5.597818e-01
5.523008e-01
5.446547e-01
5.374133e-01
5.313426e-01
5.272732e-01
5.258642e-01
5.273635e-01
5.315060e-01
5.376421e-01
5.449526e-01
5.525411e-01
5.603951e-01
5.650152e-01
0.000000e+00
1.000000e+00
5.677993e-01
5.619865e-01
5.557508e-01
5.493778e-01
5.433409e-01
5.382787e-01
5.348840e-01
5.337077e-01
5.349562e-01
5.384092e-01
5.435283e-01
5.496563e-01
5.559830e-01
5.626945e-01
5.650453e-01
0.000000e+00
1.000000e+00
5.689643e-01
5.643884e-01
5.595081e-01
5.545211e-01
5.497964e-01
5.458333e-01
5.431741e-01
5.422507e-01
5.432262e-01
5.459284e-01
5.499364e-01
5.547620e-01
5.597148e-01
5.648473e-01
5.670175e-01
0.000000e+00
1.000000e+00
5.701786e-01
5.668458e-01
5.633546e-01
5.597868e-01
5.564059e-01
5.535692e-01
5.516644e-01
5.510000e-01
5.516950e-01
5.536285e-01
5.564982e-01
5.599788e-01
5.635393e-01
5.670565e-01
5.691296e-01
0.000000e+00
1.000000e+00
5.713470e-01
5.691937e-01
5.670336e-01
5.648235e-01
5.627289e-01
5.609706e-01
5.597883e-01
5.593727e-01
5.597988e-01
5.609948e-01
5.627765e-01
5.649612e-01
5.671982e-01
5.692358e-01
5.714388e-01
0.000000e+00
1.000000e+00
5.724015e-01
5.712641e-01
5.702815e-01
5.692704e-01
5.683119e-01
5.675067e-01
5.669638e-01
5.667700e-01
5.669597e-01
5.675021e-01
5.683193e-01
5.693485e-01
5.704135e-01
5.713217e-01
5.736160e-01
0.000000e+00
1.000000e+00
5.732780e-01
5.729056e-01
5.728654e-01
5.728084e-01
5.727545e-01
5.727089e-01
5.726771e-01
5.726632e-01
5.726684e-01
5.726938e-01
5.727433e-01
5.728397e-01
5.729749e-01
5.730377e-01
5.733476e-01
0.000000e+00
1.000000e+00
5.738980e-01
5.740121e-01
5.746195e-01
5.752103e-01
5.757707e-01
5.762416e-01
5.765586e-01
5.766699e-01
5.765555e-01
5.762384e-01
5.757769e-01
5.752419e-01
5.747226e-01
5.739708e-01
5.716210e-01
0.000000e+00
1.000000e+00
5.742183e-01
5.745348e-01
5.754667e-01
5.763705e-01
5.772279e-01
5.779488e-01
5.784353e-01
5.786087e-01
5.784398e-01
5.779611e-01
5.772541e-01
5.764117e-01
5.755577e-01
5.742848e-01
5.704452e-01
0.000000e+00
1.000000e+00
5.742165e-01
5.744830e-01
5.754180e-01
5.763029e-01
5.771424e-01
5.778484e-01
5.783247e-01
5.784946e-01
5.783289e-01
5.778579e-01
5.771635e-01
5.763328e-01
5.754863e-01
5.742665e-01
5.696176e-01
0.000000e+00
1.000000e+00
5.738912e-01
5.739103e-01
5.745566e-01
5.751228e-01
5.756596e-01
5.761107e-01
5.764141e-01
5.765203e-01
5.764106e-01
5.761069e-01
5.756644e-01
5.751289e-01
5.746011e-01
5.739938e-01
5.709265e-01
0.000000e+00
1.000000e+00
5.733391e-01
5.729424e-01
5.730208e-01
5.730203e-01
5.730203e-01
5.730203e-01
5.730199e-01
5.730186e-01
5.730155e-01
5.730127e-01
5.730118e-01
5.730120e-01
5.730565e-01
5.732299e-01
5.731511e-01
0.000000e+00
1.000000e+00
5.727112e-01
5.716781e-01
5.709758e-01
5.702210e-01
5.695058e-01
5.689057e-01
5.685020e-01