<?xml version="1.0"?>
<VTKFile type="StructuredGrid" version="0.1">
  <StructuredGrid WholeExtent="0 16 0 16 0 16">
    <Piece Extent="0 16 0 16 0 16">
      <PointData Scalars="temperature" Vectors="velocity">
        <DataArray type="Float32" Name="temperature" format="ascii">
1.000000e+00
5.814669e-01
5.882069e-01
5.972656e-01
6.062230e-01
6.147253e-01
6.218826e-01
6.267259e-01
6.284803e-01
6.268459e-01
6.221174e-01
6.150949e-01
6.065589e-01
5.975724e-01
5.887830e-01
5.796250e-01
0.000000e+00
1.000000e+00
5.805094e-01
5.864821e-01
5.944758e-01
6.024006e-01
6.099220e-01
6.162515e-01
6.205308e-01
6.220752e-01
6.206245e-01
6.164509e-01
6.102386e-01
6.026951e-01
5.947808e-01
5.870106e-01
5.789578e-01
0.000000e+00
1.000000e+00
5.793897e-01
5.845160e-01
5.912933e-01
5.980410e-01
6.044444e-01
6.098310e-01
6.134691e-01
6.147752e-01
6.135304e-01
6.099869e-01
6.046895e-01
5.982785e-01
5.915718e-01
5.849697e-01
5.779288e-01
0.000000e+00
1.000000e+00
5.781483e-01
5.823381e-01
5.877952e-01
5.932504e-01
5.984263e-01
6.027790e-01
6.057161e-01
6.067647e-01
6.057485e-01
6.028834e-01
5.986063e-01
5.934518e-01
5.880675e-01
5.827286e-01
5.770244e-01
0.000000e+00
1.000000e+00
5.768745e-01
5.800159e-01
5.840955e-01
5.881851e-01
5.920649e-01
5.953266e-01
5.975255e-01
5.983066e-01
5.975376e-01
5.953807e-01
5.921821e-01
5.883520e-01
5.843575e-01
5.803567e-01
5.759044e-01
0.000000e+00
1.000000e+00
5.756059e-01
5.776509e-01
5.803435e-01
5.830486e-01
5.856148e-01
5.877721e-01
5.892259e-01
5.897394e-01
5.892245e-01
5.877865e-01
5.856712e-01
5.831739e-01
5.805916e-01
5.779564e-01
5.747642e-01
0.000000e+00
1.000000e+00
5.743823e-01
5.753560e-01
5.767153e-01
5.780808e-01
5.793769e-01
5.804671e-01
5.812012e-01
5.814573e-01
5.811899e-01
5.804516e-01
5.793834e-01
5.781562e-01
5.769227e-01
5.756209e-01
5.737290e-01
0.000000e+00
1.000000e+00
5.733050e-01
5.732467e-01
5.733898e-01
5.735269e-01
5.736587e-01
5.737708e-01
5.738462e-01
5.738694e-01
5.738342e-01
5.737474e-01
5.736541e-01
5.735846e-01
5.735436e-01
5.734547e-01
5.726641e-01
0.000000e+00
1.000000e+00
5.725660e-01
5.714476e-01
5.705386e-01
5.696248e-01
5.687607e-01
5.680370e-01
5.675511e-01
5.673788e-01
5.675491e-01
5.680354e-01
5.687887e-01
5.696892e-01
5.706729e-01
5.716297e-01
5.713625e-01
0.000000e+00
1.000000e+00
5.719511e-01
5.700343e-01
5.683111e-01
5.665746e-01
5.649307e-01
5.635528e-01
5.626281e-01
5.623050e-01
5.626406e-01
5.635792e-01
5.649858e-01
5.666526e-01
5.684358e-01
5.702218e-01
5.703589e-01
0.000000e+00
1.000000e+00
5.712581e-01
5.690468e-01
5.668019e-01
5.645079e-01
5.623358e-01
5.605147e-01
5.592920e-01
5.588655e-01
5.593116e-01
5.605545e-01
5.624032e-01
5.645978e-01
5.669136e-01
5.692605e-01
5.697494e-01
0.000000e+00
1.000000e+00
5.709428e-01
5.685586e-01
5.660518e-01
5.634818e-01
5.610482e-01
5.590079e-01
5.576390e-01
5.571632e-01
5.576652e-01
5.590557e-01
5.611167e-01
5.635794e-01
5.661589e-01
5.688227e-01
5.691832e-01
0.000000e+00
1.000000e+00
5.709249e-01
5.685594e-01
5.660494e-01
5.634788e-01
5.610446e-01
5.590041e-01
5.576356e-01
5.571611e-01
5.576661e-01
5.590627e-01
5.611169e-01
5.635844e-01
5.661582e-01
5.688525e-01
5.693159e-01
0.000000e+00
1.000000e+00
5.711328e-01
5.690013e-01
5.667365e-01
5.644190e-01
5.622244e-01
5.603847e-01
5.591511e-01
5.587238e-01
5.591804e-01
5.604441e-01
5.623013e-01
5.645323e-01
5.668516e-01
5.693107e-01
5.697130e-01
0.000000e+00
1.000000e+00
5.715222e-01
5.698203e-01
5.680155e-01
5.661697e-01
5.644216e-01
5.629561e-01
5.619733e-01
5.616324e-01
5.619959e-01
5.630052e-01
5.644948e-01
5.663003e-01
5.681441e-01
5.700816e-01
5.708824e-01
0.000000e+00
1.000000e+00
5.720699e-01
5.709424e-01
5.697686e-01
5.685696e-01
5.674342e-01
5.664822e-01
5.658433e-01
5.656203e-01
5.658539e-01
5.665085e-01
5.674832e-01
5.687257e-01
5.699272e-01
5.713676e-01
5.718648e-01
0.000000e+00
1.000000e+00
5.727729e-01
5.722851e-01
5.718714e-01
5.714485e-01
5.710484e-01
5.707132e-01
5.704878e-01
5.704072e-01
5.704847e-01
5.707102e-01
5.710511e-01
5.716046e-01
5.720512e-01
5.734188e-01
5.681445e-01
0.000000e+00
1.000000e+00
5.824029e-01
5.898282e-01
5.998447e-01
6.097543e-01
6.191618e-01
6.270841e-01
6.324508e-01
6.344057e-01
6.326084e-01
6.273472e-01
6.195915e-01
6.101459e-01
6.001553e-01
5.903956e-01
5.808058e-01
0.000000e+00
1.000000e+00
5.814263e-01
5.882385e-01
5.972500e-01
6.061957e-01
6.146871e-01
6.218355e-01
6.266733e-01
6.284321e-01
6.268117e-01
6.220562e-01
6.150802e-01
6.065580e-01
5.975704e-01
5.887503e-01
5.799231e-01
0.000000e+00
1.000000e+00
5.803508e-01
5.863573e-01
5.942107e-01
6.020326e-01
6.094554e-01
6.157014e-01
6.199238e-01
6.214503e-01
6.200256e-01
6.158849e-01
6.097781e-01
6.023241e-01
5.944965e-01
5.868033e-01
5.789797e-01
0.000000e+00
1.000000e+00
5.791662e-01
5.842271e-01
5.907971e-01
5.973591e-01
6.035849e-01
6.088215e-01
6.123575e-01
6.136275e-01
6.124222e-01
6.089608e-01
6.038318e-01
5.975988e-01
5.910679e-01
5.846194e-01
5.780296e-01
0.000000e+00
1.000000e+00
5.779186e-01
5.819214e-01
5.871228e-01
5.923295e-01
5.972685e-01
6.014213e-01
6.042230e-01
6.052233e-01
6.042561e-01
6.015118e-01
5.974450e-01
5.925268e-01
5.873774e-01
5.822663e-01
5.769101e-01
0.000000e+00
1.000000e+00
5.766441e-01
5.795411e-01
5.833411e-01
5.871525e-01
5.907677e-01
5.938065e-01
5.958550e-01
5.965830e-01
5.958671e-01
5.938525e-01
5.908784e-01
5.873090e-01
5.835784e-01
5.798435e-01
5.757600e-01
0.000000e+00
1.000000e+00
5.753766e-01
5.772047e-01
5.796356e-01
5.820788e-01
5.843963e-01
5.863442e-01
5.876565e-01
5.881201e-01
5.876549e-01
5.863553e-01
5.844461e-01
5.821881e-01
5.798501e-01
5.774699e-01
5.746293e-01
0.000000e+00
1.000000e+00
5.742261e-01
5.750287e-01
5.762001e-01
5.773752e-01
5.784900e-01
5.794268e-01
5.800568e-01
5.802762e-01
5.800462e-01
5.794126e-01
5.784963e-01
5.774346e-01
5.763650e-01
5.752481e-01
5.736842e-01
0.000000e+00
1.000000e+00
5.733142e-01
5.731470e-01
5.732271e-01
5.733040e-01
5.733778e-01
5.734402e-01
5.734816e-01
5.734927e-01
5.734700e-01
5.734210e-01
5.733774e-01
5.733400e-01
5.733367e-01
5.733065e-01
5.728238e-01
0.000000e+00
1.000000e+00
5.727329e-01
5.716634e-01
5.708750e-01
5.700842e-01
5.693356e-01
5.687077e-01
5.682854e-01
5.681357e-01
5.682830e-01
5.687051e-01
5.693559e-01
5.701238e-01
5.709632e-01
5.717812e-01
5.720437e-01
0.000000e+00
1.000000e+00
5.720458e-01
5.706124e-01
5.692561e-01
5.678666e-01
5.665509e-01
5.654474e-01
5.647063e-01
5.644472e-01
5.647156e-01
5.654655e-01
5.665905e-01
5.679218e-01
5.693361e-01
5.707239e-01
5.716666e-01
0.000000e+00
1.000000e+00
5.717040e-01
5.700694e-01
5.684194e-01
5.667224e-01
5.651151e-01
5.637671e-01
5.628619e-01
5.625464e-01
5.628765e-01
5.637945e-01
5.651597e-01
5.667901e-01
5.684974e-01
5.702241e-01
5.711224e-01
0.000000e+00
1.000000e+00
5.716438e-01
5.700295e-01
5.683549e-01
5.666348e-01
5.650060e-01
5.636401e-01
5.627236e-01
5.624055e-01
5.627433e-01
5.636786e-01
5.650553e-01
5.667153e-01
5.684402e-01
5.702610e-01
5.709474e-01
0.000000e+00
1.000000e+00
5.718347e-01
5.704464e-01
5.690018e-01
5.675203e-01
5.661174e-01
5.649410e-01
5.641517e-01
5.638777e-01
5.641694e-01
5.649791e-01
5.661705e-01
5.676149e-01
5.691037e-01
5.707610e-01
5.708148e-01
0.000000e+00
1.000000e+00
5.722319e-01
5.712510e-01
5.702575e-01
5.692389e-01
5.682744e-01
5.674656e-01
5.669228e-01
5.667333e-01
5.669323e-01
5.674894e-01
5.683168e-01
5.693533e-01
5.703762e-01
5.715847e-01
5.715883e-01
0.000000e+00
1.000000e+00
5.727965e-01
5.723622e-01
5.719960e-01
5.716189e-01
5.712620e-01
5.709629e-01
5.707616e-01
5.706898e-01
5.707596e-01
5.709624e-01
5.712706e-01
5.717457e-01
5.721344e-01
5.729518e-01
5.718642e-01
0.000000e+00
1.000000e+00
5.735009e-01
5.736942e-01
5.740858e-01
5.744802e-01
5.748544e-01
5.751687e-01
5.753795e-01
5.754506e-01
5.753679e-01
5.751470e-01
5.748248e-01
5.745747e-01
5.742239e-01
5.746368e-01
5.680754e-01
0.000000e+00
1.000000e+00
5.830969e-01
5.912058e-01
6.019811e-01
6.126751e-01
6.228294e-01
6.313847e-01
6.371870e-01
6.393133e-01
6.373840e-01
6.316907e-01
6.233172e-01
6.131234e-01
6.022826e-01
5.917455e-01
5.814278e-01
0.000000e+00
1.000000e+00
5.821860e-01
5.897325e-01
5.995892e-01
6.093959e-01
6.187055e-01
6.265467e-01
6.318607e-01
6.338053e-01
6.320354e-01
6.268049e-01
6.191645e-01
6.098160e-01
5.999013e-01
5.902367e-01
5.805481e-01
0.000000e+00
1.000000e+00
5.812004e-01
5.879379e-01
5.967077e-01
6.054502e-01
6.137468e-01
6.207310e-01
6.254588e-01
6.271802e-01
6.255965e-01
6.209534e-01
6.141385e-01
6.057850e-01
5.969833e-01
5.883861e-01
5.796608e-01
0.000000e+00
1.000000e+00
5.800690e-01
5.858698e-01
5.933988e-01
6.009208e-01
6.080572e-01
6.140615e-01
6.181205e-01
6.195884e-01
6.182183e-01
6.142416e-01
6.083652e-01
6.011900e-01
5.936563e-01
5.862689e-01
5.787367e-01
0.000000e+00
1.000000e+00
5.788242e-01
5.835962e-01
5.897715e-01
5.959552e-01
6.018210e-01
6.067542e-01
6.100852e-01
6.112813e-01
6.101451e-01
6.068860e-01
6.020503e-01
5.961727e-01
5.900120e-01
5.839436e-01
5.776283e-01
0.000000e+00
1.000000e+00
5.775369e-01
5.812104e-01
5.859795e-01
5.907642e-01
5.953025e-01
5.991180e-01
6.016918e-01
6.026103e-01
6.017207e-01
5.991984e-01
5.954612e-01
5.909359e-01
5.861966e-01
5.815131e-01
5.764650e-01
0.000000e+00
1.000000e+00
5.762554e-01
5.788356e-01
5.822132e-01
5.856082e-01
5.888282e-01
5.915346e-01
5.933587e-01
5.940063e-01
5.933673e-01
5.915695e-01
5.889237e-01
5.857369e-01
5.824067e-01
5.790952e-01
5.753292e-01
0.000000e+00
1.000000e+00
5.750596e-01
5.765982e-01
5.786821e-01
5.807734e-01
5.827568e-01
5.844233e-01
5.855454e-01
5.859414e-01
5.855438e-01
5.844310e-01
5.827969e-01
5.808532e-01
5.788475e-01
5.768326e-01
5.742470e-01
0.000000e+00
1.000000e+00
5.740623e-01
5.746433e-01
5.755964e-01
5.765471e-01
5.774486e-01
5.782056e-01
5.787144e-01
5.788913e-01
5.787056e-01
5.781955e-01
5.774494e-01
5.765742e-01
5.757038e-01
5.748355e-01
5.732981e-01
0.000000e+00
1.000000e+00
5.733946e-01
5.730877e-01
5.731274e-01
5.731677e-01
5.732061e-01
5.732382e-01
5.732586e-01
5.732625e-01
5.732479e-01
5.732220e-01
5.731993e-01
5.731750e-01
5.731883e-01
5.732384e-01
5.724878e-01
0.000000e+00
1.000000e+00
5.727572e-01
5.719817e-01
5.714059e-01
5.708090e-01
5.702436e-01
5.697689e-01
5.694495e-01
5.693363e-01
5.694476e-01
5.697659e-01
5.702525e-01
5.708250e-01
5.714482e-01
5.721239e-01
5.720707e-01
0.000000e+00
1.000000e+00
5.724108e-01
5.713863e-01
5.704827e-01
5.695461e-01
5.686589e-01
5.679143e-01
5.674138e-01
5.672386e-01
5.674196e-01
5.679253e-01
5.686804e-01
5.695829e-01
5.705267e-01
5.716030e-01
5.713646e-01
0.000000e+00
1.000000e+00
5.723032e-01
5.713062e-01
5.703585e-01
5.693767e-01
5.684469e-01
5.676669e-01
5.671431e-01
5.669606e-01
5.671524e-01
5.676858e-01
5.684724e-01
5.694286e-01
5.704107e-01
5.716645e-01
5.709169e-01
0.000000e+00
1.000000e+00
5.724636e-01
5.716958e-01
5.709638e-01
5.702058e-01
5.694881e-01
5.688862e-01
5.684822e-01
5.683415e-01
5.684902e-01
5.689052e-01
5.695175e-01
5.702757e-01
5.710323e-01
5.721553e-01
5.708956e-01
0.000000e+00
1.000000e+00
5.728494e-01
5.724843e-01
5.721934e-01
5.718891e-01
5.716012e-01
5.713599e-01
5.711976e-01
5.711401e-01
5.711977e-01
5.713636e-01
5.716155e-01
5.719722e-01
5.722789e-01
5.729229e-01
5.717196e-01
0.000000e+00
1.000000e+00
5.734226e-01
5.735837e-01
5.739147e-01
5.742456e-01
5.745596e-01
5.748233e-01
5.750000e-01
5.750599e-01
5.749911e-01
5.748076e-01
5.745444e-01
5.743213e-01
5.740137e-01
5.741542e-01
5.715630e-01
0.000000e+00
1.000000e+00
5.741316e-01
5.749038e-01
5.759894e-01
5.770863e-01
5.781264e-01
5.789995e-01
5.795861e-01
5.797897e-01
5.795728e-01
5.789751e-01
5.780965e-01
5.771303e-01
5.760950e-01
5.755623e-01
5.693789e-01
0.000000e+00
1.000000e+00
5.836188e-01
5.922109e-01
6.035482e-01
6.148173e-01
6.255142e-01
6.345303e-01
6.406524e-01
6.429055e-01
6.408789e-01
6.348899e-01
6.260466e-01
6.153160e-01
6.038490e-01
5.927266e-01
5.818752e-01
0.000000e+00
1.000000e+00
5.827960e-01
5.908626e-01
6.013550e-01
6.118132e-01
6.217389e-01
6.301016e-01
6.357757e-01
6.378602e-01
6.359730e-01
6.304089e-01
6.222473e-01
6.122957e-01
6.016795e-01
5.913455e-01
5.810571e-01
0.000000e+00
1.000000e+00
5.818454e-01
5.891714e-01
5.986345e-01
6.080882e-01
6.170591e-01
6.246130e-01
6.297318e-01
6.316037e-01
6.298905e-01
6.248816e-01
6.175096e-01
6.084777e-01
5.989181e-01
5.895990e-01
5.802058e-01
0.000000e+00
1.000000e+00
5.807432e-01
5.871717e-01
5.954389e-01
6.037136e-01
6.115641e-01
6.181707e-01
6.226412e-01
6.242655e-01
6.227566e-01
6.183945e-01
6.119285e-01
6.040193e-01
5.956949e-01
5.875561e-01
5.793149e-01
0.000000e+00
1.000000e+00
5.795100e-01
5.849329e-01
5.918705e-01
5.988284e-01
6.054286e-01
6.109804e-01
6.147322e-01
6.160855e-01
6.148058e-01
6.111525e-01
6.057059e-01
5.990677e-01
5.921066e-01
5.852667e-01
5.782186e-01
0.000000e+00
1.000000e+00
5.782299e-01
5.825451e-01
5.880817e-01
5.936423e-01
5.989163e-01
6.033507e-01
6.063440e-01
6.074163e-01
6.063832e-01
6.034665e-01
5.991139e-01
5.938285e-01
5.882904e-01
5.828390e-01
5.770588e-01
0.000000e+00
1.000000e+00
5.769526e-01
5.801328e-01
5.842689e-01
5.884235e-01
5.923638e-01
5.956759e-01
5.979091e-01
5.987043e-01
5.979247e-01
5.957377e-01
5.924960e-01
5.885661e-01
5.844506e-01
5.803891e-01
5.758952e-01
0.000000e+00
1.000000e+00
5.757383e-01
5.778450e-01
5.806567e-01
5.834771e-01
5.861520e-01
5.883999e-01
5.899148e-01
5.904525e-01
5.899195e-01
5.884223e-01
5.862282e-01
5.835793e-01
5.808075e-01
5.780675e-01
5.747914e-01
0.000000e+00
1.000000e+00
5.746841e-01
5.758289e-01
5.774698e-01
5.791119e-01
5.806691e-01
5.819772e-01
5.828578e-01
5.831683e-01
5.828553e-01
5.819770e-01
5.806906e-01
5.791608e-01
5.775823e-01
5.760106e-01
5.738435e-01
0.000000e+00
1.000000e+00
5.739258e-01
5.742052e-01
5.748939e-01
5.755857e-01
5.762417e-01
5.767923e-01
5.771621e-01
5.772904e-01
5.771553e-01
5.767834e-01
5.762350e-01
5.755898e-01
5.749470e-01
5.743414e-01
5.729672e-01
0.000000e+00
1.000000e+00
5.733071e-01
5.730480e-01
5.730799e-01
5.731011e-01
5.731213e-01
5.731378e-01
5.731480e-01
5.731494e-01
5.731405e-01
5.731253e-01
5.731101e-01
5.730904e-01
5.730940e-01
5.731569e-01
5.725402e-01
0.000000e+00
1.000000e+00
5.729160e-01
5.724069e-01
5.720821e-01
5.717350e-01
5.714061e-01
5.711299e-01
5.709440e-01
5.708786e-01
5.709443e-01
5.711296e-01
5.714087e-01
5.717409e-01
5.720909e-01
5.726207e-01
5.715896e-01
0.000000e+00
1.000000e+00
5.728333e-01
5.722917e-01
5.719024e-01
5.714897e-01
5.710987e-01
5.707706e-01
5.705500e-01
5.704727e-01
5.705526e-01
5.707760e-01
5.711073e-01
5.715130e-01
5.719211e-01
5.727467e-01
5.708384e-01
0.000000e+00
1.000000e+00
5.729666e-01
5.726572e-01
5.724741e-01
5.722727e-01
5.720821e-01
5.719223e-01
5.718150e-01
5.717773e-01
5.718165e-01
5.719275e-01
5.720921e-01
5.723103e-01
5.725071e-01
5.732583e-01
5.707785e-01
0.000000e+00
1.000000e+00
5.733394e-01
5.734311e-01
5.736825e-01
5.739274e-01
5.741598e-01
5.743549e-01
5.744858e-01
5.745305e-01
5.744809e-01
5.743477e-01
5.741566e-01
5.739704e-01
5.737336e-01
5.739434e-01
5.716934e-01
0.000000e+00
1.000000e+00
5.739147e-01
5.745214e-01
5.753911e-01
5.762668e-01
5.770971e-01
5.777941e-01
5.782623e-01
5.784248e-01
5.782518e-01
5.777754e-01
5.770771e-01
5.762964e-01
5.754611e-01
5.749931e-01
5.715153e-01
0.000000e+00
1.000000e+00
5.746193e-01
5.758338e-01
5.774560e-01
5.790943e-01
5.806475e-01
5.819517e-01
5.828287e-01
5.831355e-01
5.828180e-01
5.819350e-01
5.806330e-01
5.791187e-01
5.775522e-01
5.762285e-01
5.712787e-01
0.000000e+00
1.000000e+00
5.839228e-01
5.927588e-01
6.044215e-01
6.160187e-01
6.270250e-01
6.362991e-01
6.425971e-01
6.449191e-01
6.428347e-01
6.367025e-01
6.275720e-01
6.165645e-01
6.047361e-01
5.932682e-01
5.821331e-01
0.000000e+00
1.000000e+00
5.831428e-01
5.915303e-01
6.024119e-01
6.132677e-01
6.235678e-01
6.322426e-01
6.381302e-01
6.402958e-01
6.383312e-01
6.325901e-01
6.240897e-01
6.138068e-01
6.027532e-01
5.920140e-01
5.813991e-01
0.000000e+00
1.000000e+00
5.822347e-01
5.899394e-01
5.998460e-01
6.097506e-01
6.191460e-01
6.270562e-01
6.324192e-01
6.343839e-01
6.325826e-01
6.273615e-01
6.196238e-01
6.101945e-01
6.001389e-01
5.903614e-01
5.805813e-01
0.000000e+00
1.000000e+00
5.811769e-01
5.880108e-01
5.967596e-01
6.055237e-01
6.138359e-01
6.208313e-01
6.255673e-01
6.272917e-01
6.256874e-01
6.210862e-01
6.142366e-01
6.058685e-01
5.970148e-01
5.883874e-01
5.797154e-01
0.000000e+00
1.000000e+00
5.799751e-01
5.858064e-01
5.932502e-01
6.007194e-01
6.078030e-01
6.137614e-01
6.177898e-01
6.192464e-01
6.178677e-01
6.139593e-01
6.081171e-01
6.009835e-01
5.934848e-01
5.861361e-01
5.786378e-01
0.000000e+00
1.000000e+00
5.786972e-01
5.834213e-01
5.894700e-01
5.955452e-01
6.013072e-01
6.061520e-01
6.094228e-01
6.105971e-01
6.094660e-01
6.062890e-01
6.015361e-01
5.957474e-01
5.896755e-01
5.837141e-01
5.774759e-01
0.000000e+00
1.000000e+00
5.774098e-01
5.809868e-01
5.856222e-01
5.902770e-01
5.946922e-01
5.984038e-01
6.009075e-01
6.018014e-01
6.009282e-01
5.984860e-01
5.948519e-01
5.904326e-01
5.858018e-01
5.812402e-01
5.763100e-01
0.000000e+00
1.000000e+00
5.761729e-01
5.786604e-01
5.819430e-01
5.852382e-01
5.883635e-01
5.909905e-01
5.927617e-01
5.933914e-01
5.927681e-01
5.910258e-01
5.884651e-01
5.853560e-01
5.820863e-01
5.788730e-01
5.751727e-01
0.000000e+00
1.000000e+00
5.750896e-01
5.765906e-01
5.786691e-01
5.807543e-01
5.827317e-01
5.843932e-01
5.855123e-01
5.859080e-01
5.855107e-01
5.843961e-01
5.827718e-01
5.808242e-01
5.787786e-01
5.767604e-01
5.742136e-01
0.000000e+00
1.000000e+00
5.742536e-01
5.749075e-01
5.760033e-01
5.771045e-01
5.781484e-01
5.790251e-01
5.796150e-01
5.798224e-01
5.796114e-01
5.790202e-01
5.781493e-01
5.771199e-01
5.760570e-01
5.750360e-01
5.733345e-01
0.000000e+00
1.000000e+00
5.736390e-01
5.737036e-01
5.741074e-01
5.745083e-01
5.748881e-01
5.752066e-01
5.754198e-01
5.754925e-01
5.754118e-01
5.751937e-01
5.748723e-01
5.744911e-01
5.741107e-01
5.737923e-01
5.729486e-01
0.000000e+00
1.000000e+00
5.732193e-01
5.730272e-01
5.730533e-01
5.730643e-01
5.730745e-01
5.730829e-01
5.730882e-01
5.730892e-01
5.730850e-01
5.730763e-01
5.730649e-01
5.730474e-01
5.730361e-01
5.732383e-01
5.717941e-01
0.000000e+00
1.000000e+00
5.731419e-01
5.728858e-01
5.728319e-01
5.727621e-01
5.726959e-01
5.726404e-01
5.726030e-01
5.725900e-01
5.726036e-01
5.726412e-01
5.726964e-01
5.727622e-01
5.728248e-01
5.734604e-01
5.705754e-01
0.000000e+00
1.000000e+00
5.732895e-01
5.732372e-01
5.733834e-01
5.735171e-01
5.736439e-01
5.737504e-01
5.738220e-01
5.738469e-01
5.738211e-01
5.737498e-01
5.736434e-01
5.735275e-01
5.733890e-01
5.739898e-01
5.705290e-01
0.000000e+00
1.000000e+00
5.736588e-01
5.740044e-01
5.745851e-01
5.751627e-01
5.757102e-01
5.761699e-01
5.764786e-01
5.765859e-01
5.764724e-01
5.761596e-01
5.756995e-01
5.751743e-01
5.746133e-01
5.745700e-01
5.712412e-01
0.000000e+00
1.000000e+00
5.742299e-01
5.750936e-01
5.762943e-01
5.775032e-01
5.786491e-01
5.796114e-01
5.802581e-01
5.804840e-01
5.802487e-01
5.795952e-01
5.786315e-01
5.775107e-01
5.763523e-01
5.755857e-01
5.711408e-01
0.000000e+00
1.000000e+00
5.749329e-01
5.764077e-01
5.783629e-01
5.803362e-01
5.822069e-01
5.837779e-01
5.848349e-01
5.852067e-01
5.848281e-01
5.837691e-01
5.822015e-01
5.803598e-01
5.784567e-01
5.766745e-01
5.724533e-01
0.000000e+00
1.000000e+00
5.839277e-01
5.928457e-01
6.045245e-01
6.161557e-01
6.271996e-01
6.365081e-01
6.428294e-01
6.451587e-01
6.430754e-01
6.369387e-01
6.277370e-01
6.167342e-01
6.048423e-01
5.933146e-01
5.821410e-01
0.000000e+00
1.000000e+00
5.832189e-01
5.917010e-01
6.026615e-01
6.136086e-01
6.240016e-01
6.327572e-01
6.386975e-01
6.408779e-01
6.388994e-01
6.331279e-01
6.245166e-01
6.141865e-01
6.030122e-01
5.921636e-01
5.814708e-01
0.000000e+00
1.000000e+00
5.823582e-01
5.901810e-01
6.002167e-01
6.102627e-01
6.197970e-01
6.278235e-01
6.332624e-01
6.352503e-01
6.334232e-01
6.281456e-01
6.202776e-01
6.107578e-01
6.005310e-01
5.905953e-01
5.806840e-01
0.000000e+00
1.000000e+00
5.813243e-01
5.883071e-01
5.972204e-01
6.061603e-01
6.146420e-01
6.217786e-01
6.266086e-01
6.283634e-01
6.267246e-01
6.220436e-01
6.150559e-01
6.065458e-01
5.974874e-01
5.886775e-01
5.798376e-01
0.000000e+00
1.000000e+00
5.801429e-01
5.861333e-01
5.937614e-01
6.014233e-01
6.086919e-01
6.148056e-01
6.189383e-01
6.204297e-01
6.190134e-01
6.150100e-01
6.090280e-01
6.017190e-01
5.940069e-01
5.864598e-01
5.787735e-01
0.000000e+00
1.000000e+00
5.788693e-01
5.837548e-01
5.899905e-01
5.962589e-01
6.022060e-01
6.072072e-01
6.105845e-01
6.117963e-01
6.106287e-01
6.073520e-01
6.024621e-01
5.964871e-01
5.902059e-01
5.840435e-01
5.776151e-01
0.000000e+00
1.000000e+00
5.775766e-01
5.813052e-01
5.861162e-01
5.909529e-01
5.955412e-01
5.993993e-01
6.020031e-01
6.029330e-01
6.020258e-01
5.994880e-01
5.957239e-01
5.911283e-01
5.863042e-01
5.815526e-01
5.764332e-01
0.000000e+00
1.000000e+00
5.763375e-01
5.789444e-01
5.823826e-01
5.858402e-01
5.891196e-01
5.918762e-01
5.937348e-01
5.943949e-01
5.937400e-01
5.919120e-01
5.892323e-01
5.859754e-01
5.825344e-01
5.791493e-01
5.752803e-01
0.000000e+00
1.000000e+00
5.752295e-01
5.768302e-01
5.790389e-01
5.812612e-01
5.833684e-01
5.851389e-01
5.863313e-01
5.867520e-01
5.863264e-01
5.851371e-01
5.834091e-01
5.813469e-01
5.791587e-01
5.769918e-01
5.742937e-01
0.000000e+00
1.000000e+00
5.743356e-01
5.750998e-01
5.763038e-01
5.775159e-01
5.786650e-01
5.796301e-01
5.802792e-01
5.805069e-01
5.802725e-01
5.796184e-01
5.786598e-01
5.775360e-01
5.763659e-01
5.752243e-01
5.733781e-01
0.000000e+00
1.000000e+00
5.737139e-01
5.738570e-01
5.743458e-01
5.748348e-01
5.752981e-01
5.756865e-01
5.759466e-01
5.760357e-01
5.759376e-01
5.756705e-01
5.752761e-01
5.748163e-01
5.743534e-01
5.739475e-01
5.729636e-01
0.000000e+00
1.000000e+00
5.733052e-01
5.731569e-01
5.732530e-01
5.733374e-01
5.734171e-01
5.734835e-01
5.735271e-01
5.735403e-01
5.735195e-01
5.734685e-01
5.733946e-01
5.733081e-01
5.732312e-01
5.733883e-01
5.717114e-01
0.000000e+00
1.000000e+00
5.731864e-01
5.730032e-01
5.730144e-01
5.730113e-01
5.730082e-01
5.730053e-01
5.730031e-01
5.730017e-01
5.730010e-01
5.730002e-01
5.729977e-01
5.729936e-01
5.730009e-01
5.737158e-01
5.701216e-01
0.000000e+00
1.000000e+00
5.733719e-01
5.733539e-01
5.735635e-01
5.737639e-01
5.739537e-01
5.741129e-01
5.742198e-01
5.742569e-01
5.742176e-01
5.741087e-01
5.739454e-01
5.737563e-01
5.735670e-01
5.742409e-01
5.701120e-01
0.000000e+00
1.000000e+00
5.737423e-01
5.741289e-01
5.747801e-01
5.754294e-01
5.760447e-01
5.765613e-01
5.769082e-01
5.770289e-01
5.769016e-01
5.765494e-01
5.760281e-01
5.754228e-01
5.748089e-01
5.747982e-01
5.708446e-01
0.000000e+00
1.000000e+00
5.743090e-01
5.752314e-01
5.765115e-01
5.778002e-01
5.790218e-01
5.800475e-01
5.807371e-01
5.809782e-01
5.807280e-01
5.800320e-01
5.790025e-01
5.777965e-01
5.765660e-01
5.757873e-01
5.707651e-01
0.000000e+00
1.000000e+00
5.750128e-01
5.765621e-01
5.786055e-01
5.806681e-01
5.826236e-01
5.842661e-01
5.853713e-01
5.857606e-01
5.853658e-01
5.842585e-01
5.826171e-01
5.806881e-01
5.787061e-01
5.767447e-01
5.727672e-01
0.000000e+00
1.000000e+00
5.836523e-01
5.924277e-01
6.038173e-01
6.151840e-01
6.259747e-01
6.350693e-01
6.412457e-01
6.435185e-01
6.414955e-01
6.355042e-01
6.264849e-01
6.157757e-01
6.041317e-01
5.928412e-01
5.819059e-01
0.000000e+00
1.000000e+00
5.830268e-01
5.913311e-01
6.020522e-01
6.127730e-01
6.229501e-01
6.315245e-01
6.373412e-01
6.394686e-01
6.375419e-01
6.319019e-01
6.234485e-01
6.133550e-01
6.023958e-01
5.917665e-01
5.812860e-01
0.000000e+00
1.000000e+00
5.821956e-01
5.898601e-01
5.996879e-01
6.095366e-01
6.188846e-01
6.267572e-01
6.320922e-01
6.340329e-01
6.322484e-01
6.270861e-01
6.193604e-01
6.100533e-01
6.000124e-01
5.902577e-01
5.805229e-01
0.000000e+00
1.000000e+00
5.811538e-01
5.880244e-01
5.967486e-01
6.055113e-01
6.138276e-01
6.208282e-01
6.255671e-01
6.272817e-01
6.256770e-01
6.210945e-01
6.142482e-01
6.059241e-01
5.970256e-01
5.883759e-01
5.796839e-01
0.000000e+00
1.000000e+00
5.799743e-01
5.858679e-01
5.933181e-01
6.008140e-01
6.079270e-01
6.139122e-01
6.179593e-01
6.194162e-01
6.180295e-01
6.141120e-01
6.082771e-01
6.011379e-01
5.935763e-01
5.861788e-01
5.786283e-01
0.000000e+00
1.000000e+00
5.787057e-01
5.834878e-01
5.895476e-01
5.956509e-01
6.014417e-01
6.063127e-01
6.096033e-01
6.107823e-01
6.096437e-01
6.064478e-01
6.017112e-01
5.959044e-01
5.897772e-01
5.837629e-01
5.774676e-01
0.000000e+00
1.000000e+00
5.774118e-01
5.810206e-01
5.856480e-01
5.903113e-01
5.947351e-01
5.984549e-01
6.009649e-01
6.018596e-01
6.009822e-01
5.985278e-01
5.949217e-01
5.905075e-01
5.858529e-01
5.812557e-01
5.762794e-01
0.000000e+00
1.000000e+00
5.761614e-01
5.786304e-01
5.818707e-01
5.851392e-01
5.882391e-01
5.908446e-01
5.926004e-01
5.932220e-01
5.925989e-01
5.908612e-01
5.883366e-01
5.852883e-01
5.820435e-01
5.788247e-01
5.751143e-01
0.000000e+00
1.000000e+00
5.750231e-01
5.764804e-01
5.784751e-01
5.804891e-01
5.823989e-01
5.840032e-01
5.850826e-01
5.854615e-01
5.850713e-01
5.839854e-01
5.824106e-01
5.805686e-01
5.786169e-01
5.766384e-01
5.741129e-01
0.000000e+00
1.000000e+00
5.741021e-01
5.747153e-01
5.756925e-01
5.766788e-01
5.776136e-01
5.783982e-01
5.789251e-01
5.791077e-01
5.789121e-01
5.783731e-01
5.775825e-01
5.766849e-01
5.757676e-01
5.748413e-01
5.732011e-01
0.000000e+00
1.000000e+00
5.734751e-01
5.734472e-01
5.736984e-01
5.739482e-01
5.741846e-01
5.743822e-01
5.745135e-01
5.745561e-01
5.745013e-01
5.743587e-01
5.741485e-01
5.739319e-01
5.737230e-01
5.735509e-01
5.726917e-01
0.000000e+00
1.000000e+00
5.730982e-01
5.727374e-01
5.725878e-01
5.724269e-01
5.722737e-01
5.721440e-01
5.720551e-01
5.720203e-01
5.720445e-01
5.721232e-01
5.722432e-01
5.724047e-01
5.725882e-01
5.730005e-01
5.714527e-01
0.000000e+00
1.000000e+00
5.729698e-01
5.725876e-01
5.723578e-01
5.721116e-01
5.718777e-01
5.716805e-01
5.715467e-01
5.714975e-01
5.715404e-01
5.716673e-01
5.718569e-01
5.720945e-01
5.723672e-01
5.733870e-01
5.699151e-01
0.000000e+00
1.000000e+00
5.731522e-01
5.729531e-01
5.729312e-01
5.728977e-01
5.728656e-01
5.728381e-01
5.728187e-01
5.728102e-01
5.728136e-01
5.728276e-01
5.728481e-01
5.728907e-01
5.729602e-01
5.738922e-01
5.698439e-01
0.000000e+00
1.000000e+00
5.735680e-01
5.737526e-01
5.741859e-01
5.746160e-01
5.750235e-01
5.753652e-01
5.755941e-01
5.756726e-01
5.755859e-01
5.753493e-01
5.749984e-01
5.746107e-01
5.742362e-01
5.744822e-01
5.705916e-01
0.000000e+00
1.000000e+00
5.741312e-01
5.748856e-01
5.759655e-01
5.770524e-01
5.780827e-01
5.789474e-01
5.795282e-01
5.797303e-01
5.795171e-01
5.789269e-01
5.780522e-01
5.770388e-01
5.760312e-01
5.753915e-01
5.705120e-01
0.000000e+00
1.000000e+00
5.748399e-01
5.762501e-01
5.781117e-01
5.799915e-01
5.817738e-01
5.832706e-01
5.842774e-01
5.846311e-01
5.842693e-01
5.832575e-01
5.817564e-01
5.799881e-01
5.782235e-01
5.763782e-01
5.729739e-01
0.000000e+00
1.000000e+00
5.831090e-01
5.915008e-01
6.023054e-01
6.131135e-01
6.233706e-01
6.320112e-01
6.378742e-01
6.400265e-01
6.381049e-01
6.324203e-01
6.238481e-01
6.136789e-01
6.025979e-01
5.918613e-01
5.814270e-01
0.000000e+00
1.000000e+00
5.825332e-01
5.904226e-01
6.005826e-01
6.107605e-01
6.204201e-01
6.285552e-01
6.340692e-01
6.360804e-01
6.342504e-01
6.289114e-01
6.208949e-01
6.113103e-01
6.009057e-01
5.908191e-01
5.808353e-01
0.000000e+00
1.000000e+00
5.817108e-01
5.889680e-01
5.982510e-01
6.075680e-01
6.164106e-01
6.238554e-01
6.288963e-01
6.307247e-01
6.290335e-01
6.241626e-01
6.168699e-01
6.080717e-01
5.985761e-01
5.893408e-01
5.800824e-01
0.000000e+00
1.000000e+00
5.806702e-01
5.871410e-01
5.953300e-01
6.035676e-01
6.113847e-01
6.179641e-01
6.224150e-01
6.240209e-01
6.225078e-01
6.182037e-01
6.117943e-01
6.039813e-01
5.956140e-01
5.874713e-01
5.792396e-01
0.000000e+00
1.000000e+00
5.794813e-01
5.849848e-01
5.919016e-01
5.988728e-01
6.054875e-01
6.110529e-01
6.148141e-01
6.161645e-01
6.148700e-01
6.112202e-01
6.058276e-01
5.992077e-01
5.921720e-01
5.852782e-01
5.781824e-01
0.000000e+00
1.000000e+00
5.781995e-01
5.825940e-01
5.881169e-01
5.936909e-01
5.989792e-01
6.034267e-01
6.064295e-01
6.075023e-01
6.064575e-01
6.035258e-01
5.992325e-01
5.939600e-01
5.883653e-01
5.828554e-01
5.770254e-01
0.000000e+00
1.000000e+00
5.769018e-01
5.801069e-01
5.841901e-01
5.883148e-01
5.922276e-01
5.955172e-01
5.977357e-01
5.985234e-01
5.977410e-01
5.955528e-01
5.923806e-01
5.885259e-01
5.844195e-01
5.803342e-01
5.758317e-01
0.000000e+00
1.000000e+00
5.756364e-01
5.776924e-01
5.803785e-01
5.830959e-01
5.856731e-01
5.878387e-01
5.892969e-01
5.898104e-01
5.892867e-01
5.878259e-01
5.857166e-01
5.832359e-01
5.805838e-01
5.778857e-01
5.746619e-01
0.000000e+00
1.000000e+00
5.744858e-01
5.755166e-01
5.769489e-01
5.783993e-01
5.797744e-01
5.809288e-01
5.817042e-01
5.819734e-01
5.816866e-01
5.808941e-01
5.797371e-01
5.784396e-01
5.771057e-01
5.756766e-01
5.736392e-01
0.000000e+00
1.000000e+00
5.735654e-01
5.737308e-01
5.741417e-01
5.745552e-01
5.749468e-01
5.752746e-01
5.754932e-01
5.755654e-01
5.754763e-01
5.752404e-01
5.748933e-01
5.745724e-01
5.742337e-01
5.738663e-01
5.726781e-01
0.000000e+00
1.000000e+00
5.729359e-01
5.724540e-01
5.721379e-01
5.718116e-01
5.715015e-01
5.712400e-01
5.710620e-01
5.709951e-01
5.710501e-01
5.712171e-01
5.714668e-01
5.718352e-01
5.721958e-01
5.725770e-01
5.720305e-01
0.000000e+00
1.000000e+00
5.725818e-01
5.717497e-01
5.710354e-01
5.703015e-01
5.696051e-01
5.690191e-01
5.686229e-01
5.684799e-01
5.686148e-01
5.690044e-01
5.695867e-01
5.703205e-01
5.710826e-01
5.720464e-01
5.708070e-01
0.000000e+00
1.000000e+00
5.724836e-01
5.716205e-01
5.708362e-01
5.700281e-01
5.692614e-01
5.686165e-01
5.681810e-01
5.680249e-01
5.681755e-01
5.686065e-01
5.692517e-01
5.700436e-01
5.708962e-01
5.724625e-01
5.694249e-01
0.000000e+00
1.000000e+00
5.726637e-01
5.720179e-01
5.714605e-01
5.708834e-01
5.703356e-01
5.698746e-01
5.695629e-01
5.694507e-01
5.695573e-01
5.698641e-01
5.703237e-01
5.709046e-01
5.715330e-01
5.729751e-01
5.694156e-01
0.000000e+00
1.000000e+00
5.730996e-01
5.728582e-01
5.727784e-01
5.726887e-01
5.726032e-01
5.725304e-01
5.724801e-01
5.724594e-01
5.724713e-01
5.725138e-01
5.725772e-01
5.727153e-01
5.728626e-01
5.736139e-01
5.703474e-01
0.000000e+00
1.000000e+00
5.737030e-01
5.740387e-01
5.746313e-01
5.752258e-01
5.757890e-01
5.762613e-01
5.765774e-01