<?xml version="1.0"?>
<VTKFile type="StructuredGrid" version="0.1">
  <StructuredGrid WholeExtent="0 16 0 16 0 16">
    <Piece Extent="0 16 0 16 0 16">
      <PointData Scalars="temperature" Vectors="velocity">
        <DataArray type="Float32" Name="temperature" format="ascii">
1.000000e+00
5.734742e-01
5.736682e-01
5.740410e-01
5.744222e-01
5.747843e-01
5.750895e-01
5.752955e-01
5.753674e-01
5.752909e-01
5.750784e-01
5.747757e-01
5.745327e-01
5.742247e-01
5.738468e-01
5.728200e-01
0.000000e+00
1.000000e+00
5.726311e-01
5.721462e-01
5.716427e-01
5.711385e-01
5.706619e-01
5.702633e-01
5.699962e-01
5.699025e-01
5.699980e-01
5.702657e-01
5.706889e-01
5.713514e-01
5.718479e-01
5.723330e-01
5.720996e-01
0.000000e+00
1.000000e+00
5.716706e-01
5.703401e-01
5.688049e-01
5.672540e-01
5.657857e-01
5.645554e-01
5.637302e-01
5.634428e-01
5.637457e-01
5.645868e-01
5.658708e-01
5.675303e-01
5.690529e-01
5.705463e-01
5.712389e-01
0.000000e+00
1.000000e+00
5.706050e-01
5.682858e-01
5.655833e-01
5.628440e-01
5.602498e-01
5.580755e-01
5.566179e-01
5.561128e-01
5.566526e-01
5.581436e-01
5.603910e-01
5.631377e-01
5.658507e-01
5.684918e-01
5.702585e-01
0.000000e+00
1.000000e+00
5.694827e-01
5.660453e-01
5.620734e-01
5.580389e-01
5.542177e-01
5.510146e-01
5.488683e-01
5.481274e-01
5.489250e-01
5.511212e-01
5.544071e-01
5.583500e-01
5.623468e-01
5.662481e-01
5.691942e-01
0.000000e+00
1.000000e+00
5.683346e-01
5.637065e-01
5.584099e-01
5.530222e-01
5.479198e-01
5.436432e-01
5.407788e-01
5.397929e-01
5.408591e-01
5.437909e-01
5.481551e-01
5.533614e-01
5.586841e-01
5.639062e-01
5.680757e-01
0.000000e+00
1.000000e+00
5.671834e-01
5.613744e-01
5.547588e-01
5.480223e-01
5.416431e-01
5.362978e-01
5.327195e-01
5.314896e-01
5.328239e-01
5.364886e-01
5.419241e-01
5.483979e-01
5.550351e-01
5.615729e-01
5.669636e-01
0.000000e+00
1.000000e+00
5.660876e-01
5.591646e-01
5.513060e-01
5.432946e-01
5.357093e-01
5.293557e-01
5.251042e-01
5.236444e-01
5.252325e-01
5.295890e-01
5.360341e-01
5.437183e-01
5.515863e-01
5.593625e-01
5.659092e-01
0.000000e+00
1.000000e+00
5.651309e-01
5.571984e-01
5.482406e-01
5.390981e-01
5.304444e-01
5.231980e-01
5.183505e-01
5.166873e-01
5.184992e-01
5.234694e-01
5.308081e-01
5.395734e-01
5.485411e-01
5.573944e-01
5.650052e-01
0.000000e+00
1.000000e+00
5.643861e-01
5.555892e-01
5.457341e-01
5.356677e-01
5.261426e-01
5.181684e-01
5.128346e-01
5.110041e-01
5.129973e-01
5.184688e-01
5.265354e-01
5.361779e-01
5.460821e-01
5.557678e-01
5.643087e-01
0.000000e+00
1.000000e+00
5.638787e-01
5.544226e-01
5.439195e-01
5.331866e-01
5.230334e-01
5.145338e-01
5.088477e-01
5.068948e-01
5.090180e-01
5.148519e-01
5.234529e-01
5.336814e-01
5.443454e-01
5.545968e-01
5.636990e-01
0.000000e+00
1.000000e+00
5.636271e-01
5.537516e-01
5.428803e-01
5.317688e-01
5.212576e-01
5.124573e-01
5.065684e-01
5.045437e-01
5.067397e-01
5.127805e-01
5.217020e-01
5.321933e-01
5.433531e-01
5.539975e-01
5.629564e-01
0.000000e+00
1.000000e+00
5.636390e-01
5.536014e-01
5.426450e-01
5.314489e-01
5.208566e-01
5.119871e-01
5.060503e-01
5.040071e-01
5.062180e-01
5.123051e-01
5.213104e-01
5.318021e-01
5.431353e-01
5.539672e-01
5.623424e-01
0.000000e+00
1.000000e+00
5.638450e-01
5.539488e-01
5.431834e-01
5.321852e-01
5.217790e-01
5.130642e-01
5.072298e-01
5.052203e-01
5.073900e-01
5.133677e-01
5.222039e-01
5.325361e-01
5.436880e-01
5.546124e-01
5.613884e-01
0.000000e+00
1.000000e+00
5.641891e-01
5.547397e-01
5.444193e-01
5.338762e-01
5.238990e-01
5.155425e-01
5.099473e-01
5.080190e-01
5.100974e-01
5.158254e-01
5.242757e-01
5.342678e-01
5.448752e-01
5.555681e-01
5.615640e-01
0.000000e+00
1.000000e+00
5.646930e-01
5.559081e-01
5.462470e-01
5.363781e-01
5.270379e-01
5.192143e-01
5.139755e-01
5.121695e-01
5.141142e-01
5.194731e-01
5.273685e-01
5.367933e-01
5.466769e-01
5.569062e-01
5.625521e-01
0.000000e+00
1.000000e+00
5.652062e-01
5.573858e-01
5.485413e-01
5.395192e-01
5.309807e-01
5.238295e-01
5.190428e-01
5.173955e-01
5.191767e-01
5.240762e-01
5.312926e-01
5.399480e-01
5.489354e-01
5.587407e-01
5.608622e-01
0.000000e+00
1.000000e+00
5.726989e-01
5.722184e-01
5.717644e-01
5.713047e-01
5.708694e-01
5.705049e-01
5.702599e-01
5.701731e-01
5.702592e-01
5.705044e-01
5.708916e-01
5.714579e-01
5.719158e-01
5.723841e-01
5.721011e-01
0.000000e+00
1.000000e+00
5.718629e-01
5.706317e-01
5.692709e-01
5.678912e-01
5.665844e-01
5.654887e-01
5.647529e-01
5.644958e-01
5.647644e-01
5.655144e-01
5.666598e-01
5.681046e-01
5.694598e-01
5.708072e-01
5.713603e-01
0.000000e+00
1.000000e+00
5.708916e-01
5.687579e-01
5.663303e-01
5.638657e-01
5.615313e-01
5.595740e-01
5.582608e-01
5.578044e-01
5.582884e-01
5.596308e-01
5.616546e-01
5.641065e-01
5.665655e-01
5.689547e-01
5.704718e-01
0.000000e+00
1.000000e+00
5.698033e-01
5.666348e-01
5.630033e-01
5.593113e-01
5.558143e-01
5.528823e-01
5.509165e-01
5.502362e-01
5.509638e-01
5.529740e-01
5.559811e-01
5.595722e-01
5.632476e-01
5.668302e-01
5.694397e-01
0.000000e+00
1.000000e+00
5.686540e-01
5.643297e-01
5.593943e-01
5.543704e-01
5.496122e-01
5.456236e-01
5.429508e-01
5.420288e-01
5.430204e-01
5.457538e-01
5.498237e-01
5.546602e-01
5.596501e-01
5.645341e-01
5.683343e-01
0.000000e+00
1.000000e+00
5.674692e-01
5.619372e-01
5.556507e-01
5.492447e-01
5.431783e-01
5.380947e-01
5.346903e-01
5.335181e-01
5.347835e-01
5.382670e-01
5.434376e-01
5.495733e-01
5.559150e-01
5.621479e-01
5.671893e-01
0.000000e+00
1.000000e+00
5.663054e-01
5.595721e-01
5.519550e-01
5.441847e-01
5.368278e-01
5.306650e-01
5.265402e-01
5.251217e-01
5.266579e-01
5.308808e-01
5.371378e-01
5.445594e-01
5.522284e-01
5.597925e-01
5.660565e-01
0.000000e+00
1.000000e+00
5.652462e-01
5.573648e-01
5.485113e-01
5.394698e-01
5.309122e-01
5.237462e-01
5.189515e-01
5.173041e-01
5.190916e-01
5.240032e-01
5.312714e-01
5.398990e-01
5.487966e-01
5.575921e-01
5.649939e-01
0.000000e+00
1.000000e+00
5.643483e-01
5.554467e-01
5.455231e-01
5.353800e-01
5.257832e-01
5.177490e-01
5.123743e-01
5.105278e-01
5.125320e-01
5.180411e-01
5.261853e-01
5.358568e-01
5.458345e-01
5.556832e-01
5.640759e-01
0.000000e+00
1.000000e+00
5.636551e-01
5.539343e-01
5.431705e-01
5.321630e-01
5.217515e-01
5.130359e-01
5.072046e-01
5.052002e-01
5.073739e-01
5.133527e-01
5.221850e-01
5.326635e-01
5.435294e-01
5.541717e-01
5.633662e-01
0.000000e+00
1.000000e+00
5.632232e-01
5.529188e-01
5.415911e-01
5.300061e-01
5.190493e-01
5.098764e-01
5.037378e-01
5.016260e-01
5.039126e-01
5.102068e-01
5.195034e-01
5.304787e-01
5.420171e-01
5.531578e-01
5.630061e-01
0.000000e+00
1.000000e+00
5.630585e-01
5.524522e-01
5.408634e-01
5.290130e-01
5.178044e-01
5.084193e-01
5.021373e-01
4.999749e-01
5.023131e-01
5.087528e-01
5.182703e-01
5.294269e-01
5.413102e-01
5.527207e-01
5.628434e-01
0.000000e+00
1.000000e+00
5.630733e-01
5.525444e-01
5.409990e-01
5.291969e-01
5.180328e-01
5.086843e-01
5.024263e-01
5.002714e-01
5.025992e-01
5.090118e-01
5.184950e-01
5.295704e-01
5.414458e-01
5.527934e-01
5.630445e-01
0.000000e+00
1.000000e+00
5.632852e-01
5.531630e-01
5.419471e-01
5.304900e-01
5.196512e-01
5.105750e-01
5.044993e-01
5.024067e-01
5.046656e-01
5.108887e-01
5.200810e-01
5.308863e-01
5.423902e-01
5.534491e-01
5.627375e-01
0.000000e+00
1.000000e+00
5.637148e-01
5.542384e-01
5.436090e-01
5.327622e-01
5.224984e-01
5.139032e-01
5.081495e-01
5.061678e-01
5.083064e-01
5.141960e-01
5.228840e-01
5.331936e-01
5.439714e-01
5.545753e-01
5.629834e-01
0.000000e+00
1.000000e+00
5.643561e-01
5.556861e-01
5.458584e-01
5.358421e-01
5.263616e-01
5.184211e-01
5.131053e-01
5.112744e-01
5.132498e-01
5.186882e-01
5.267047e-01
5.362739e-01
5.462159e-01
5.561955e-01
5.638461e-01
0.000000e+00
1.000000e+00
5.652280e-01
5.574147e-01
5.485619e-01
5.395444e-01
5.310081e-01
5.238571e-01
5.190688e-01
5.174188e-01
5.191971e-01
5.240931e-01
5.313133e-01
5.399717e-01
5.489394e-01
5.584750e-01
5.616881e-01
0.000000e+00
1.000000e+00
5.720565e-01
5.709622e-01
5.697956e-01
5.686089e-01
5.674844e-01
5.665408e-01
5.659063e-01
5.656835e-01
5.659128e-01
5.665578e-01
5.675398e-01
5.687590e-01
5.699349e-01
5.711150e-01
5.714822e-01
0.000000e+00
1.000000e+00
5.712170e-01
5.693274e-01
5.672290e-01
5.650953e-01
5.630737e-01
5.613777e-01
5.602387e-01
5.598414e-01
5.602589e-01
5.614223e-01
5.631730e-01
5.652707e-01
5.673947e-01
5.694810e-01
5.707362e-01
0.000000e+00
1.000000e+00
5.702370e-01
5.674021e-01
5.642098e-01
5.609619e-01
5.578851e-01
5.553046e-01
5.535731e-01
5.529718e-01
5.536097e-01
5.553794e-01
5.580249e-01
5.611665e-01
5.644115e-01
5.675751e-01
5.698432e-01
0.000000e+00
1.000000e+00
5.691373e-01
5.652272e-01
5.608031e-01
5.562982e-01
5.520309e-01
5.484529e-01
5.460537e-01
5.452232e-01
5.461097e-01
5.485620e-01
5.522123e-01
5.565320e-01
5.610199e-01
5.654087e-01
5.687956e-01
0.000000e+00
1.000000e+00
5.679691e-01
5.628746e-01
5.571218e-01
5.512581e-01
5.457047e-01
5.410499e-01
5.379307e-01
5.368537e-01
5.380088e-01
5.411983e-01
5.459345e-01
5.515288e-01
5.573538e-01
5.630709e-01
5.676808e-01
0.000000e+00
1.000000e+00
5.667666e-01
5.604455e-01
5.533250e-01
5.460602e-01
5.391815e-01
5.334177e-01
5.295578e-01
5.282272e-01
5.296598e-01
5.336090e-01
5.394662e-01
5.463768e-01
5.535708e-01
5.606550e-01
5.665252e-01
0.000000e+00
1.000000e+00
5.656080e-01
5.580661e-01
5.496113e-01
5.409765e-01
5.328029e-01
5.259568e-01
5.213741e-01
5.197962e-01
5.214998e-01
5.261913e-01
5.331466e-01
5.413455e-01
5.498721e-01
5.582917e-01
5.653952e-01
0.000000e+00
1.000000e+00
5.645771e-01
5.558801e-01
5.462011e-01
5.363088e-01
5.269487e-01
5.191112e-01
5.138659e-01
5.120609e-01
5.140122e-01
5.193852e-01
5.273485e-01
5.367310e-01
5.464793e-01
5.561167e-01
5.643510e-01
0.000000e+00
1.000000e+00
5.637248e-01
5.540255e-01
5.433114e-01
5.323564e-01
5.219945e-01
5.133193e-01
5.075131e-01
5.055147e-01
5.076748e-01
5.136246e-01
5.224393e-01
5.328171e-01
5.436165e-01
5.542710e-01
5.634726e-01
0.000000e+00
1.000000e+00
5.631144e-01
5.526228e-01
5.411309e-01
5.293790e-01
5.182647e-01
5.089587e-01
5.027292e-01
5.005838e-01
5.029007e-01
5.092853e-01
5.187334e-01
5.298689e-01
5.414658e-01
5.528740e-01
5.628076e-01
0.000000e+00
1.000000e+00
5.628034e-01
5.517677e-01
5.397990e-01
5.275636e-01
5.159907e-01
5.062989e-01
4.998098e-01
4.975739e-01
4.999863e-01
5.066365e-01
5.164624e-01
5.280629e-01
5.401916e-01
5.520134e-01
5.624096e-01
0.000000e+00
1.000000e+00
5.627232e-01
5.515023e-01
5.393862e-01
5.270006e-01
5.152843e-01
5.054713e-01
4.989004e-01
4.966358e-01
4.990777e-01
5.058103e-01
5.157497e-01
5.274596e-01
5.398363e-01
5.517928e-01
5.622664e-01
0.000000e+00
1.000000e+00
5.627550e-01
5.518225e-01
5.398867e-01
5.276808e-01
5.161347e-01
5.064648e-01
4.999899e-01
4.977584e-01
5.001642e-01
5.067963e-01
5.165846e-01
5.281097e-01
5.403446e-01
5.521109e-01
5.625383e-01
0.000000e+00
1.000000e+00
5.630450e-01
5.526951e-01
5.412297e-01
5.295112e-01
5.184260e-01
5.091431e-01
5.029283e-01
5.007868e-01
5.030960e-01
5.094592e-01
5.188395e-01
5.299681e-01
5.416729e-01
5.529700e-01
5.626195e-01
0.000000e+00
1.000000e+00
5.636085e-01
5.540310e-01
5.432939e-01
5.323327e-01
5.219611e-01
5.132758e-01
5.074616e-01
5.054586e-01
5.076189e-01
5.135690e-01
5.223344e-01
5.328094e-01
5.436429e-01
5.542971e-01
5.631598e-01
0.000000e+00
1.000000e+00
5.643888e-01
5.557311e-01
5.459340e-01
5.359458e-01
5.264919e-01
5.185737e-01
5.132735e-01
5.114479e-01
5.134175e-01
5.188391e-01
5.268285e-01
5.363978e-01
5.462659e-01
5.561140e-01
5.641314e-01
0.000000e+00
1.000000e+00
5.653692e-01
5.576923e-01
5.489970e-01
5.401404e-01
5.317561e-01
5.247318e-01
5.200287e-01
5.184091e-01
5.201569e-01
5.249658e-01
5.320586e-01
5.405680e-01
5.493445e-01
5.584878e-01
5.626235e-01
0.000000e+00
1.000000e+00
5.715632e-01
5.699821e-01
5.682613e-01
5.665080e-01
5.648464e-01
5.634516e-01
5.625139e-01
5.621856e-01
5.625268e-01
5.634829e-01
5.649181e-01
5.666290e-01
5.683758e-01
5.700939e-01
5.709610e-01
0.000000e+00
1.000000e+00
5.707206e-01
5.683218e-01
5.656561e-01
5.629413e-01
5.603688e-01
5.582104e-01
5.567608e-01
5.562556e-01
5.567868e-01
5.582668e-01
5.604741e-01
5.630843e-01
5.657886e-01
5.684567e-01
5.702760e-01
0.000000e+00
1.000000e+00
5.697430e-01
5.663696e-01
5.625950e-01
5.587503e-01
5.551079e-01
5.520527e-01
5.500027e-01
5.492906e-01
5.500447e-01
5.521383e-01
5.552507e-01
5.589265e-01
5.627663e-01
5.665294e-01
5.693779e-01
0.000000e+00
1.000000e+00
5.686336e-01
5.641679e-01
5.591467e-01
5.540295e-01
5.491822e-01
5.451180e-01
5.423928e-01
5.414489e-01
5.424541e-01
5.452383e-01
5.493701e-01
5.542389e-01
5.593366e-01
5.643431e-01
5.682990e-01
0.000000e+00
1.000000e+00
5.674543e-01
5.617917e-01
5.554308e-01
5.489423e-01
5.427979e-01
5.376478e-01
5.341968e-01
5.330042e-01
5.342804e-01
5.378084e-01
5.430409e-01
5.491930e-01
5.556423e-01
5.619865e-01
5.671645e-01
0.000000e+00
1.000000e+00
5.662596e-01
5.593497e-01
5.516175e-01
5.437225e-01
5.362485e-01
5.299862e-01
5.257922e-01
5.243451e-01
5.258995e-01
5.301899e-01
5.365551e-01
5.440200e-01
5.518480e-01
5.595648e-01
5.660001e-01
0.000000e+00
1.000000e+00
5.651269e-01
5.569779e-01
5.479186e-01
5.386607e-01
5.298994e-01
5.225607e-01
5.176472e-01
5.159536e-01
5.177771e-01
5.228064e-01
5.302724e-01
5.390069e-01
5.481702e-01
5.572146e-01
5.648778e-01
0.000000e+00
1.000000e+00
5.641261e-01
5.548283e-01
5.445686e-01
5.340787e-01
5.241543e-01
5.158432e-01
5.102790e-01
5.083614e-01
5.104276e-01
5.161256e-01
5.245857e-01
5.344708e-01
5.448371e-01
5.550836e-01
5.638605e-01
0.000000e+00
1.000000e+00
5.633315e-01
5.530484e-01
5.417969e-01
5.302917e-01
5.194090e-01
5.102950e-01
5.041923e-01
5.020883e-01
5.043543e-01
5.106047e-01
5.198771e-01
5.307386e-01
5.420843e-01
5.533159e-01
5.630149e-01
0.000000e+00
1.000000e+00
5.628259e-01
5.517708e-01
5.398006e-01
5.275695e-01
5.159984e-01
5.063057e-01
4.998139e-01
4.975750e-01
4.999847e-01
5.066327e-01
5.164751e-01
5.280787e-01
5.401173e-01
5.520428e-01
5.624032e-01
0.000000e+00
1.000000e+00
5.626964e-01
5.510926e-01
5.387187e-01
5.260950e-01
5.141490e-01
5.041406e-01
4.974367e-01
4.951241e-01
4.976119e-01
5.044759e-01
5.146122e-01
5.266414e-01
5.390955e-01
5.513282e-01
5.620837e-01
0.000000e+00
1.000000e+00
5.626210e-01
5.510129e-01
5.386068e-01
5.259411e-01
5.139548e-01
5.039124e-01
4.971858e-01
4.948654e-01
4.973615e-01
5.042471e-01
5.144009e-01
5.264629e-01
5.390614e-01
5.512527e-01
5.620309e-01
0.000000e+00
1.000000e+00
5.626239e-01
5.515360e-01
5.394430e-01
5.270781e-01
5.153793e-01
5.055790e-01
4.990154e-01
4.967516e-01
4.991875e-01
5.059048e-01
5.158078e-01
5.275655e-01
5.398985e-01
5.517827e-01
5.623680e-01
0.000000e+00
1.000000e+00
5.630320e-01
5.526362e-01
5.411397e-01
5.293904e-01
5.182753e-01
5.089664e-01
5.027330e-01
5.005834e-01
5.028973e-01
5.092749e-01
5.186700e-01
5.298823e-01
5.415617e-01
5.528779e-01
5.627263e-01
0.000000e+00
1.000000e+00
5.637108e-01
5.541926e-01
5.435535e-01
5.326898e-01
5.224108e-01
5.138026e-01
5.080392e-01
5.060528e-01
5.081926e-01
5.140874e-01
5.227691e-01
5.331805e-01
5.438943e-01
5.544149e-01
5.634302e-01
0.000000e+00
1.000000e+00
5.645781e-01
5.561035e-01
5.465221e-01
5.367511e-01
5.275044e-01
5.197612e-01
5.145774e-01
5.127918e-01
5.147183e-01
5.200195e-01
5.278326e-01
5.372015e-01
5.468393e-01
5.563871e-01
5.645481e-01
0.000000e+00
1.000000e+00
5.656580e-01
5.582568e-01
5.498818e-01
5.413505e-01
5.332746e-01
5.265101e-01
5.219823e-01
5.204228e-01
5.221075e-01
5.267402e-01
5.335720e-01
5.417646e-01
5.502038e-01
5.588033e-01
5.637882e-01
0.000000e+00
1.000000e+00
5.712655e-01
5.693572e-01
5.672848e-01
5.651707e-01
5.631671e-01
5.614851e-01
5.603546e-01
5.599592e-01
5.603711e-01
5.615241e-01
5.632405e-01
5.652650e-01
5.673777e-01
5.693556e-01
5.706863e-01
0.000000e+00
1.000000e+00
5.704301e-01
5.677030e-01
5.646879e-01
5.616152e-01
5.587035e-01
5.562602e-01
5.546193e-01
5.540475e-01
5.546481e-01
5.563220e-01
5.588063e-01
5.617319e-01
5.647964e-01
5.677926e-01
5.698064e-01
0.000000e+00
1.000000e+00
5.694413e-01
5.657553e-01
5.616346e-01
5.574347e-01
5.534559e-01
5.501186e-01
5.478792e-01
5.471010e-01
5.479234e-01
5.502090e-01
5.535974e-01
5.575870e-01
5.617836e-01
5.659007e-01
5.689984e-01
0.000000e+00
1.000000e+00
5.683286e-01
5.635573e-01
5.581957e-01
5.527268e-01
5.475468e-01
5.432041e-01
5.402919e-01
5.392827e-01
5.403553e-01
5.433296e-01
5.477382e-01
5.529135e-01
5.583696e-01
5.637304e-01
5.679714e-01
0.000000e+00
1.000000e+00
5.671641e-01
5.611883e-01
5.544956e-01
5.476618e-01
5.411907e-01
5.357681e-01
5.321341e-01
5.308772e-01
5.322194e-01
5.359343e-01
5.414439e-01
5.478875e-01
5.546960e-01
5.613890e-01
5.668616e-01
0.000000e+00
1.000000e+00
5.660043e-01
5.587641e-01
5.507124e-01
5.424841e-01
5.346951e-01
5.281706e-01
5.237999e-01
5.222904e-01
5.239081e-01
5.283790e-01
5.350180e-01
5.427494e-01
5.509376e-01
5.589929e-01
5.657188e-01
0.000000e+00
1.000000e+00
5.649168e-01
5.564279e-01
5.470680e-01
5.374986e-01
5.284429e-01
5.208591e-01
5.157793e-01
5.140263e-01
5.159086e-01
5.211070e-01
5.288342e-01
5.378096e-01
5.473107e-01
5.566807e-01
5.646083e-01
0.000000e+00
1.000000e+00
5.639737e-01
5.543361e-01
5.438073e-01
5.330417e-01
5.228564e-01
5.143264e-01
5.086118e-01
5.066401e-01
5.087583e-01
5.146065e-01
5.233003e-01
5.334151e-01
5.440669e-01
5.546090e-01
5.636171e-01
0.000000e+00
1.000000e+00
5.632480e-01
5.526474e-01
5.411699e-01
5.294421e-01
5.183457e-01
5.090490e-01
5.028205e-01
5.006710e-01
5.029793e-01
5.093523e-01
5.188153e-01
5.298873e-01
5.414392e-01
5.529298e-01
5.628146e-01
0.000000e+00
1.000000e+00
5.629185e-01
5.515194e-01
5.393617e-01
5.269742e-01
5.152490e-01
5.054235e-01
4.988410e-01
4.965687e-01
4.990076e-01
5.057414e-01
5.157182e-01
5.274936e-01
5.396465e-01
5.517603e-01
5.622646e-01
0.000000e+00
1.000000e+00
5.631451e-01
5.510323e-01
5.385122e-01
5.258112e-01
5.137869e-01
5.037110e-01
4.969606e-01
4.946301e-01
4.971310e-01
5.040345e-01
5.142373e-01
5.263750e-01
5.388436e-01
5.511873e-01
5.620019e-01
0.000000e+00
1.000000e+00
5.628784e-01
5.510866e-01
5.386588e-01
5.260117e-01
5.140386e-01
5.040055e-01
4.972844e-01
4.949642e-01
4.974545e-01
5.043266e-01
5.144693e-01
5.265673e-01
5.390418e-01
5.512785e-01
5.620428e-01
0.000000e+00
1.000000e+00
5.627668e-01
5.517486e-01
5.397714e-01
5.275308e-01
5.159453e-01
5.062380e-01
4.997360e-01
4.974913e-01
4.999010e-01
5.065482e-01
5.163573e-01
5.280505e-01
5.401424e-01
5.519915e-01
5.624279e-01
0.000000e+00
1.000000e+00
5.632598e-01
5.530187e-01
5.417489e-01
5.302295e-01
5.193307e-01
5.102009e-01
5.040851e-01
5.019739e-01
5.042403e-01
5.104913e-01
5.197099e-01
5.307319e-01
5.421069e-01
5.532654e-01
5.630067e-01
0.000000e+00
1.000000e+00
5.640111e-01
5.547489e-01
5.444341e-01
5.338967e-01
5.239290e-01
5.155828e-01
5.099932e-01
5.080648e-01
5.101378e-01
5.158515e-01
5.242760e-01
5.343820e-01
5.447395e-01
5.549552e-01
5.639547e-01
0.000000e+00
1.000000e+00
5.649475e-01
5.568222e-01
5.476514e-01
5.382955e-01
5.294431e-01
5.220316e-01
5.170717e-01
5.153630e-01
5.172062e-01
5.222790e-01
5.297606e-01
5.387275e-01
5.479394e-01
5.570410e-01
5.651992e-01
0.000000e+00
1.000000e+00
5.660913e-01
5.591121e-01
5.512216e-01
5.431824e-01
5.355726e-01
5.292001e-01
5.249368e-01
5.234700e-01
5.250568e-01
5.294225e-01
5.358600e-01
5.435716e-01
5.515170e-01
5.594886e-01
5.649063e-01
0.000000e+00
1.000000e+00
5.711829e-01
5.691570e-01
5.669715e-01
5.647416e-01
5.626282e-01
5.608542e-01
5.596618e-01
5.592448e-01
5.596791e-01
5.608949e-01
5.626960e-01
5.648139e-01
5.670480e-01
5.689826e-01
5.715306e-01
0.000000e+00
1.000000e+00
5.703441e-01
5.675442e-01
5.644403e-01
5.612760e-01
5.582773e-01
5.557613e-01
5.540717e-01
5.534827e-01
5.541007e-01
5.558240e-01
5.583744e-01
5.613708e-01
5.645338e-01
5.675044e-01
5.697329e-01
0.000000e+00
1.000000e+00
5.693683e-01
5.656372e-01
5.614553e-01
5.571893e-01
5.531479e-01
5.497582e-01
5.474840e-01
5.466934e-01
5.475281e-01
5.498495e-01
5.532856e-01
5.573183e-01
5.615908e-01
5.657147e-01
5.688500e-01
0.000000e+00
1.000000e+00
5.683015e-01
5.634819e-01
5.580878e-01
5.525789e-01
5.473620e-01
5.429886e-01
5.400567e-01
5.390399e-01
5.401194e-01
5.431154e-01
5.475530e-01
5.527397e-01
5.582539e-01
5.636235e-01
5.678701e-01
0.000000e+00
1.000000e+00
5.671902e-01
5.611601e-01
5.544637e-01
5.476177e-01
5.411371e-01
5.357079e-01
5.320694e-01
5.308100e-01
5.321531e-01
5.358745e-01
5.413932e-01
5.478149e-01
5.546590e-01
5.613601e-01
5.668170e-01
0.000000e+00
1.000000e+00
5.660922e-01
5.587914e-01
5.507650e-01
5.425555e-01
5.347874e-01
5.282833e-01
5.239241e-01
5.224170e-01
5.240289e-01
5.284893e-01
5.351136e-01
5.427985e-01
5.509931e-01
5.590311e-01
5.657172e-01
0.000000e+00
1.000000e+00
5.650533e-01
5.565211e-01
5.472174e-01
5.377042e-01
5.287057e-01
5.211720e-01
5.161213e-01
5.143763e-01
5.162451e-01
5.214126e-01
5.290977e-01
5.379992e-01
5.474683e-01
5.567929e-01
5.646433e-01
0.000000e+00
1.000000e+00
5.641533e-01
5.545078e-01
5.440718e-01
5.334095e-01
5.233245e-01
5.148766e-01
5.092121e-01
5.072553e-01
5.093514e-01
5.151444e-01
5.237639e-01
5.337691e-01
5.443297e-01
5.547945e-01
5.636858e-01
0.000000e+00
1.000000e+00
5.635541e-01
5.529290e-01
5.415790e-01
5.300092e-01
5.190595e-01
5.098805e-01
5.037290e-01
5.016034e-01
5.038796e-01
5.101680e-01
5.195189e-01
5.304358e-01
5.418356e-01
5.531977e-01
5.629211e-01
0.000000e+00
1.000000e+00
5.635742e-01
5.519694e-01
5.399470e-01
5.277717e-01
5.162445e-01
5.065830e-01
5.001099e-01
4.978733e-01
5.002683e-01
5.068830e-01
5.167033e-01
5.282625e-01
5.401990e-01
5.521262e-01
5.623969e-01
0.000000e+00
1.000000e+00
5.642681e-01
5.516390e-01
5.392859e-01
5.268605e-01
5.150970e-01
5.052405e-01
4.986366e-01
4.963553e-01
4.987987e-01
5.055447e-01
5.155400e-01
5.273975e-01
5.395573e-01
5.516741e-01
5.621782e-01
0.000000e+00
1.000000e+00
5.637477e-01
5.517837e-01
5.396289e-01
5.273336e-01
5.156903e-01
5.059345e-01
4.993991e-01
4.971410e-01
4.995591e-01
5.062335e-01
5.161104e-01
5.278689e-01
5.399338e-01
5.518888e-01
5.622548e-01
0.000000e+00
1.000000e+00
5.632997e-01
5.525115e-01
5.409353e-01
5.291273e-01
5.179461e-01
5.085763e-01
5.022969e-01
5.001264e-01
5.024484e-01
5.088581e-01
5.183410e-01
5.296232e-01
5.412399e-01
5.527322e-01
5.626626e-01
0.000000e+00
1.000000e+00
5.637356e-01
5.538709e-01
5.430947e-01
5.320777e-01
5.216549e-01
5.129233e-01
5.070700e-01
5.050459e-01
5.072097e-01
5.131854e-01
5.220196e-01
5.325539e-01
5.434106e-01
5.541245e-01
5.632846e-01
0.000000e+00
1.000000e+00
5.644987e-01
5.557131e-01
5.459513e-01
5.359737e-01
5.265385e-01
5.186403e-01
5.133515e-01
5.115243e-01
5.134829e-01
5.188875e-01
5.268741e-01
5.364270e-01
5.462330e-01
5.559237e-01
5.642911e-01
0.000000e+00
1.000000e+00
5.654830e-01
5.578821e-01
5.493127e-01
5.405668e-01
5.322923e-01
5.253667e-01
5.207350e-01
5.191406e-01
5.208613e-01
5.255980e-01
5.325972e-01
5.409619e-01
5.495791e-01
5.580750e-01
5.656580e-01
0.000000e+00
1.000000e+00
5.666594e-01
5.602397e-01
5.529888e-01
5.455997e-01
5.386049e-01
5.327473e-01
5.288301e-01
5.274859e-01
5.289449e-01
5.329554e-01
5.388771e-01
5.459509e-01
5.532629e-01
5.605128e-01
5.659951e-01
0.000000e+00
1.000000e+00
5.713091e-01
5.694260e-01
5.673938e-01
5.653198e-01
5.633543e-01
5.617044e-01
5.605958e-01
5.602082e-01
5.606119e-01
5.617435e-01
5.634140e-01
5.653762e-01
5.674682e-01
5.692718e-01
5.737372e-01
0.000000e+00
1.000000e+00
5.705175e-01
5.678926e-01
5.649918e-01
5.620313e-01
5.592258e-01
5.568721e-01
5.552919e-01
5.547413e-01
5.553197e-01
5.569334e-01
5.593155e-01
5.621069e-01
5.650764e-01
5.677236e-01
5.711397e-01
0.000000e+00
1.000000e+00
5.696350e-01
5.660708e-01
5.621431e-01
5.581308e-01
5.543299e-01
5.511430e-01
5.490054e-01
5.482628e-01
5.490480e-01
5.512329e-01
5.544607e-01
5.582399e-01
5.622692e-01
5.660210e-01
5.697306e-01
0.000000e+00
1.000000e+00
5.686432e-01
5.640072e-01
5.589162e-01
5.537124e-01
5.487847e-01
5.446553e-01
5.418883e-01
5.409290e-01
5.419486e-01
5.447804e-01
5.489677e-01
5.538580e-01
5.590860e-01
5.640519e-01
5.684564e-01
0.000000e+00
1.000000e+00
5.675740e-01
5.617782e-01
5.554340e-01
5.489454e-01
5.428038e-01
5.376600e-01
5.342152e-01
5.330222e-01
5.342941e-01
5.378231e-01
5.430490e-01
5.491292e-01
5.556446e-01
5.619443e-01
5.670812e-01
0.000000e+00
1.000000e+00
5.665181e-01
5.595014e-01
5.518762e-01
5.440765e-01
5.366979e-01
5.305208e-01
5.263834e-01
5.249510e-01
5.264802e-01
5.307198e-01
5.370108e-01
5.443035e-01
5.521139e-01
5.597477e-01
5.660458e-01
0.000000e+00
1.000000e+00
5.655313e-01
5.573226e-01
5.484681e-01
5.394171e-01
5.308584e-01
5.236930e-01
5.188912e-01
5.172285e-01
5.190035e-01
5.239213e-01
5.312353e-01
5.396937e-01
5.487236e-01
5.576039e-01
5.650518e-01
0.000000e+00
1.000000e+00
5.646989e-01
5.554030e-01
5.454613e-01
5.353141e-01
5.257174e-01
5.176779e-01
5.122884e-01
5.104215e-01
5.124130e-01
5.179271e-01
5.261407e-01
5.356454e-01
5.457247e-01
5.556919e-01
5.641371e-01
0.000000e+00
1.000000e+00
5.641847e-01
5.539247e-01
5.431079e-01
5.321038e-01
5.216881e-01
5.129574e-01
5.071049e-01
5.050779e-01
5.072398e-01
5.132204e-01
5.221326e-01
5.324876e-01
5.433630e-01
5.541735e-01
5.634098e-01
0.000000e+00
1.000000e+00
5.642894e-01
5.530649e-01
5.416121e-01
5.300492e-01
5.191013e-01
5.099258e-01
5.037751e-01
5.016477e-01
5.039193e-01
5.101979e-01
5.195466e-01
5.304853e-01
5.418465e-01
5.531662e-01
5.630006e-01
0.000000e+00
1.000000e+00
5.651188e-01
5.528073e-01
5.410769e-01
5.293092e-01
5.181675e-01
5.088338e-01
5.025770e-01
5.004149e-01
5.027262e-01
5.091096e-01
5.186008e-01
5.297863e-01
5.413111e-01
5.527698e-01
5.628703e-01
0.000000e+00
1.000000e+00
5.648217e-01
5.530564e-01
5.415384e-01
5.299428e-01
5.189610e-01
5.097611e-01
5.035939e-01
5.014616e-01
5.037391e-01
5.100277e-01
5.193673e-01
5.304209e-01
5.417866e-01
5.530314e-01
5.629811e-01
0.000000e+00
1.000000e+00
5.641084e-01
5.538191e-01
5.429373e-01
5.318692e-01
5.213883e-01
5.126039e-01
5.067118e-01
5.046713e-01
5.068439e-01
5.128490e-01
5.217637e-01
5.323100e-01
5.431931e-01
5.539143e-01
5.634412e-01
0.000000e+00
1.000000e+00
5.644279e-01
5.551962e-01
5.451665e-01
5.349157e-01
5.252195e-01
5.170974e-01
5.116522e-01
5.097640e-01
5.117717e-01
5.173275e-01
5.255676e-01
5.353420e-01
5.454457e-01
5.553408e-01
5.640989e-01
0.000000e+00
1.000000e+00
5.651812e-01
5.570677e-01
5.480740e-01
5.388775e-01
5.301825e-01
5.229054e-01
5.180354e-01
5.163524e-01
5.181525e-01
5.231263e-01
5.305021e-01
5.392792e-01
5.483262e-01
5.571836e-01
5.650595e-01
0.000000e+00
1.000000e+00
5.661710e-01
5.592494e-01
5.514556e-01
5.434982e-01
5.359695e-01
5.296690e-01
5.254570e-01
5.240097e-01
5.255742e-01
5.298758e-01
5.362581e-01
5.438440e-01
5.516974e-01
5.593597e-01
5.662916e-01
0.000000e+00
1.000000e+00
5.673335e-01
5.615998e-01
5.551213e-01
5.485178e-01
5.422659e-01
5.370304e-01
5.335295e-01
5.323301e-01
5.336367e-01
5.372153e-01
5.425235e-01
5.488253e-01
5.553753e-01
5.617733e-01
5.669440e-01
0.000000e+00
1.000000e+00
5.717236e-01
5.701801e-01
5.685778e-01
5.669412e-01
5.653905e-01
5.640890e-01
5.632149e-01
5.629096e-01
5.632280e-01
5.641232e-01
5.654399e-01
5.669926e-01
5.686744e-01
5.703841e-01
5.749281e-01
0.000000e+00
1.000000e+00
5.710009e-01
5.687704e-01
5.663690e-01
5.639172e-01
5.615942e-01
5.596456e-01
5.583379e-01
5.578830e-01
5.583628e-01
5.597030e-01
5.616762e-01
5.639947e-01
5.664822e-01
5.687052e-01
5.730774e-01
0.000000e+00
1.000000e+00
5.701842e-01
5.670808e-01
5.637238e-01
5.602951e-01
5.570471e-01
5.543244e-01
5.524994e-01
5.518668e-01
5.525391e-01
5.544107e-01
5.571680e-01
5.604029e-01
5.638715e-01
5.669849e-01
5.711559e-01
0.000000e+00
1.000000e+00
5.692348e-01
5.651528e-01
5.607047e-01
5.561607e-01
5.518577e-01
5.482528e-01
5.458388e-01
5.450041e-01
5.458957e-01
5.483728e-01
5.520263e-01
5.563003e-01
5.608855e-01
5.650950e-01
5.697746e-01
0.000000e+00
1.000000e+00
5.682012e-01
5.630558e-01
5.574272e-01
5.516734e-01
5.462272e-01
5.416671e-01
5.386160e-01
5.375614e-01
5.386895e-01
5.418228e-01
5.464531e-01
5.518502e-01
5.576476e-01
5.631218e-01
5.678275e-01
0.000000e+00
1.000000e+00
5.671685e-01
5.609019e-01
5.540636e-01
5.470698e-01
5.404534e-01
5.349159e-01
5.312119e-01
5.299306e-01
5.313001e-01
5.351050e-01
5.407428e-01
5.472846e-01
5.543169e-01
5.611086e-01
5.664987e-01
0.000000e+00
1.000000e+00
5.662149e-01
5.588346e-01
5.508326e-01
5.426512e-01
5.349148e-01
5.284408e-01
5.241086e-01
5.226079e-01
5.242083e-01
5.286556e-01
5.352655e-01
5.429049e-01
5.511042e-01
5.591069e-01
5.656110e-01
0.000000e+00
1.000000e+00
5.653969e-01
5.570107e-01
5.479788e-01
5.387544e-01
5.300326e-01
5.227308e-01
5.178406e-01
5.161448e-01
5.179489e-01
5.229608e-01
5.304313e-01
5.390493e-01
5.482550e-01
5.572960e-01
5.648157e-01
0.000000e+00
1.000000e+00
5.647971e-01
5.555910e-01
5.457453e-01
5.357084e-01
5.262125e-01
5.182578e-01
5.129260e-01
5.110769e-01
5.130418e-01
5.184942e-01
5.266355e-01
5.360418e-01
5.460095e-01
5.558425e-01
5.642797e-01
0.000000e+00
1.000000e+00
5.645605e-01
5.547241e-01
5.443329e-01
5.337755e-01
5.237818e-01
5.154059e-01
5.097904e-01
5.078451e-01
5.099139e-01
5.156451e-01
5.242059e-01
5.341427e-01
5.445675e-01
5.548757e-01
5.641235e-01
0.000000e+00
1.000000e+00
5.649683e-01
5.544712e-01
5.438501e-01
5.331115e-01
5.229438e-01
5.144207e-01
5.087069e-01
5.067289e-01
5.088352e-01
5.146601e-01
5.233543e-01
5.335053e-01
5.440660e-01
5.544909e-01
5.642792e-01
0.000000e+00
1.000000e+00
5.652980e-01
5.548017e-01
5.443299e-01
5.337675e-01
5.237656e-01
5.153822e-01
5.097588e-01
5.078113e-01
5.098827e-01
5.156100e-01
5.241497e-01
5.341597e-01
5.445410e-01
5.547446e-01
5.646055e-01
0.000000e+00
1.000000e+00
5.649774e-01
5.555992e-01
5.457124e-01
5.356651e-01
5.261540e-01
5.181830e-01
5.128350e-01
5.109779e-01
5.129446e-01
5.183929e-01
5.265096e-01
5.360256e-01
5.459290e-01
5.556042e-01
5.652053e-01
0.000000e+00
1.000000e+00
5.653211e-01
5.569471e-01
5.478925e-01
5.386429e-01
5.298948e-01
5.225677e-01
5.176577e-01
5.159520e-01
5.177569e-01
5.227653e-01
5.302207e-01
5.389894e-01
5.481301e-01
5.569948e-01
5.659892e-01
0.000000e+00
1.000000e+00
5.660384e-01
5.587566e-01
5.507159e-01
5.424921e-01
5.347166e-01
5.282098e-01
5.238563e-01
5.223523e-01
5.239579e-01
5.283977e-01
5.350158e-01
5.428197e-01
5.509376e-01
5.587954e-01
5.668641e-01
0.000000e+00
1.000000e+00
5.669749e-01
5.608653e-01
5.539884e-01
5.469643e-01
5.403184e-01
5.347564e-01
5.310391e-01