<?xml version="1.0"?>
<VTKFile type="StructuredGrid" version="0.1">
  <StructuredGrid WholeExtent="0 16 0 16 0 16">
    <Piece Extent="0 16 0 16 0 16">
      <PointData Scalars="temperature" Vectors="velocity">
        <DataArray type="Float32" Name="temperature" format="ascii">
1.000000e+00
5.737771e-01
5.744513e-01
5.752249e-01
5.760101e-01
5.767968e-01
5.775213e-01
5.781036e-01
5.784694e-01
5.785428e-01
5.782486e-01
5.775449e-01
5.766182e-01
5.756187e-01
5.746770e-01
5.729318e-01
0.000000e+00
1.000000e+00
5.738058e-01
5.742810e-01
5.749827e-01
5.756825e-01
5.763909e-01
5.770343e-01
5.775192e-01
5.778003e-01
5.779163e-01
5.776258e-01
5.769947e-01
5.761889e-01
5.753103e-01
5.744974e-01
5.730585e-01
0.000000e+00
1.000000e+00
5.736772e-01
5.740892e-01
5.747003e-01
5.753087e-01
5.759121e-01
5.764534e-01
5.768582e-01
5.770847e-01
5.771885e-01
5.769007e-01
5.763743e-01
5.757022e-01
5.749628e-01
5.742664e-01
5.730306e-01
0.000000e+00
1.000000e+00
5.735302e-01
5.738917e-01
5.743937e-01
5.749007e-01
5.753950e-01
5.758336e-01
5.761668e-01
5.763396e-01
5.763466e-01
5.761282e-01
5.757167e-01
5.751836e-01
5.745912e-01
5.740319e-01
5.729671e-01
0.000000e+00
1.000000e+00
5.733890e-01
5.737008e-01
5.740851e-01
5.744803e-01
5.748586e-01
5.751843e-01
5.754152e-01
5.755078e-01
5.754557e-01
5.753023e-01
5.750078e-01
5.746126e-01
5.741760e-01
5.737791e-01
5.728454e-01
0.000000e+00
1.000000e+00
5.732565e-01
5.734993e-01
5.737575e-01
5.740237e-01
5.742756e-01
5.744878e-01
5.746319e-01
5.746803e-01
5.746289e-01
5.745044e-01
5.743092e-01
5.740563e-01
5.737732e-01
5.735519e-01
5.727510e-01
0.000000e+00
1.000000e+00
5.731098e-01
5.732687e-01
5.734109e-01
5.735534e-01
5.736919e-01
5.738044e-01
5.738786e-01
5.739022e-01
5.738731e-01
5.737960e-01
5.736852e-01
5.735517e-01
5.734006e-01
5.733294e-01
5.727445e-01
0.000000e+00
1.000000e+00
5.729974e-01
5.730766e-01
5.730951e-01
5.731158e-01
5.731401e-01
5.731593e-01
5.731752e-01
5.731829e-01
5.731796e-01
5.731648e-01
5.731441e-01
5.731206e-01
5.730990e-01
5.731389e-01
5.726299e-01
0.000000e+00
1.000000e+00
5.729491e-01
5.729088e-01
5.728442e-01
5.727784e-01
5.727141e-01
5.726589e-01
5.726198e-01
5.726029e-01
5.726116e-01
5.726439e-01
5.726960e-01
5.727566e-01
5.728272e-01
5.729684e-01
5.723920e-01
0.000000e+00
1.000000e+00
5.729766e-01
5.727739e-01
5.726364e-01
5.724941e-01
5.723585e-01
5.722442e-01
5.721670e-01
5.721394e-01
5.721658e-01
5.722403e-01
5.723548e-01
5.724898e-01
5.726288e-01
5.727939e-01
5.724163e-01
0.000000e+00
1.000000e+00
5.730381e-01
5.726792e-01
5.725092e-01
5.723202e-01
5.721403e-01
5.719889e-01
5.718867e-01
5.718505e-01
5.718855e-01
5.719849e-01
5.721384e-01
5.723194e-01
5.725031e-01
5.726862e-01
5.727284e-01
0.000000e+00
1.000000e+00
5.731060e-01
5.726257e-01
5.724594e-01
5.722520e-01
5.720549e-01
5.718889e-01
5.717773e-01
5.717379e-01
5.717759e-01
5.718859e-01
5.720551e-01
5.722527e-01
5.724540e-01
5.726603e-01
5.726517e-01
0.000000e+00
1.000000e+00
5.731653e-01
5.726212e-01
5.724830e-01
5.722844e-01
5.720955e-01
5.719367e-01
5.718299e-01
5.717924e-01
5.718283e-01
5.719346e-01
5.720970e-01
5.722859e-01
5.724806e-01
5.726686e-01
5.725140e-01
0.000000e+00
1.000000e+00
5.732599e-01
5.726587e-01
5.725729e-01
5.724076e-01
5.722503e-01
5.721181e-01
5.720293e-01
5.719983e-01
5.720278e-01
5.721170e-01
5.722524e-01
5.724095e-01
5.725716e-01
5.727232e-01
5.727179e-01
0.000000e+00
1.000000e+00
5.733964e-01
5.727213e-01
5.727188e-01
5.726075e-01
5.725014e-01
5.724121e-01
5.723524e-01
5.723316e-01
5.723512e-01
5.724115e-01
5.725033e-01
5.726101e-01
5.727182e-01
5.728197e-01
5.727702e-01
0.000000e+00
1.000000e+00
5.735447e-01
5.728060e-01
5.729088e-01
5.728675e-01
5.728276e-01
5.727940e-01
5.727716e-01
5.727640e-01
5.727712e-01
5.727935e-01
5.728293e-01
5.728718e-01
5.729137e-01
5.729587e-01
5.726556e-01
0.000000e+00
1.000000e+00
5.735518e-01
5.729260e-01
5.731305e-01
5.731709e-01
5.732079e-01
5.732389e-01
5.732600e-01
5.732680e-01
5.732608e-01
5.732387e-01
5.732083e-01
5.731705e-01
5.731311e-01
5.731489e-01
5.724548e-01
0.000000e+00
1.000000e+00
5.739528e-01
5.745718e-01
5.754185e-01
5.762502e-01
5.770782e-01
5.778622e-01
5.785413e-01
5.789844e-01
5.790231e-01
5.787692e-01
5.780506e-01
5.770302e-01
5.759090e-01
5.748143e-01
5.732389e-01
0.000000e+00
1.000000e+00
5.738787e-01
5.744533e-01
5.752325e-01
5.759885e-01
5.767366e-01
5.774190e-01
5.779778e-01
5.783669e-01
5.784606e-01
5.782251e-01
5.775390e-01
5.765976e-01
5.755540e-01
5.746251e-01
5.732339e-01
0.000000e+00
1.000000e+00
5.737544e-01
5.742667e-01
5.749591e-01
5.756499e-01
5.763223e-01
5.769193e-01
5.773598e-01
5.776474e-01
5.777954e-01
5.774978e-01
5.768468e-01
5.760213e-01
5.751400e-01
5.743828e-01
5.730935e-01
0.000000e+00
1.000000e+00
5.736127e-01
5.740677e-01
5.746512e-01
5.752421e-01
5.758157e-01
5.763222e-01
5.767014e-01
5.769446e-01
5.770090e-01
5.766997e-01
5.761713e-01
5.755153e-01
5.748123e-01
5.742028e-01
5.730051e-01
0.000000e+00
1.000000e+00
5.734730e-01
5.738655e-01
5.743329e-01
5.748103e-01
5.752719e-01
5.756790e-01
5.759820e-01
5.761253e-01
5.760867e-01
5.758850e-01
5.754884e-01
5.749847e-01
5.744370e-01
5.739751e-01
5.728966e-01
0.000000e+00
1.000000e+00
5.733320e-01
5.736576e-01
5.740042e-01
5.743632e-01
5.747091e-01
5.750030e-01
5.752050e-01
5.752739e-01
5.752107e-01
5.750672e-01
5.747975e-01
5.744371e-01
5.740444e-01
5.737642e-01
5.727856e-01
0.000000e+00
1.000000e+00
5.731981e-01
5.734325e-01
5.736679e-01
5.739091e-01
5.741349e-01
5.743183e-01
5.744343e-01
5.744671e-01
5.744114e-01
5.742950e-01
5.741260e-01
5.739109e-01
5.736678e-01
5.735703e-01
5.727066e-01
0.000000e+00
1.000000e+00
5.730452e-01
5.732145e-01
5.733305e-01
5.734483e-01
5.735593e-01
5.736523e-01
5.737139e-01
5.737345e-01
5.737090e-01
5.736449e-01
5.735546e-01
5.734457e-01
5.733318e-01
5.733178e-01
5.727183e-01
0.000000e+00
1.000000e+00
5.729496e-01
5.730640e-01
5.730703e-01
5.730844e-01
5.730992e-01
5.731113e-01
5.731186e-01
5.731194e-01
5.731135e-01
5.731029e-01
5.730908e-01
5.730721e-01
5.730602e-01
5.731513e-01
5.725814e-01
0.000000e+00
1.000000e+00
5.729756e-01
5.729317e-01
5.728673e-01
5.728092e-01
5.727526e-01
5.727043e-01
5.726711e-01
5.726576e-01
5.726661e-01
5.726948e-01
5.727392e-01
5.727935e-01
5.728537e-01
5.729668e-01
5.723711e-01
0.000000e+00
1.000000e+00
5.730686e-01
5.728310e-01
5.727260e-01
5.726170e-01
5.725128e-01
5.724248e-01
5.723655e-01
5.723441e-01
5.723645e-01
5.724220e-01
5.725080e-01
5.726155e-01
5.727245e-01
5.728311e-01
5.727890e-01
0.000000e+00
1.000000e+00
5.731356e-01
5.727730e-01
5.726698e-01
5.725401e-01
5.724166e-01
5.723126e-01
5.722424e-01
5.722174e-01
5.722419e-01
5.723097e-01
5.724127e-01
5.725415e-01
5.726714e-01
5.727972e-01
5.727721e-01
0.000000e+00
1.000000e+00
5.732408e-01
5.727605e-01
5.726907e-01
5.725689e-01
5.724529e-01
5.723552e-01
5.722895e-01
5.722664e-01
5.722894e-01
5.723526e-01
5.724505e-01
5.725713e-01
5.726936e-01
5.728127e-01
5.727012e-01
0.000000e+00
1.000000e+00
5.733852e-01
5.727842e-01
5.727802e-01
5.726915e-01
5.726069e-01
5.725356e-01
5.724878e-01
5.724711e-01
5.724876e-01
5.725333e-01
5.726055e-01
5.726940e-01
5.727819e-01
5.728644e-01
5.727887e-01
0.000000e+00
1.000000e+00
5.735367e-01
5.728414e-01
5.729277e-01
5.728931e-01
5.728595e-01
5.728311e-01
5.728123e-01
5.728060e-01
5.728124e-01
5.728294e-01
5.728577e-01
5.728930e-01
5.729293e-01
5.729621e-01
5.727433e-01
0.000000e+00
1.000000e+00
5.735589e-01
5.729173e-01
5.731189e-01
5.731551e-01
5.731889e-01
5.732175e-01
5.732371e-01
5.732440e-01
5.732365e-01
5.732154e-01
5.731887e-01
5.731517e-01
5.731161e-01
5.730955e-01
5.728005e-01
0.000000e+00
1.000000e+00
5.734824e-01
5.730913e-01
5.733379e-01
5.734554e-01
5.735671e-01
5.736621e-01
5.737270e-01
5.737506e-01
5.737272e-01
5.736579e-01
5.735567e-01
5.734472e-01
5.733360e-01
5.733098e-01
5.726030e-01
0.000000e+00
1.000000e+00
5.740144e-01
5.746746e-01
5.755658e-01
5.764245e-01
5.772746e-01
5.781142e-01
5.788908e-01
5.793855e-01
5.794081e-01
5.791627e-01
5.784741e-01
5.774021e-01
5.761889e-01
5.749575e-01
5.733177e-01
0.000000e+00
1.000000e+00
5.739336e-01
5.745877e-01
5.754289e-01
5.762313e-01
5.769996e-01
5.777193e-01
5.783782e-01
5.788402e-01
5.788661e-01
5.786842e-01
5.780197e-01
5.769937e-01
5.758276e-01
5.747572e-01
5.733034e-01
0.000000e+00
1.000000e+00
5.738136e-01
5.744058e-01
5.751662e-01
5.759234e-01
5.766427e-01
5.772722e-01
5.777652e-01
5.781170e-01
5.782666e-01
5.780073e-01
5.772930e-01
5.763471e-01
5.753609e-01
5.745151e-01
5.731777e-01
0.000000e+00
1.000000e+00
5.736841e-01
5.742027e-01
5.748555e-01
5.755176e-01
5.761586e-01
5.767201e-01
5.771248e-01
5.774106e-01
5.775364e-01
5.771979e-01
5.765763e-01
5.758201e-01
5.750370e-01
5.743488e-01
5.730822e-01
0.000000e+00
1.000000e+00
5.735460e-01
5.739918e-01
5.745293e-01
5.750789e-01
5.756110e-01
5.760834e-01
5.764413e-01
5.766351e-01
5.766415e-01
5.763755e-01
5.758969e-01
5.753071e-01
5.746715e-01
5.741207e-01
5.729607e-01
0.000000e+00
1.000000e+00
5.734041e-01
5.737784e-01
5.741967e-01
5.746291e-01
5.750487e-01
5.754145e-01
5.756777e-01
5.757801e-01
5.757244e-01
5.755520e-01
5.752034e-01
5.747558e-01
5.742775e-01
5.738933e-01
5.728560e-01
0.000000e+00
1.000000e+00
5.732688e-01
5.735687e-01
5.738661e-01
5.741782e-01
5.744776e-01
5.747278e-01
5.748954e-01
5.749490e-01
5.748896e-01
5.747588e-01
5.745281e-01
5.742202e-01
5.738904e-01
5.736927e-01
5.727252e-01
0.000000e+00
1.000000e+00
5.731280e-01
5.733510e-01
5.735480e-01
5.737449e-01
5.739264e-01
5.740757e-01
5.741723e-01
5.742017e-01
5.741578e-01
5.740632e-01
5.739250e-01
5.737436e-01
5.735415e-01
5.734873e-01
5.726819e-01
0.000000e+00
1.000000e+00
5.729613e-01
5.731603e-01
5.732440e-01
5.733374e-01
5.734226e-01
5.734941e-01
5.735411e-01
5.735578e-01
5.735384e-01
5.734915e-01
5.734263e-01
5.733456e-01
5.732557e-01
5.732628e-01
5.726570e-01
0.000000e+00
1.000000e+00
5.729128e-01
5.730664e-01
5.730511e-01
5.730548e-01
5.730614e-01
5.730671e-01
5.730702e-01
5.730701e-01
5.730657e-01
5.730592e-01
5.730530e-01
5.730429e-01
5.730351e-01
5.730837e-01
5.726070e-01
0.000000e+00
1.000000e+00
5.730452e-01
5.729652e-01
5.729112e-01
5.728702e-01
5.728292e-01
5.727940e-01
5.727700e-01
5.727602e-01
5.727662e-01
5.727869e-01
5.728191e-01
5.728564e-01
5.728957e-01
5.729677e-01
5.727512e-01
0.000000e+00
1.000000e+00
5.731884e-01
5.728999e-01
5.728446e-01
5.727798e-01
5.727175e-01
5.726647e-01
5.726291e-01
5.726162e-01
5.726282e-01
5.726628e-01
5.727134e-01
5.727755e-01
5.728415e-01
5.729217e-01
5.728174e-01
0.000000e+00
1.000000e+00
5.733067e-01
5.728776e-01
5.728628e-01
5.728046e-01
5.727488e-01
5.727017e-01
5.726700e-01
5.726587e-01
5.726697e-01
5.727003e-01
5.727450e-01
5.728017e-01
5.728633e-01
5.729229e-01
5.726974e-01
0.000000e+00
1.000000e+00
5.734658e-01
5.728970e-01
5.729527e-01
5.729272e-01
5.729024e-01
5.728814e-01
5.728673e-01
5.728624e-01
5.728671e-01
5.728797e-01
5.728983e-01
5.729247e-01
5.729533e-01
5.729699e-01
5.726180e-01
0.000000e+00
1.000000e+00
5.735377e-01
5.729543e-01
5.731017e-01
5.731308e-01
5.731575e-01
5.731800e-01
5.731955e-01
5.732014e-01
5.731961e-01
5.731792e-01
5.731537e-01
5.731255e-01
5.731006e-01
5.731093e-01
5.726627e-01
0.000000e+00
1.000000e+00
5.735341e-01
5.730509e-01
5.732901e-01
5.733917e-01
5.734867e-01
5.735663e-01
5.736201e-01
5.736389e-01
5.736204e-01
5.735721e-01
5.734988e-01
5.734057e-01
5.733090e-01
5.732586e-01
5.727328e-01
0.000000e+00
1.000000e+00
5.735506e-01
5.732306e-01
5.735038e-01
5.736865e-01
5.738616e-01
5.740091e-01
5.741093e-01
5.741456e-01
5.741111e-01
5.740140e-01
5.738611e-01
5.736932e-01
5.735196e-01
5.734059e-01
5.726873e-01
0.000000e+00
1.000000e+00
5.740727e-01
5.747358e-01
5.756528e-01
5.765146e-01
5.773868e-01
5.782893e-01
5.791339e-01
5.796498e-01
5.796776e-01
5.794121e-01
5.787438e-01
5.776559e-01
5.763744e-01
5.750397e-01
5.733963e-01
0.000000e+00
1.000000e+00
5.739851e-01
5.746704e-01
5.755538e-01
5.763736e-01
5.771551e-01
5.779207e-01
5.786666e-01
5.791592e-01
5.791487e-01
5.789708e-01
5.783380e-01
5.772693e-01
5.760051e-01
5.748264e-01
5.733609e-01
0.000000e+00
1.000000e+00
5.738652e-01
5.744946e-01
5.753019e-01
5.761007e-01
5.768475e-01
5.774998e-01
5.780582e-01
5.784780e-01
5.785799e-01
5.783657e-01
5.776351e-01
5.766045e-01
5.755224e-01
5.745907e-01
5.732325e-01
0.000000e+00
1.000000e+00
5.737404e-01
5.742960e-01
5.749985e-01
5.757105e-01
5.764000e-01
5.769995e-01
5.774231e-01
5.777456e-01
5.778961e-01
5.775825e-01
5.768985e-01
5.760649e-01
5.752074e-01
5.744400e-01
5.731568e-01
0.000000e+00
1.000000e+00
5.736070e-01
5.740873e-01
5.746782e-01
5.752796e-01
5.758635e-01
5.763790e-01
5.767626e-01
5.769952e-01
5.770549e-01
5.767479e-01
5.762093e-01
5.755564e-01
5.748519e-01
5.742206e-01
5.730363e-01
0.000000e+00
1.000000e+00
5.734657e-01
5.738698e-01
5.743425e-01
5.748291e-01
5.752982e-01
5.757115e-01
5.760191e-01
5.761525e-01
5.761240e-01
5.759217e-01
5.755151e-01
5.750033e-01
5.744525e-01
5.739905e-01
5.728986e-01
0.000000e+00
1.000000e+00
5.733211e-01
5.736623e-01
5.740149e-01
5.743776e-01
5.747275e-01
5.750276e-01
5.752361e-01
5.753069e-01
5.752470e-01
5.751098e-01
5.748299e-01
5.744582e-01
5.740614e-01
5.737729e-01
5.727860e-01
0.000000e+00
1.000000e+00
5.731880e-01
5.734543e-01
5.736948e-01
5.739385e-01
5.741717e-01
5.743647e-01
5.744931e-01
5.745341e-01
5.744860e-01
5.743807e-01
5.742048e-01
5.739590e-01
5.736973e-01
5.736014e-01
5.727022e-01
0.000000e+00
1.000000e+00
5.730442e-01
5.732376e-01
5.733997e-01
5.735447e-01
5.736777e-01
5.737875e-01
5.738585e-01
5.738819e-01
5.738507e-01
5.737842e-01
5.736883e-01
5.735479e-01
5.733948e-01
5.733642e-01
5.726171e-01
0.000000e+00
1.000000e+00
5.728733e-01
5.731188e-01
5.731543e-01
5.732156e-01
5.732762e-01
5.733242e-01
5.733550e-01
5.733663e-01
5.733543e-01
5.733268e-01
5.732868e-01
5.732365e-01
5.731810e-01
5.731605e-01
5.726877e-01
0.000000e+00
1.000000e+00
5.729238e-01
5.730637e-01
5.730432e-01
5.730385e-01
5.730387e-01
5.730401e-01
5.730407e-01
5.730397e-01
5.730373e-01
5.730355e-01
5.730339e-01
5.730320e-01
5.730296e-01
5.730273e-01
5.729069e-01
0.000000e+00
1.000000e+00
5.731685e-01
5.729993e-01
5.729694e-01
5.729527e-01
5.729341e-01
5.729173e-01
5.729056e-01
5.729007e-01
5.729028e-01
5.729117e-01
5.729253e-01
5.729412e-01
5.729597e-01
5.729702e-01
5.726396e-01
0.000000e+00
1.000000e+00
5.733628e-01
5.729683e-01
5.729846e-01
5.729713e-01
5.729579e-01
5.729464e-01
5.729386e-01
5.729356e-01
5.729378e-01
5.729445e-01
5.729539e-01
5.729635e-01
5.729748e-01
5.729713e-01
5.725720e-01
0.000000e+00
1.000000e+00
5.734725e-01
5.729838e-01
5.730753e-01
5.730943e-01
5.731116e-01
5.731262e-01
5.731361e-01
5.731394e-01
5.731347e-01
5.731230e-01
5.731053e-01
5.730847e-01
5.730683e-01
5.730637e-01
5.726088e-01
0.000000e+00
1.000000e+00
5.735209e-01
5.730734e-01
5.732223e-01
5.732972e-01
5.733670e-01
5.734263e-01
5.734669e-01
5.734810e-01
5.734657e-01
5.734236e-01
5.733611e-01
5.732882e-01
5.732187e-01
5.732626e-01
5.727090e-01
0.000000e+00
1.000000e+00
5.735402e-01
5.732119e-01
5.734182e-01
5.735680e-01
5.737062e-01
5.738195e-01
5.738934e-01
5.739166e-01
5.738849e-01
5.738033e-01
5.736909e-01
5.735621e-01
5.734314e-01
5.734028e-01
5.727223e-01
0.000000e+00
1.000000e+00
5.736126e-01
5.733422e-01
5.736262e-01
5.738570e-01
5.740754e-01
5.742576e-01
5.743814e-01
5.744275e-01
5.743870e-01
5.742752e-01
5.741087e-01
5.738930e-01
5.736615e-01
5.735039e-01
5.726991e-01
0.000000e+00
1.000000e+00
5.741238e-01
5.747469e-01
5.756891e-01
5.765429e-01
5.774334e-01
5.783735e-01
5.792387e-01
5.797595e-01
5.797914e-01
5.795155e-01
5.788601e-01
5.777819e-01
5.764751e-01
5.750823e-01
5.734450e-01
0.000000e+00
1.000000e+00
5.740175e-01
5.747140e-01
5.756214e-01
5.764405e-01
5.772272e-01
5.780242e-01
5.788123e-01
5.793108e-01
5.792830e-01
5.790961e-01
5.784873e-01
5.774070e-01
5.760934e-01
5.748547e-01
5.733713e-01
0.000000e+00
1.000000e+00
5.738969e-01
5.745394e-01
5.753775e-01
5.761972e-01
5.769558e-01
5.776224e-01
5.782188e-01
5.786631e-01
5.787336e-01
5.785406e-01
5.778124e-01
5.767361e-01
5.756021e-01
5.746322e-01
5.732708e-01
0.000000e+00
1.000000e+00
5.737726e-01
5.743463e-01
5.750786e-01
5.758186e-01
5.765323e-01
5.771490e-01
5.775877e-01
5.779347e-01
5.780739e-01
5.777821e-01
5.770679e-01
5.761899e-01
5.752944e-01
5.744898e-01
5.731862e-01
0.000000e+00
1.000000e+00
5.736443e-01
5.741385e-01
5.747591e-01
5.753879e-01
5.759994e-01
5.765371e-01
5.769320e-01
5.771846e-01
5.772638e-01
5.769480e-01
5.763772e-01
5.756883e-01
5.749466e-01
5.742754e-01
5.730608e-01
0.000000e+00
1.000000e+00
5.735013e-01
5.739212e-01
5.744231e-01
5.749373e-01
5.754329e-01
5.758704e-01
5.762016e-01
5.763520e-01
5.763422e-01
5.761196e-01
5.756838e-01
5.751368e-01
5.745469e-01
5.740434e-01
5.729161e-01
0.000000e+00
1.000000e+00
5.733570e-01
5.737118e-01
5.740911e-01
5.744812e-01
5.748575e-01
5.751848e-01
5.754170e-01
5.754977e-01
5.754368e-01
5.752949e-01
5.749901e-01
5.745854e-01
5.741514e-01
5.738185e-01
5.728017e-01
0.000000e+00
1.000000e+00
5.732145e-01
5.735049e-01
5.737670e-01
5.740373e-01
5.742971e-01
5.745145e-01
5.746603e-01
5.747074e-01
5.746564e-01
5.745445e-01
5.743462e-01
5.740735e-01
5.737831e-01
5.736224e-01
5.727562e-01
0.000000e+00
1.000000e+00
5.730974e-01
5.732808e-01
5.734714e-01
5.736391e-01
5.737949e-01
5.739239e-01
5.740073e-01
5.740355e-01
5.740031e-01
5.739327e-01
5.738149e-01
5.736362e-01
5.734627e-01
5.734163e-01
5.727828e-01
0.000000e+00
1.000000e+00
5.729053e-01
5.731476e-01
5.732354e-01
5.733129e-01
5.733990e-01
5.734656e-01
5.735066e-01
5.735190e-01
5.735029e-01
5.734686e-01
5.733966e-01
5.733152e-01
5.732436e-01
5.732076e-01
5.727518e-01
0.000000e+00
1.000000e+00
5.728337e-01
5.731046e-01
5.730919e-01
5.730964e-01
5.731213e-01
5.731419e-01
5.731557e-01
5.731603e-01
5.731573e-01
5.731514e-01
5.731415e-01
5.731350e-01
5.731106e-01
5.730633e-01
5.728736e-01
0.000000e+00
1.000000e+00
5.730878e-01
5.730496e-01
5.730283e-01
5.730349e-01
5.730362e-01
5.730355e-01
5.730347e-01
5.730332e-01
5.730306e-01
5.730275e-01
5.730249e-01
5.730242e-01
5.730292e-01
5.730314e-01
5.727911e-01
0.000000e+00
1.000000e+00
5.733525e-01
5.730180e-01
5.730414e-01
5.730488e-01
5.730555e-01
5.730606e-01
5.730640e-01
5.730651e-01
5.730640e-01
5.730606e-01
5.730552e-01
5.730452e-01
5.730381e-01
5.730573e-01
5.727463e-01
0.000000e+00
1.000000e+00
5.735104e-01
5.730375e-01
5.731352e-01
5.731741e-01
5.732104e-01
5.732418e-01
5.732637e-01
5.732710e-01
5.732616e-01
5.732373e-01
5.732003e-01
5.731565e-01
5.731251e-01
5.731507e-01
5.725766e-01
0.000000e+00
1.000000e+00
5.735230e-01
5.731473e-01
5.732825e-01
5.733847e-01
5.734747e-01
5.735489e-01
5.735974e-01
5.736108e-01
5.735870e-01
5.735274e-01
5.734414e-01
5.733452e-01
5.732672e-01
5.733325e-01
5.726149e-01
0.000000e+00
1.000000e+00
5.735446e-01
5.733097e-01
5.734792e-01
5.736526e-01
5.738141e-01
5.739453e-01
5.740311e-01
5.740585e-01
5.740214e-01
5.739257e-01
5.737990e-01
5.736503e-01
5.734921e-01
5.734832e-01
5.726589e-01
0.000000e+00
1.000000e+00
5.736543e-01
5.733995e-01
5.736941e-01
5.739474e-01
5.741880e-01
5.743893e-01
5.745272e-01
5.745804e-01
5.745351e-01
5.744162e-01
5.742375e-01
5.739969e-01
5.737348e-01
5.735589e-01
5.727223e-01
0.000000e+00
1.000000e+00
5.741127e-01
5.747342e-01
5.756602e-01
5.765153e-01
5.774025e-01
5.783320e-01
5.791817e-01
5.797007e-01
5.797382e-01
5.794694e-01
5.788244e-01
5.777637e-01
5.764637e-01
5.750627e-01
5.734630e-01
0.000000e+00
1.000000e+00
5.740176e-01
5.747046e-01
5.756107e-01
5.764279e-01
5.772145e-01
5.780112e-01
5.787875e-01
5.792795e-01
5.792429e-01
5.790585e-01
5.784545e-01
5.773808e-01
5.760690e-01
5.748399e-01
5.733498e-01
0.000000e+00
1.000000e+00
5.739025e-01
5.745355e-01
5.753815e-01
5.762031e-01
5.769604e-01
5.776254e-01
5.782148e-01
5.786448e-01
5.787138e-01
5.785222e-01
5.777943e-01
5.767218e-01
5.755957e-01
5.746307e-01
5.732643e-01
0.000000e+00
1.000000e+00
5.737780e-01
5.743504e-01
5.750936e-01
5.758381e-01
5.765515e-01
5.771640e-01
5.775981e-01
5.779254e-01
5.780707e-01
5.777677e-01
5.770555e-01
5.761821e-01
5.752911e-01
5.744919e-01
5.731598e-01
0.000000e+00
1.000000e+00
5.736461e-01
5.741454e-01
5.747657e-01
5.753948e-01
5.760056e-01
5.765429e-01
5.769428e-01
5.771898e-01
5.772501e-01
5.769302e-01
5.763637e-01
5.756789e-01
5.749415e-01
5.742752e-01
5.730378e-01
0.000000e+00
1.000000e+00
5.735061e-01
5.739197e-01
5.744165e-01
5.749290e-01
5.754275e-01
5.758697e-01
5.762062e-01
5.763572e-01
5.763261e-01
5.761061e-01
5.756758e-01
5.751332e-01
5.745463e-01
5.740450e-01
5.729138e-01
0.000000e+00
1.000000e+00
5.733624e-01
5.737071e-01
5.740840e-01
5.744761e-01
5.748559e-01
5.751836e-01
5.754128e-01
5.754898e-01
5.754269e-01
5.752805e-01
5.749805e-01
5.745824e-01
5.741502e-01
5.738172e-01
5.728054e-01
0.000000e+00
1.000000e+00
5.732224e-01
5.735035e-01
5.737603e-01
5.740312e-01
5.742893e-01
5.745018e-01
5.746421e-01
5.746856e-01
5.746317e-01
5.745156e-01
5.743219e-01
5.740569e-01
5.737728e-01
5.735955e-01
5.728249e-01
0.000000e+00
1.000000e+00
5.730882e-01
5.732810e-01
5.734606e-01
5.736237e-01
5.737732e-01
5.738967e-01
5.739771e-01
5.740036e-01
5.739671e-01
5.738904e-01
5.737797e-01
5.736200e-01
5.734500e-01
5.733802e-01
5.728775e-01
0.000000e+00
1.000000e+00
5.729000e-01
5.731359e-01
5.731960e-01
5.732729e-01
5.733484e-01
5.734088e-01
5.734481e-01
5.734628e-01
5.734480e-01
5.734130e-01
5.733601e-01
5.732924e-01
5.732197e-01
5.731587e-01
5.729769e-01
0.000000e+00
1.000000e+00
5.728803e-01
5.730880e-01
5.730787e-01
5.730871e-01
5.731003e-01
5.731118e-01
5.731195e-01
5.731204e-01
5.731156e-01
5.731067e-01
5.730952e-01
5.730835e-01
5.730702e-01
5.730414e-01
5.729315e-01
0.000000e+00
1.000000e+00
5.731300e-01
5.730302e-01
5.730016e-01
5.729966e-01
5.729892e-01
5.729817e-01
5.729764e-01
5.729736e-01
5.729737e-01
5.729766e-01
5.729822e-01
5.729884e-01
5.729965e-01
5.730052e-01
5.728066e-01
0.000000e+00
1.000000e+00
5.733652e-01
5.730001e-01
5.730198e-01
5.730194e-01
5.730186e-01
5.730176e-01
5.730169e-01
5.730167e-01
5.730169e-01
5.730173e-01
5.730176e-01
5.730169e-01
5.730144e-01
5.730266e-01
5.728104e-01
0.000000e+00
1.000000e+00
5.734843e-01
5.730209e-01
5.731181e-01
5.731509e-01
5.731812e-01
5.732073e-01
5.732255e-01
5.732320e-01
5.732248e-01
5.732051e-01
5.731752e-01
5.731386e-01
5.731066e-01
5.731120e-01
5.727627e-01
0.000000e+00
1.000000e+00
5.735217e-01
5.731338e-01
5.732679e-01
5.733653e-01
5.734527e-01
5.735231e-01
5.735689e-01
5.735830e-01
5.735618e-01
5.735078e-01
5.734283e-01
5.733357e-01
5.732550e-01
5.732902e-01
5.726845e-01
0.000000e+00
1.000000e+00
5.735701e-01
5.732885e-01
5.734707e-01
5.736419e-01
5.738028e-01
5.739333e-01
5.740181e-01
5.740458e-01
5.740101e-01
5.739160e-01
5.737923e-01
5.736486e-01
5.734890e-01
5.734453e-01
5.726791e-01
0.000000e+00
1.000000e+00
5.736389e-01
5.733869e-01
5.736873e-01
5.739338e-01
5.741735e-01
5.743785e-01
5.745224e-01
5.745818e-01
5.745413e-01
5.744247e-01
5.742457e-01
5.740055e-01
5.737420e-01
5.735541e-01
5.727216e-01
0.000000e+00
1.000000e+00
5.740706e-01
5.746972e-01
5.755900e-01
5.764364e-01
5.772939e-01
5.781671e-01
5.789658e-01
5.794742e-01
5.795138e-01
5.792672e-01
5.786372e-01
5.775968e-01
5.763253e-01
5.749881e-01
5.734294e-01
0.000000e+00
1.000000e+00
5.739873e-01
5.746461e-01
5.755266e-01
5.763344e-01
5.771103e-01
5.778741e-01
5.785881e-01
5.790552e-01
5.790208e-01
5.788456e-01
5.782296e-01
5.771839e-01
5.759315e-01
5.747765e-01
5.733069e-01
0.000000e+00
1.000000e+00
5.738717e-01
5.744814e-01
5.752984e-01
5.760982e-01
5.768393e-01
5.774883e-01
5.780286e-01
5.783998e-01
5.785139e-01
5.782984e-01
5.775734e-01
5.765559e-01
5.754956e-01
5.745845e-01
5.732322e-01
0.000000e+00
1.000000e+00
5.737499e-01
5.743017e-01
5.750177e-01
5.757354e-01
5.764215e-01
5.770116e-01
5.774353e-01
5.777236e-01
5.778624e-01
5.775361e-01
5.768619e-01
5.760425e-01
5.751970e-01
5.744370e-01
5.731217e-01
0.000000e+00
1.000000e+00
5.736233e-01
5.740939e-01
5.746921e-01
5.752956e-01
5.758808e-01
5.763986e-01
5.767920e-01
5.769969e-01
5.769903e-01
5.767041e-01
5.761823e-01
5.755381e-01
5.748412e-01
5.742189e-01
5.730070e-01
0.000000e+00
1.000000e+00
5.734832e-01
5.738708e-01
5.743412e-01
5.748287e-01
5.753047e-01
5.757210e-01
5.760236e-01
5.761379e-01
5.760659e-01
5.758648e-01
5.754805e-01
5.749842e-01
5.744433e-01
5.739899e-01
5.728807e-01
0.000000e+00
1.000000e+00
5.733393e-01
5.736525e-01
5.739960e-01
5.743612e-01
5.747128e-01
5.750069e-01
5.752025e-01
5.752626e-01
5.751912e-01
5.750363e-01
5.747724e-01
5.744221e-01
5.740397e-01
5.737685e-01
5.727736e-01
0.000000e+00
1.000000e+00
5.731979e-01
5.734309e-01
5.736666e-01
5.739064e-01
5.741285e-01
5.743072e-01
5.744209e-01
5.744570e-01
5.744008e-01
5.742832e-01
5.741180e-01
5.739027e-01
5.736592e-01
5.735372e-01
5.727626e-01
0.000000e+00
1.000000e+00
5.730244e-01
5.732025e-01
5.733340e-01
5.734572e-01
5.735716e-01
5.736678e-01
5.737318e-01
5.737558e-01
5.737295e-01
5.736649e-01
5.735738e-01
5.734632e-01
5.733339e-01
5.732640e-01
5.730520e-01
0.000000e+00
1.000000e+00
5.729231e-01
5.731022e-01
5.731151e-01
5.731441e-01
5.731736e-01
5.731982e-01
5.732141e-01
5.732183e-01
5.732095e-01
5.731904e-01
5.731622e-01
5.731329e-01
5.731062e-01
5.730733e-01
5.730626e-01
0.000000e+00
1.000000e+00
5.729801e-01
5.729988e-01
5.729612e-01
5.729381e-01
5.729142e-01
5.728934e-01
5.728789e-01
5.728723e-01
5.728749e-01
5.728865e-01
5.729048e-01
5.729284e-01
5.729547e-01
5.729703e-01
5.726850e-01
0.000000e+00
1.000000e+00
5.731341e-01
5.729408e-01
5.728892e-01
5.728408e-01
5.727941e-01
5.727544e-01
5.727274e-01
5.727176e-01
5.727263e-01
5.727523e-01
5.727915e-01
5.728393e-01
5.728888e-01
5.729199e-01
5.727192e-01
0.000000e+00
1.000000e+00
5.732941e-01
5.729233e-01
5.729135e-01
5.728739e-01
5.728358e-01
5.728036e-01
5.727819e-01
5.727742e-01
5.727818e-01
5.728032e-01
5.728351e-01
5.728738e-01
5.729119e-01
5.729393e-01
5.727661e-01
0.000000e+00
1.000000e+00
5.734417e-01
5.729519e-01
5.730169e-01
5.730144e-01
5.730114e-01
5.730089e-01
5.730075e-01
5.730073e-01
5.730078e-01
5.730088e-01
5.730099e-01
5.730101e-01
5.730099e-01
5.730151e-01
5.729771e-01
0.000000e+00
1.000000e+00
5.735026e-01
5.730395e-01
5.731806e-01
5.732399e-01
5.732949e-01
5.733413e-01
5.733731e-01
5.733845e-01
5.733724e-01
5.733380e-01
5.732868e-01
5.732276e-01
5.731699e-01
5.731462e-01
5.729002e-01
0.000000e+00
1.000000e+00
5.735423e-01
5.731721e-01
5.733910e-01
5.735338e-01
5.736660e-01
5.737734e-01
5.738428e-01
5.738640e-01
5.738327e-01
5.737543e-01
5.736559e-01
5.735420e-01
5.734076e-01
5.733228e-01
5.728182e-01
0.000000e+00
1.000000e+00
5.736069e-01
5.733271e-01
5.736103e-01
5.738286e-01
5.740429e-01
5.742277e-01
5.743593e-01
5.744147e-01
5.743811e-01
5.742738e-01
5.741099e-01
5.738982e-01
5.736641e-01
5.734945e-01
5.727710e-01
0.000000e+00
1.000000e+00
5.740309e-01
5.745984e-01
5.754725e-01
5.762821e-01
5.770902e-01
5.778816e-01
5.785961e-01
5.790789e-01
5.791237e-01
5.788929e-01
5.782888e-01
5.772852e-01
5.760792e-01
5.748528e-01
5.733662e-01
0.000000e+00
1.000000e+00
5.739360e-01
5.745383e-01
5.753773e-01
5.761556e-01
5.769031e-01
5.776093e-01
5.782248e-01
5.786217e-01
5.786348e-01
5.784503e-01
5.778190e-01
5.768335e-01
5.756946e-01
5.746660e-01
5.732636e-01
0.000000e+00
1.000000e+00
5.738237e-01
5.743717e-01
5.751358e-01
5.758836e-01
5.765892e-01
5.772072e-01
5.776858e-01
5.779914e-01
5.781110e-01
5.778591e-01
5.771621e-01
5.762519e-01
5.753064e-01
5.744858e-01
5.731759e-01
0.000000e+00
1.000000e+00
5.737032e-01
5.741812e-01
5.748414e-01
5.755039e-01
5.761443e-01
5.767033e-01
5.771226e-01
5.773499e-01
5.774008e-01
5.770951e-01
5.765020e-01
5.757756e-01
5.750112e-01
5.743262e-01
5.730543e-01
0.000000e+00
1.000000e+00
5.735718e-01
5.739843e-01
5.745306e-01
5.750882e-01
5.756311e-01
5.761057e-01
5.764489e-01
5.765805e-01
5.765004e-01
5.762669e-01
5.758357e-01
5.752725e-01
5.746517e-01
5.741063e-01
5.729369e-01
0.000000e+00
1.000000e+00
5.734289e-01
5.737752e-01
5.741941e-01
5.746318e-01
5.750517e-01
5.754001e-01
5.756298e-01
5.756975e-01
5.756024e-01
5.754086e-01
5.751031e-01
5.746966e-01
5.742425e-01
5.738963e-01
5.728133e-01
0.000000e+00
1.000000e+00
5.732955e-01
5.735426e-01
5.738330e-01
5.741372e-01
5.744200e-01
5.746456e-01
5.747863e-01
5.748280e-01
5.747522e-01
5.745941e-01
5.743848e-01
5.741276e-01
5.738290e-01
5.736976e-01
5.726976e-01
0.000000e+00
1.000000e+00
5.731316e-01
5.732894e-01
5.734537e-01
5.736176e-01
5.737717e-01
5.738995e-01
5.739836e-01
5.740151e-01
5.739799e-01
5.738871e-01
5.737598e-01
5.736168e-01
5.734505e-01
5.733843e-01
5.728907e-01
0.000000e+00
1.000000e+00
5.729958e-01
5.731080e-01
5.731522e-01
5.731981e-01
5.732422e-01
5.732789e-01
5.733025e-01
5.733097e-01
5.732978e-01
5.732675e-01
5.732223e-01
5.731875e-01
5.731447e-01
5.731100e-01
5.729905e-01
0.000000e+00
1.000000e+00
5.729373e-01
5.729588e-01
5.729168e-01
5.728764e-01
5.728369e-01
5.728029e-01
5.727792e-01
5.727692e-01
5.727753e-01
5.727969e-01
5.728191e-01
5.728577e-01
5.729038e-01
5.729504e-01
5.726928e-01
0.000000e+00
1.000000e+00
5.729998e-01
5.728559e-01
5.727544e-01
5.726558e-01
5.725616e-01
5.724819e-01
5.724280e-01
5.724083e-01
5.724264e-01
5.724800e-01
5.725627e-01
5.726518e-01
5.727485e-01
5.728289e-01
5.726952e-01
0.000000e+00
1.000000e+00
5.731117e-01
5.727991e-01
5.726924e-01
5.725711e-01
5.724556e-01
5.723581e-01
5.722923e-01
5.722686e-01
5.722911e-01
5.723560e-01
5.724527e-01
5.725653e-01
5.726887e-01
5.727681e-01
5.725884e-01
0.000000e+00
1.000000e+00
5.732122e-01
5.727913e-01
5.727226e-01
5.726125e-01
5.725076e-01
5.724192e-01
5.723595e-01
5.723383e-01
5.723591e-01
5.724181e-01
5.725051e-01
5.726092e-01
5.727216e-01
5.727737e-01
5.724801e-01
0.000000e+00
1.000000e+00
5.733640e-01
5.728317e-01
5.728339e-01
5.727648e-01
5.726986e-01
5.726428e-01
5.726054e-01
5.725922e-01
5.726053e-01
5.726425e-01
5.726968e-01
5.727630e-01
5.728334e-01
5.728762e-01
5.727641e-01
0.000000e+00
1.000000e+00
5.735446e-01
5.728980e-01
5.730116e-01
5.730075e-01
5.730026e-01
5.729985e-01
5.729961e-01
5.729955e-01
5.729964e-01
5.729980e-01
5.729993e-01
5.730031e-01
5.730073e-01
5.730097e-01
5.730386e-01
0.000000e+00
1.000000e+00
5.735483e-01
5.730007e-01
5.732295e-01
5.733089e-01
5.733837e-01
5.734466e-01
5.734894e-01