<?xml version="1.0"?>
<VTKFile type="StructuredGrid" version="0.1">
  <StructuredGrid WholeExtent="0 16 0 16 0 16">
    <Piece Extent="0 16 0 16 0 16">
      <PointData Scalars="temperature" Vectors="velocity">
        <DataArray type="Float32" Name="temperature" format="ascii">
1.000000e+00
5.730748e-01
5.730243e-01
5.730414e-01
5.730556e-01
5.730689e-01
5.730802e-01
5.730877e-01
5.730904e-01
5.730879e-01
5.730805e-01
5.730694e-01
5.730564e-01
5.730419e-01
5.730456e-01
5.728275e-01
0.000000e+00
1.000000e+00
5.730465e-01
5.730300e-01
5.730537e-01
5.730721e-01
5.730895e-01
5.731041e-01
5.731139e-01
5.731174e-01
5.731140e-01
5.731043e-01
5.730899e-01
5.730723e-01
5.730526e-01
5.730278e-01
5.729996e-01
0.000000e+00
1.000000e+00
5.731771e-01
5.732747e-01
5.734377e-01
5.735976e-01
5.737492e-01
5.738767e-01
5.739626e-01
5.739930e-01
5.739625e-01
5.738763e-01
5.737481e-01
5.735961e-01
5.734385e-01
5.732802e-01
5.732483e-01
0.000000e+00
1.000000e+00
5.734353e-01
5.737817e-01
5.742310e-01
5.746838e-01
5.751133e-01
5.754742e-01
5.757173e-01
5.758030e-01
5.757160e-01
5.754719e-01
5.751109e-01
5.746825e-01
5.742371e-01
5.737954e-01
5.733241e-01
0.000000e+00
1.000000e+00
5.738135e-01
5.745602e-01
5.754507e-01
5.763542e-01
5.772110e-01
5.779310e-01
5.784160e-01
5.785874e-01
5.784152e-01
5.779302e-01
5.772125e-01
5.763581e-01
5.754672e-01
5.745879e-01
5.736040e-01
0.000000e+00
1.000000e+00
5.743228e-01
5.756047e-01
5.770891e-01
5.785975e-01
5.800278e-01
5.812298e-01
5.820396e-01
5.823262e-01
5.820394e-01
5.812309e-01
5.800359e-01
5.786111e-01
5.771195e-01
5.756451e-01
5.740594e-01
0.000000e+00
1.000000e+00
5.749531e-01
5.768874e-01
5.791010e-01
5.813523e-01
5.834872e-01
5.852813e-01
5.864900e-01
5.869178e-01
5.864906e-01
5.852869e-01
5.835059e-01
5.813797e-01
5.791437e-01
5.769389e-01
5.746854e-01
0.000000e+00
1.000000e+00
5.756790e-01
5.783577e-01
5.814094e-01
5.845130e-01
5.874564e-01
5.899300e-01
5.915969e-01
5.921874e-01
5.915998e-01
5.899434e-01
5.874865e-01
5.845529e-01
5.814621e-01
5.784280e-01
5.753780e-01
0.000000e+00
1.000000e+00
5.764661e-01
5.799485e-01
5.839082e-01
5.879343e-01
5.917526e-01
5.949619e-01
5.971252e-01
5.978926e-01
5.971316e-01
5.949845e-01
5.917935e-01
5.879844e-01
5.839678e-01
5.800528e-01
5.760743e-01
0.000000e+00
1.000000e+00
5.772692e-01
5.815811e-01
5.864719e-01
5.914444e-01
5.961605e-01
6.001246e-01
6.027971e-01
6.037462e-01
6.028075e-01
6.001551e-01
5.962112e-01
5.915008e-01
5.865364e-01
5.817277e-01
5.766705e-01
0.000000e+00
1.000000e+00
5.780519e-01
5.831702e-01
5.889684e-01
5.948625e-01
6.004528e-01
6.051519e-01
6.083204e-01
6.094467e-01
6.083350e-01
6.051894e-01
6.005129e-01
5.949237e-01
5.890343e-01
5.833369e-01
5.773435e-01
0.000000e+00
1.000000e+00
5.787746e-01
5.846360e-01
5.912731e-01
5.980181e-01
6.044156e-01
6.097934e-01
6.134201e-01
6.147103e-01
6.134389e-01
6.098374e-01
6.044862e-01
5.980838e-01
5.913433e-01
5.848018e-01
5.780988e-01
0.000000e+00
1.000000e+00
5.794024e-01
5.859124e-01
5.932818e-01
6.007687e-01
6.078698e-01
6.138394e-01
6.178656e-01
6.192989e-01
6.178882e-01
6.138900e-01
6.079516e-01
6.008413e-01
5.933566e-01
5.860705e-01
5.787719e-01
0.000000e+00
1.000000e+00
5.799170e-01
5.869477e-01
5.949182e-01
6.030102e-01
6.106852e-01
6.171373e-01
6.214894e-01
6.230395e-01
6.215153e-01
6.171949e-01
6.107779e-01
6.030915e-01
5.950018e-01
5.871013e-01
5.793798e-01
0.000000e+00
1.000000e+00
5.803322e-01
5.877033e-01
5.961375e-01
6.046811e-01
6.127848e-01
6.195976e-01
6.241935e-01
6.258313e-01
6.242236e-01
6.196638e-01
6.128888e-01
6.047748e-01
5.962300e-01
5.878737e-01
5.798699e-01
0.000000e+00
1.000000e+00
5.806059e-01
5.881948e-01
5.969299e-01
6.057660e-01
6.141474e-01
6.211945e-01
6.259495e-01
6.276452e-01
6.259850e-01
6.212697e-01
6.142610e-01
6.058674e-01
5.970266e-01
5.883774e-01
5.801545e-01
0.000000e+00
1.000000e+00
5.807197e-01
5.884310e-01
5.973069e-01
6.062821e-01
6.147963e-01
6.219554e-01
6.267867e-01
6.285112e-01
6.268277e-01
6.220367e-01
6.149234e-01
6.063973e-01
5.974115e-01
5.886247e-01
5.801202e-01
0.000000e+00
1.000000e+00
5.729492e-01
5.728104e-01
5.727072e-01
5.725975e-01
5.724934e-01
5.724060e-01
5.723471e-01
5.723262e-01
5.723470e-01
5.724058e-01
5.724934e-01
5.725983e-01
5.727060e-01
5.729218e-01
5.723018e-01
0.000000e+00
1.000000e+00
5.730648e-01
5.730431e-01
5.730727e-01
5.730979e-01
5.731217e-01
5.731418e-01
5.731553e-01
5.731602e-01
5.731553e-01
5.731414e-01
5.731207e-01
5.730966e-01
5.730725e-01
5.730672e-01
5.728668e-01
0.000000e+00
1.000000e+00
5.733095e-01
5.735413e-01
5.738549e-01
5.741686e-01
5.744662e-01
5.747162e-01
5.748846e-01
5.749440e-01
5.748838e-01
5.747148e-01
5.744636e-01
5.741665e-01
5.738590e-01
5.735472e-01
5.732899e-01
0.000000e+00
1.000000e+00
5.737006e-01
5.743258e-01
5.750845e-01
5.758525e-01
5.765807e-01
5.771928e-01
5.776051e-01
5.777509e-01
5.776046e-01
5.771927e-01
5.765821e-01
5.758543e-01
5.750969e-01
5.743437e-01
5.736841e-01
0.000000e+00
1.000000e+00
5.742261e-01
5.754010e-01
5.767723e-01
5.781634e-01
5.794826e-01
5.805913e-01
5.813384e-01
5.816032e-01
5.813394e-01
5.805941e-01
5.794915e-01
5.781757e-01
5.767990e-01
5.754324e-01
5.741428e-01
0.000000e+00
1.000000e+00
5.748887e-01
5.767461e-01
5.788917e-01
5.810655e-01
5.831269e-01
5.848593e-01
5.860268e-01
5.864407e-01
5.860295e-01
5.848668e-01
5.831460e-01
5.810916e-01
5.789328e-01
5.767981e-01
5.747357e-01
0.000000e+00
1.000000e+00
5.756741e-01
5.783268e-01
5.813767e-01
5.844682e-01
5.874001e-01
5.898643e-01
5.915253e-01
5.921151e-01
5.915333e-01
5.898809e-01
5.874339e-01
5.845088e-01
5.814292e-01
5.784032e-01
5.754883e-01
0.000000e+00
1.000000e+00
5.765422e-01
5.800764e-01
5.841269e-01
5.882339e-01
5.921289e-01
5.954027e-01
5.976097e-01
5.983944e-01
5.976231e-01
5.954293e-01
5.921760e-01
5.882855e-01
5.841884e-01
5.801914e-01
5.762598e-01
0.000000e+00
1.000000e+00
5.774521e-01
5.819082e-01
5.870085e-01
5.921792e-01
5.970834e-01
6.012057e-01
6.039851e-01
6.049741e-01
6.040034e-01
6.012419e-01
5.971426e-01
5.922399e-01
5.870749e-01
5.820765e-01
5.769583e-01
0.000000e+00
1.000000e+00
5.783581e-01
5.837255e-01
5.898706e-01
5.960980e-01
6.020045e-01
6.069696e-01
6.103178e-01
6.115101e-01
6.103411e-01
6.070135e-01
6.020755e-01
5.961646e-01
5.899382e-01
5.839467e-01
5.775553e-01
0.000000e+00
1.000000e+00
5.792171e-01
5.854306e-01
5.925613e-01
5.997822e-01
6.066313e-01
6.123889e-01
6.162724e-01
6.176562e-01
6.163009e-01
6.124394e-01
6.067150e-01
5.998551e-01
5.926288e-01
5.856754e-01
5.782836e-01
0.000000e+00
1.000000e+00
5.799856e-01
5.869358e-01
5.949451e-01
6.030467e-01
6.107310e-01
6.171912e-01
6.215492e-01
6.231033e-01
6.215831e-01
6.172480e-01
6.108291e-01
6.031282e-01
5.950161e-01
5.871793e-01
5.789987e-01
0.000000e+00
1.000000e+00
5.806126e-01
5.881819e-01
5.969171e-01
6.057471e-01
6.141224e-01
6.211639e-01
6.259148e-01
6.276104e-01
6.259537e-01
6.212284e-01
6.142348e-01
6.058410e-01
5.969943e-01
5.884112e-01
5.797223e-01
0.000000e+00
1.000000e+00
5.810778e-01
5.891250e-01
5.984101e-01
6.077919e-01
6.166902e-01
6.241714e-01
6.292199e-01
6.310227e-01
6.292621e-01
6.242443e-01
6.168144e-01
6.078977e-01
5.984957e-01
5.893428e-01
5.803460e-01
0.000000e+00
1.000000e+00
5.814149e-01
5.897248e-01
5.993923e-01
6.091389e-01
6.183834e-01
6.261560e-01
6.314017e-01
6.332754e-01
6.314467e-01
6.262381e-01
6.185176e-01
6.092574e-01
5.994883e-01
5.899603e-01
5.807698e-01
0.000000e+00
1.000000e+00
5.815881e-01
5.900351e-01
5.998752e-01
6.098005e-01
6.192152e-01
6.271318e-01
6.324753e-01
6.343847e-01
6.325246e-01
6.272230e-01
6.193574e-01
6.099285e-01
5.999818e-01
5.902645e-01
5.809791e-01
0.000000e+00
1.000000e+00
5.815524e-01
5.900767e-01
5.998943e-01
6.098247e-01
6.192455e-01
6.271681e-01
6.325165e-01
6.344295e-01
6.325706e-01
6.272601e-01
6.193932e-01
6.099602e-01
6.000005e-01
5.902671e-01
5.810410e-01
0.000000e+00
1.000000e+00
5.727319e-01
5.723537e-01
5.719902e-01
5.716156e-01
5.712604e-01
5.709619e-01
5.707608e-01
5.706895e-01
5.707604e-01
5.709614e-01
5.712610e-01
5.716189e-01
5.719889e-01
5.724731e-01
5.723933e-01
0.000000e+00
1.000000e+00
5.729590e-01
5.728193e-01
5.727196e-01
5.726143e-01
5.725144e-01
5.724305e-01
5.723739e-01
5.723536e-01
5.723729e-01
5.724285e-01
5.725125e-01
5.726146e-01
5.727237e-01
5.728588e-01
5.727524e-01
0.000000e+00
1.000000e+00
5.733405e-01
5.735824e-01
5.739131e-01
5.742487e-01
5.745670e-01
5.748344e-01
5.750145e-01
5.750778e-01
5.750131e-01
5.748321e-01
5.745649e-01
5.742496e-01
5.739231e-01
5.735941e-01
5.730989e-01
0.000000e+00
1.000000e+00
5.738639e-01
5.746593e-01
5.756011e-01
5.765601e-01
5.774695e-01
5.782337e-01
5.787485e-01
5.789307e-01
5.787484e-01
5.782343e-01
5.774746e-01
5.765674e-01
5.756220e-01
5.746810e-01
5.737126e-01
0.000000e+00
1.000000e+00
5.745425e-01
5.760477e-01
5.777809e-01
5.795445e-01
5.812169e-01
5.826221e-01
5.835689e-01
5.839042e-01
5.835703e-01
5.826278e-01
5.812337e-01
5.795656e-01
5.778184e-01
5.760854e-01
5.743646e-01
0.000000e+00
1.000000e+00
5.753698e-01
5.777135e-01
5.804057e-01
5.831383e-01
5.857297e-01
5.879076e-01
5.893753e-01
5.898965e-01
5.893825e-01
5.879235e-01
5.857618e-01
5.831734e-01
5.804521e-01
5.777796e-01
5.751098e-01
0.000000e+00
1.000000e+00
5.763111e-01
5.796057e-01
5.833871e-01
5.872209e-01
5.908569e-01
5.939130e-01
5.959733e-01
5.967066e-01
5.959884e-01
5.939389e-01
5.909051e-01
5.872693e-01
5.834421e-01
5.797147e-01
5.759506e-01
0.000000e+00
1.000000e+00
5.773229e-01
5.816436e-01
5.865960e-01
5.916145e-01
5.963743e-01
6.003754e-01
6.030736e-01
6.040353e-01
6.030957e-01
6.004103e-01
5.964374e-01
5.916742e-01
5.866575e-01
5.818142e-01
5.767394e-01
0.000000e+00
1.000000e+00
5.783586e-01
5.837173e-01
5.898673e-01
5.960938e-01
6.019998e-01
6.069650e-01
6.103141e-01
6.115089e-01
6.103433e-01
6.070085e-01
6.020778e-01
5.961630e-01
5.899309e-01
5.839572e-01
5.775093e-01
0.000000e+00
1.000000e+00
5.793663e-01
5.857104e-01
5.930240e-01
6.004167e-01
6.074288e-01
6.133239e-01
6.173010e-01
6.187211e-01
6.173373e-01
6.133757e-01
6.075211e-01
6.004931e-01
5.930850e-01
5.859991e-01
5.782927e-01
0.000000e+00
1.000000e+00
5.802995e-01
5.875090e-01
5.958941e-01
6.043470e-01
6.123646e-01
6.191058e-01
6.236547e-01
6.252804e-01
6.236978e-01
6.191666e-01
6.124732e-01
6.044352e-01
5.959548e-01
5.878141e-01
5.790875e-01
0.000000e+00
1.000000e+00
5.811097e-01
5.890131e-01
5.983322e-01
6.076863e-01
6.165588e-01
6.240190e-01
6.290543e-01
6.308552e-01
6.291040e-01
6.240888e-01
6.166835e-01
6.077932e-01
5.983978e-01
5.893309e-01
5.799841e-01
0.000000e+00
1.000000e+00
5.817048e-01
5.901990e-01
6.002361e-01
6.102931e-01
6.198323e-01
6.278537e-01
6.332690e-01
6.352070e-01
6.333251e-01
6.279330e-01
6.199718e-01
6.104212e-01
6.003091e-01
5.905119e-01
5.807503e-01
0.000000e+00
1.000000e+00
5.821330e-01
5.910258e-01
6.015492e-01
6.120912e-01
6.220902e-01
6.304986e-01
6.361755e-01
6.382078e-01
6.362348e-01
6.305876e-01
6.222416e-01
6.122351e-01
6.016319e-01
5.913315e-01
5.813164e-01
0.000000e+00
1.000000e+00
5.823909e-01
5.914702e-01
6.022584e-01
6.130644e-01
6.233143e-01
6.319339e-01
6.377537e-01
6.398374e-01
6.378148e-01
6.320336e-01
6.234763e-01
6.132193e-01
6.023548e-01
5.917784e-01
5.816481e-01
0.000000e+00
1.000000e+00
5.824176e-01
5.916171e-01
6.023991e-01
6.132574e-01
6.235580e-01
6.322209e-01
6.380707e-01
6.401658e-01
6.381360e-01
6.323305e-01
6.237273e-01
6.134164e-01
6.025077e-01
5.918707e-01
5.817491e-01
0.000000e+00
1.000000e+00
5.822046e-01
5.914538e-01
6.020363e-01
6.127559e-01
6.229263e-01
6.314807e-01
6.372580e-01
6.393288e-01
6.373266e-01
6.315869e-01
6.230947e-01
6.129115e-01
6.021387e-01
5.916304e-01
5.816782e-01
0.000000e+00
1.000000e+00
5.723868e-01
5.716347e-01
5.708626e-01
5.700718e-01
5.693220e-01
5.686919e-01
5.682675e-01
5.681172e-01
5.682677e-01
5.686933e-01
5.693270e-01
5.700816e-01
5.708674e-01
5.716947e-01
5.722352e-01
0.000000e+00
1.000000e+00
5.727284e-01
5.723313e-01
5.719529e-01
5.715648e-01
5.711968e-01
5.708876e-01
5.706791e-01
5.706050e-01
5.706781e-01
5.708862e-01
5.711982e-01
5.715720e-01
5.719638e-01
5.723765e-01
5.725003e-01
0.000000e+00
1.000000e+00
5.732238e-01
5.733591e-01
5.735617e-01
5.737677e-01
5.739631e-01
5.741272e-01
5.742375e-01
5.742761e-01
5.742358e-01
5.741237e-01
5.739608e-01
5.737732e-01
5.735791e-01
5.733948e-01
5.729546e-01
0.000000e+00
1.000000e+00
5.738869e-01
5.747310e-01
5.757130e-01
5.767133e-01
5.776618e-01
5.784588e-01
5.789957e-01
5.791853e-01
5.789940e-01
5.784561e-01
5.776646e-01
5.767236e-01
5.757429e-01
5.747596e-01
5.736803e-01
0.000000e+00
1.000000e+00
5.747270e-01
5.764385e-01
5.783893e-01
5.803778e-01
5.822633e-01
5.838477e-01
5.849149e-01
5.852921e-01
5.849145e-01
5.838523e-01
5.822857e-01
5.804051e-01
5.784356e-01
5.764828e-01
5.744920e-01
0.000000e+00
1.000000e+00
5.757202e-01
5.784342e-01
5.815264e-01
5.846727e-01
5.876563e-01
5.901635e-01
5.918530e-01
5.924524e-01
5.918615e-01
5.901852e-01
5.877003e-01
5.847152e-01
5.815777e-01
5.785100e-01
5.753358e-01
0.000000e+00
1.000000e+00
5.768254e-01
5.806440e-01
5.850089e-01
5.894409e-01
5.936440e-01
5.971770e-01
5.995592e-01
6.004076e-01
5.995797e-01
5.972138e-01
5.937059e-01
5.894981e-01
5.850683e-01
5.807752e-01
5.762354e-01
0.000000e+00
1.000000e+00
5.779877e-01
5.829674e-01
5.886752e-01
5.944609e-01
5.999487e-01
6.045623e-01
6.076746e-01
6.087858e-01
6.077054e-01
6.046085e-01
6.000275e-01
5.945306e-01
5.887384e-01
5.831730e-01
5.771483e-01
0.000000e+00
1.000000e+00
5.791508e-01
5.852781e-01
5.923299e-01
5.994656e-01
6.062345e-01
6.119258e-01
6.157660e-01
6.171386e-01
6.158053e-01
6.119783e-01
6.063299e-01
5.995438e-01
5.923904e-01
5.855551e-01
5.779947e-01
0.000000e+00
1.000000e+00
5.802567e-01
5.874394e-01
5.957669e-01
6.041729e-01
6.121466e-01
6.188510e-01
6.233761e-01
6.249950e-01
6.234229e-01
6.189117e-01
6.122589e-01
6.042628e-01
5.958235e-01
5.877450e-01
5.788978e-01
0.000000e+00
1.000000e+00
5.812567e-01
5.893179e-01
5.987944e-01
6.083194e-01
6.173545e-01
6.249525e-01
6.300816e-01
6.319178e-01
6.301356e-01
6.250253e-01
6.174826e-01
6.084334e-01
5.988531e-01
5.896324e-01
5.799539e-01
0.000000e+00
1.000000e+00
5.820894e-01
5.908073e-01
6.012601e-01
6.116970e-01
6.215970e-01
6.299219e-01
6.355430e-01
6.375570e-01
6.356056e-01
6.300077e-01
6.217353e-01
6.118458e-01
6.013266e-01
5.911679e-01
5.808925e-01
0.000000e+00
1.000000e+00
5.826499e-01
5.919255e-01
6.030667e-01
6.141701e-01
6.247012e-01
6.335576e-01
6.395395e-01
6.416842e-01
6.396107e-01
6.336549e-01
6.248510e-01
6.143502e-01
6.031437e-01
5.922940e-01
5.816318e-01
0.000000e+00
1.000000e+00
5.829979e-01
5.926255e-01
6.041699e-01
6.156809e-01
6.265981e-01
6.357803e-01
6.419822e-01
6.442062e-01
6.420566e-01
6.358878e-01
6.267624e-01
6.158775e-01
6.042598e-01
5.929882e-01
5.821420e-01
0.000000e+00
1.000000e+00
5.831445e-01
5.929148e-01
6.045802e-01
6.162449e-01
6.273090e-01
6.366150e-01
6.429008e-01
6.451552e-01
6.429768e-01
6.367339e-01
6.274888e-01
6.164444e-01
6.046848e-01
5.932516e-01
5.823720e-01
0.000000e+00
1.000000e+00
5.830292e-01
5.928683e-01
6.043614e-01
6.159444e-01
6.269325e-01
6.361753e-01
6.424195e-01
6.446602e-01
6.424999e-01
6.363047e-01
6.271232e-01
6.161361e-01
6.044749e-01
5.931200e-01
5.823351e-01
0.000000e+00
1.000000e+00
5.826969e-01
5.924578e-01
6.036070e-01
6.149047e-01
6.256223e-01
6.346383e-01
6.407299e-01
6.429170e-01
6.408099e-01
6.347629e-01
6.258072e-01
6.150781e-01
6.037079e-01
5.926259e-01
5.821437e-01
0.000000e+00
1.000000e+00
5.719090e-01
5.706510e-01
5.693213e-01
5.679614e-01
5.666721e-01
5.655887e-01
5.648590e-01
5.646011e-01
5.648610e-01
5.655940e-01
5.666840e-01
5.679795e-01
5.693348e-01
5.706992e-01
5.717628e-01
0.000000e+00
1.000000e+00
5.723540e-01
5.715685e-01
5.707575e-01
5.699280e-01
5.691416e-01
5.684808e-01
5.680356e-01
5.678779e-01
5.680359e-01
5.684823e-01
5.691501e-01
5.699447e-01
5.707770e-01
5.716126e-01
5.721499e-01
0.000000e+00
1.000000e+00
5.729682e-01
5.728520e-01
5.727666e-01
5.726789e-01
5.725958e-01
5.725258e-01
5.724785e-01
5.724612e-01
5.724767e-01
5.725224e-01
5.725962e-01
5.726935e-01
5.727927e-01
5.728939e-01
5.727376e-01
0.000000e+00
1.000000e+00
5.737723e-01
5.745096e-01
5.753651e-01
5.762368e-01
5.770635e-01
5.777581e-01
5.782258e-01
5.783906e-01
5.782228e-01
5.777519e-01
5.770617e-01
5.762503e-01
5.754041e-01
5.745503e-01
5.735944e-01
0.000000e+00
1.000000e+00
5.747624e-01
5.765251e-01
5.785234e-01
5.805616e-01
5.824942e-01
5.841182e-01
5.852121e-01
5.855984e-01
5.852097e-01
5.841175e-01
5.825163e-01
5.805956e-01
5.785818e-01
5.765830e-01
5.745452e-01
0.000000e+00
1.000000e+00
5.759094e-01
5.788403e-01
5.821567e-01
5.855358e-01
5.887401e-01
5.914327e-01
5.932468e-01
5.938894e-01
5.932522e-01
5.914526e-01
5.887935e-01
5.855886e-01
5.822177e-01
5.789245e-01
5.755065e-01
0.000000e+00
1.000000e+00
5.771676e-01
5.813609e-01
5.861219e-01
5.909645e-01
5.955567e-01
5.994165e-01
6.020187e-01
6.029446e-01
6.020403e-01
5.994590e-01
5.956294e-01
5.910321e-01
5.861864e-01
5.814933e-01
5.765487e-01
0.000000e+00
1.000000e+00
5.784719e-01
5.839635e-01
5.902251e-01
5.965821e-01
6.026115e-01
6.076805e-01
6.111001e-01
6.123216e-01
6.111379e-01
6.077379e-01
6.027030e-01
5.966620e-01
5.902880e-01
5.841635e-01
5.775578e-01
0.000000e+00
1.000000e+00
5.797561e-01
5.865003e-01
5.942376e-01
6.020763e-01
6.095121e-01
6.157649e-01
6.199855e-01
6.214969e-01
6.200357e-01
6.158319e-01
6.096256e-01
6.021696e-01
5.942976e-01
5.867461e-01
5.785269e-01
0.000000e+00
1.000000e+00
5.809535e-01
5.888166e-01
5.979250e-01
6.071269e-01
6.158569e-01
6.231992e-01
6.281571e-01
6.299345e-01
6.282157e-01
6.232747e-01
6.159913e-01
6.072449e-01
5.979863e-01
5.890672e-01
5.797091e-01
0.000000e+00
1.000000e+00
5.819999e-01
5.907705e-01
6.010786e-01
6.114487e-01
6.212869e-01
6.295616e-01
6.351497e-01
6.371537e-01
6.352158e-01
6.296495e-01
6.214325e-01
6.116042e-01
6.011500e-01
5.910394e-01
5.808716e-01
0.000000e+00
1.000000e+00
5.827991e-01
5.922761e-01
6.035433e-01
6.148260e-01
6.255287e-01
6.345297e-01
6.406096e-01
6.427911e-01
6.406845e-01
6.346353e-01
6.256762e-01
6.150221e-01
6.036331e-01
5.925887e-01
5.817566e-01
0.000000e+00
1.000000e+00
5.833369e-01
5.933088e-01
6.052265e-01
6.171308e-01
6.284216e-01
6.379172e-01
6.443329e-01
6.466354e-01
6.444156e-01
6.380373e-01
6.285736e-01
6.173559e-01
6.053410e-01
5.936475e-01
5.824371e-01
0.000000e+00
1.000000e+00
5.836383e-01
5.938417e-01
6.061001e-01
6.183284e-01
6.299257e-01
6.396802e-01
6.462703e-01
6.486355e-01
6.463568e-01
6.398099e-01
6.300934e-01
6.185654e-01
6.062313e-01
5.942064e-01
5.828306e-01
0.000000e+00
1.000000e+00
5.836533e-01
5.939679e-01
6.062036e-01
6.184703e-01
6.301059e-01
6.398937e-01
6.465062e-01
6.488807e-01
6.465950e-01
6.400344e-01
6.302961e-01
6.187037e-01
6.063347e-01
5.942793e-01
5.828821e-01
0.000000e+00
1.000000e+00
5.834153e-01
5.936871e-01
6.056271e-01
6.176776e-01
6.291102e-01
6.387279e-01
6.452265e-01
6.475615e-01
6.453169e-01
6.388776e-01
6.293150e-01
6.178952e-01
6.057525e-01
5.939220e-01
5.827068e-01
0.000000e+00
1.000000e+00
5.829754e-01
5.930173e-01
6.044869e-01
6.161120e-01
6.271396e-01
6.364152e-01
6.426820e-01
6.449336e-01
6.427656e-01
6.365554e-01
6.273307e-01
6.163014e-01
6.045929e-01
5.931831e-01
5.824101e-01
0.000000e+00
1.000000e+00
5.713062e-01
5.694187e-01
5.673910e-01
5.653185e-01
5.633534e-01
5.617026e-01
5.605911e-01
5.601990e-01
5.605960e-01
5.617135e-01
5.633735e-01
5.653465e-01
5.674132e-01
5.694640e-01
5.711806e-01
0.000000e+00
1.000000e+00
5.718510e-01
5.705389e-01
5.691447e-01
5.677199e-01
5.663690e-01
5.652341e-01
5.644698e-01
5.641997e-01
5.644724e-01
5.652407e-01
5.663866e-01
5.677473e-01
5.691761e-01
5.705892e-01
5.716715e-01
0.000000e+00
1.000000e+00
5.725748e-01
5.720578e-01
5.715219e-01
5.709747e-01
5.704558e-01
5.700199e-01
5.697262e-01
5.696220e-01
5.697256e-01
5.700195e-01
5.704656e-01
5.710044e-01
5.715581e-01
5.721023e-01
5.723636e-01
0.000000e+00
1.000000e+00
5.735087e-01
5.739796e-01
5.745327e-01
5.750971e-01
5.756324e-01
5.760820e-01
5.763847e-01
5.764909e-01
5.763813e-01
5.760748e-01
5.756280e-01
5.751182e-01
5.745805e-01
5.740297e-01
5.733267e-01
0.000000e+00
1.000000e+00
5.746356e-01
5.762778e-01
5.781350e-01
5.800297e-01
5.818265e-01
5.833363e-01
5.843534e-01
5.847126e-01
5.843501e-01
5.833302e-01
5.818410e-01
5.800679e-01
5.782064e-01
5.763484e-01
5.744218e-01
0.000000e+00
1.000000e+00
5.759215e-01
5.788852e-01
5.822234e-01
5.856276e-01
5.888556e-01
5.915683e-01
5.933960e-01
5.940427e-01
5.933964e-01
5.915783e-01
5.889123e-01
5.856909e-01
5.822970e-01
5.789811e-01
5.755105e-01
0.000000e+00
1.000000e+00
5.773134e-01
5.816883e-01
5.866269e-01
5.916559e-01
5.964247e-01
6.004327e-01
6.031342e-01
6.040939e-01
6.031514e-01
6.004736e-01
5.965066e-01
5.917360e-01
5.867008e-01
5.818130e-01
5.766590e-01
0.000000e+00
1.000000e+00
5.787393e-01
5.845439e-01
5.911214e-01
5.978089e-01
6.041511e-01
6.094825e-01
6.130787e-01
6.143621e-01
6.131174e-01
6.095474e-01
6.042530e-01
5.979028e-01
5.911889e-01
5.847090e-01
5.778048e-01
0.000000e+00
1.000000e+00
5.801217e-01
5.872845e-01
5.954469e-01
6.037307e-01
6.115882e-01
6.181955e-01
6.226557e-01
6.242542e-01
6.227138e-01
6.182753e-01
6.117151e-01
6.038456e-01
5.955087e-01
5.874639e-01
5.789984e-01
0.000000e+00
1.000000e+00
5.813807e-01
5.897418e-01
5.993435e-01
6.090668e-01
6.182916e-01
6.260509e-01
6.312923e-01
6.331752e-01
6.313644e-01
6.261424e-01
6.184389e-01
6.092216e-01
5.994111e-01
5.899193e-01
5.803321e-01
0.000000e+00
1.000000e+00
5.824392e-01
5.917721e-01
6.025874e-01
6.135116e-01
6.238770e-01
6.325969e-01
6.384891e-01
6.406072e-01
6.385705e-01
6.327028e-01
6.240320e-01
6.137171e-01
6.026785e-01
5.919679e-01
5.815259e-01
0.000000e+00
1.000000e+00
5.832295e-01
5.932812e-01
6.050202e-01
6.168470e-01
6.280670e-01
6.375062e-01
6.438852e-01
6.461776e-01
6.439736e-01
6.376316e-01
6.282249e-01
6.170825e-01
6.051494e-01
5.935146e-01
5.823964e-01
0.000000e+00
1.000000e+00
5.837439e-01
5.942208e-01
6.065595e-01
6.189569e-01
6.307178e-01
6.406113e-01
6.472971e-01
6.496989e-01
6.473898e-01
6.407552e-01
6.308845e-01
6.191865e-01
6.067371e-01
5.944967e-01
5.829834e-01
0.000000e+00
1.000000e+00
5.839800e-01
5.946017e-01
6.071967e-01
6.198318e-01
6.318201e-01
6.419040e-01
6.487179e-01
6.511657e-01
6.488137e-01
6.420611e-01
6.320044e-01
6.200565e-01
6.073942e-01
5.949099e-01
5.832114e-01
0.000000e+00
1.000000e+00
5.838833e-01
5.945299e-01
6.070041e-01
6.195652e-01
6.314849e-01
6.415126e-01
6.482885e-01
6.507240e-01
6.483871e-01
6.416775e-01
6.316879e-01
6.198012e-01
6.071761e-01
5.947868e-01
5.831259e-01
0.000000e+00
1.000000e+00
5.835364e-01
5.940088e-01
6.060915e-01
6.183104e-01
6.299059e-01
6.396621e-01
6.462551e-01
6.486254e-01
6.463519e-01
6.398287e-01
6.301161e-01
6.185411e-01
6.062333e-01
5.942113e-01
5.828450e-01
0.000000e+00
1.000000e+00
5.829993e-01
5.930955e-01
6.045957e-01
6.162590e-01
6.273249e-01
6.366342e-01
6.429239e-01
6.451832e-01
6.430096e-01
6.367845e-01
6.275154e-01
6.164579e-01
6.047005e-01
5.932453e-01
5.824362e-01
0.000000e+00
1.000000e+00
5.706077e-01
5.679745e-01
5.651298e-01
5.622224e-01
5.594659e-01
5.571505e-01
5.555920e-01
5.550428e-01
5.556008e-01
5.571685e-01
5.594952e-01
5.622613e-01
5.651611e-01
5.680222e-01
5.704917e-01
0.000000e+00
1.000000e+00
5.712354e-01
5.692726e-01
5.671619e-01
5.650050e-01
5.629602e-01
5.612426e-01
5.600862e-01
5.596784e-01
5.600921e-01
5.612557e-01
5.629877e-01
5.650440e-01
5.672065e-01
5.693293e-01
5.710778e-01
0.000000e+00
1.000000e+00
5.720553e-01
5.709972e-01
5.698606e-01
5.687001e-01
5.675998e-01
5.666758e-01
5.660536e-01
5.658338e-01
5.660557e-01
5.666815e-01
5.676229e-01
5.687431e-01
5.699088e-01
5.710479e-01
5.718689e-01
0.000000e+00
1.000000e+00
5.730993e-01
5.731493e-01
5.732301e-01
5.733136e-01
5.733929e-01
5.734596e-01
5.735044e-01
5.735196e-01
5.735021e-01
5.734544e-01
5.733922e-01
5.733533e-01
5.732875e-01
5.732035e-01
5.729292e-01
0.000000e+00
1.000000e+00
5.743457e-01
5.756915e-01
5.772152e-01
5.787704e-01
5.802451e-01
5.814845e-01
5.823193e-01
5.826140e-01
5.823165e-01
5.814773e-01
5.802477e-01
5.788068e-01
5.772965e-01
5.757686e-01
5.741345e-01
0.000000e+00
1.000000e+00
5.757499e-01
5.785474e-01
5.816925e-01
5.849009e-01
5.879435e-01
5.905005e-01
5.922235e-01
5.928331e-01
5.922219e-01
5.904997e-01
5.879920e-01
5.849717e-01
5.817793e-01
5.786428e-01
5.753933e-01
0.000000e+00
1.000000e+00
5.772523e-01
5.815877e-01
5.864642e-01
5.914335e-01
5.961459e-01
6.001063e-01
6.027756e-01
6.037225e-01
6.027857e-01
6.001377e-01
5.962332e-01
5.915260e-01
5.865501e-01
5.816893e-01
5.766999e-01
0.000000e+00
1.000000e+00
5.787745e-01
5.846511e-01
5.912796e-01
5.980257e-01
6.044232e-01
6.098005e-01
6.134267e-01
6.147184e-01
6.134598e-01
6.098665e-01
6.045318e-01
5.981360e-01
5.913579e-01
5.847555e-01
5.780605e-01
0.000000e+00
1.000000e+00
5.802280e-01
5.875542e-01
5.958528e-01
6.042862e-01
6.122846e-01
6.190095e-01
6.235482e-01
6.251736e-01
6.236081e-01
6.190999e-01
6.124169e-01
6.044243e-01
5.959248e-01
5.876687e-01
5.794151e-01
0.000000e+00
1.000000e+00
5.815237e-01
5.901177e-01
5.999028e-01
6.098312e-01
6.192492e-01
6.271705e-01
6.325216e-01
6.344456e-01
6.326030e-01
6.272781e-01
6.194000e-01
6.100190e-01
5.999834e-01
5.902374e-01
5.807674e-01
0.000000e+00
1.000000e+00
5.825860e-01
5.921915e-01
6.031947e-01
6.143402e-01
6.249145e-01
6.338110e-01
6.398243e-01
6.419893e-01
6.399180e-01
6.339352e-01
6.250693e-01
6.145811e-01
6.033111e-01
5.923358e-01
5.819029e-01
0.000000e+00
1.000000e+00
5.833616e-01
5.936739e-01
6.055682e-01
6.175945e-01
6.290051e-01
6.386061e-01
6.450963e-01
6.474319e-01
6.451958e-01
6.387476e-01
6.291636e-01
6.178450e-01
6.057441e-01
5.938605e-01
5.826642e-01
0.000000e+00
1.000000e+00
5.838447e-01
5.945170e-01
6.069534e-01
6.194951e-01
6.313954e-01
6.414082e-01
6.481765e-01
6.506111e-01
6.482793e-01
6.415717e-01
6.315777e-01
6.197110e-01
6.071668e-01
5.947588e-01
5.831230e-01
0.000000e+00
1.000000e+00
5.839891e-01
5.947744e-01
6.073689e-01
6.200630e-01
6.321105e-01
6.422475e-01
6.491005e-01
6.515663e-01
6.492073e-01
6.424302e-01
6.323207e-01
6.202649e-01
6.075854e-01
5.950283e-01
5.832433e-01
0.000000e+00
1.000000e+00
5.838102e-01
5.945124e-01
6.069045e-01
6.194237e-01
6.313053e-01
6.413036e-01
6.480630e-01
6.504957e-01
6.481713e-01
6.414888e-01
6.315174e-01
6.196360e-01
6.071101e-01
5.947201e-01
5.830863e-01
0.000000e+00
1.000000e+00
5.833801e-01
5.937792e-01
6.056930e-01
6.177613e-01
6.292131e-01
6.388492e-01
6.453633e-01
6.477065e-01
6.454658e-01
6.390253e-01
6.294150e-01
6.179914e-01
6.058549e-01
5.939453e-01
5.827142e-01
0.000000e+00
1.000000e+00
5.827636e-01
5.926569e-01
6.038898e-01
6.152917e-01
6.261084e-01
6.352075e-01
6.413558e-01
6.435632e-01
6.414426e-01
6.353597e-01
6.262914e-01
6.154935e-01
6.039912e-01
5.927855e-01
5.822138e-01
0.000000e+00
1.000000e+00
5.698383e-01
5.663765e-01
5.626281e-01
5.587970e-01
5.551649e-01
5.521143e-01
5.500615e-01
5.493389e-01
5.500749e-01
5.521408e-01
5.552035e-01
5.588476e-01
5.626679e-01
5.664272e-01
5.697323e-01
0.000000e+00
1.000000e+00
5.705345e-01
5.678229e-01
5.648924e-01
5.618978e-01
5.590587e-01
5.566743e-01
5.550694e-01
5.545042e-01
5.550793e-01
5.566948e-01
5.590959e-01
5.619484e-01
5.649482e-01
5.678827e-01
5.703965e-01
0.000000e+00
1.000000e+00
5.714337e-01
5.697167e-01
5.678557e-01
5.659551e-01
5.641534e-01
5.626403e-01
5.616220e-01
5.612632e-01
5.616280e-01
5.626540e-01
5.641892e-01
5.660107e-01
5.679184e-01
5.697793e-01
5.712687e-01
0.000000e+00
1.000000e+00
5.725642e-01
5.720552e-01
5.715155e-01
5.709660e-01
5.704452e-01
5.700080e-01
5.697138e-01
5.696098e-01
5.697143e-01
5.700084e-01
5.704600e-01
5.710307e-01
5.715818e-01
5.721137e-01
5.724102e-01
0.000000e+00
1.000000e+00
5.739041e-01
5.747919e-01
5.758041e-01
5.768383e-01
5.778192e-01
5.786436e-01
5.791991e-01
5.793951e-01
5.791968e-01
5.786384e-01
5.778157e-01
5.768790e-01
5.758888e-01
5.748704e-01
5.736858e-01
0.000000e+00
1.000000e+00
5.753999e-01
5.778388e-01
5.805816e-01
5.833801e-01
5.860341e-01
5.882647e-01
5.897678e-01
5.902999e-01
5.897667e-01
5.882599e-01
5.860649e-01
5.834524e-01
5.806822e-01
5.779272e-01
5.751168e-01
0.000000e+00
1.000000e+00
5.769854e-01
5.810575e-01
5.856306e-01
5.902928e-01
5.947142e-01
5.984301e-01
6.009347e-01
6.018225e-01
6.009389e-01
5.984472e-01
5.947977e-01
5.903945e-01
5.857293e-01
5.811383e-01
5.766849e-01
0.000000e+00
1.000000e+00
5.785740e-01
5.842693e-01
5.906751e-01
5.971988e-01
6.033853e-01
6.085851e-01
6.120907e-01
6.133372e-01
6.121148e-01
6.086455e-01
6.034948e-01
5.973228e-01
5.907685e-01
5.843466e-01
5.782021e-01
0.000000e+00
1.000000e+00
5.800705e-01
5.872807e-01
5.954125e-01
6.036843e-01
6.115289e-01
6.181235e-01
6.225727e-01
6.241628e-01
6.226264e-01
6.182197e-01
6.116577e-01
6.038391e-01
5.954999e-01
5.873712e-01
5.795914e-01
0.000000e+00
1.000000e+00
5.813864e-01
5.899032e-01
5.995476e-01
6.093457e-01
6.186385e-01
6.264531e-01
6.317303e-01
6.336256e-01
6.318112e-01
6.265705e-01
6.187859e-01
6.095481e-01
5.996445e-01
5.900077e-01
5.809190e-01
0.000000e+00
1.000000e+00
5.824476e-01
5.919799e-01
6.028384e-01
6.138529e-01
6.243012e-01
6.330905e-01
6.390302e-01
6.411683e-01
6.391271e-01
6.332251e-01
6.244547e-01
6.140996e-01
6.029745e-01
5.921123e-01
5.819551e-01
0.000000e+00
1.000000e+00
5.832032e-01
5.934145e-01
6.051299e-01
6.169917e-01
6.282469e-01
6.377176e-01
6.441201e-01
6.464256e-01
6.442244e-01
6.378710e-01
6.284092e-01
6.172328e-01
6.053259e-01
5.935886e-01
5.825638e-01
0.000000e+00
1.000000e+00
5.836269e-01
5.941774e-01
6.063644e-01
6.186828e-01
6.303731e-01
6.402114e-01
6.468642e-01
6.492609e-01
6.469757e-01
6.403899e-01
6.305582e-01
6.188932e-01
6.065642e-01
5.944019e-01
5.829277e-01
0.000000e+00
1.000000e+00
5.836951e-01
5.943152e-01
6.065795e-01
6.189762e-01
6.307412e-01
6.406426e-01
6.473388e-01
6.497523e-01
6.474561e-01
6.408374e-01
6.309457e-01
6.191798e-01
6.067734e-01
5.945389e-01
5.829980e-01
0.000000e+00
1.000000e+00
5.834478e-01
5.938937e-01
6.058823e-01
6.180196e-01
6.295369e-01
6.392292e-01
6.457833e-01
6.481449e-01
6.458981e-01
6.394207e-01
6.297354e-01
6.182167e-01
6.060928e-01
5.940679e-01
5.827725e-01
0.000000e+00
1.000000e+00
5.829517e-01
5.929901e-01
6.044244e-01
6.160227e-01
6.270261e-01
6.362835e-01
6.425409e-01