<?xml version="1.0"?>
<VTKFile type="StructuredGrid" version="0.1">
  <StructuredGrid WholeExtent="0 16 0 16 0 16">
    <Piece Extent="0 16 0 16 0 16">
      <PointData Scalars="temperature" Vectors="velocity">
        <DataArray type="Float32" Name="temperature" format="ascii">
1.000000e+00
5.816798e-01
5.881677e-01
5.972624e-01
6.062175e-01
6.147182e-01
6.218775e-01
6.267322e-01
6.285089e-01
6.268840e-01
6.221736e-01
6.151215e-01
6.065927e-01
5.975459e-01
5.887039e-01
5.796012e-01
0.000000e+00
1.000000e+00
5.807221e-01
5.863914e-01
5.943971e-01
6.022923e-01
6.097861e-01
6.160952e-01
6.203701e-01
6.219315e-01
6.204997e-01
6.163523e-01
6.101565e-01
6.026468e-01
5.946821e-01
5.868705e-01
5.789217e-01
0.000000e+00
1.000000e+00
5.795656e-01
5.844079e-01
5.911767e-01
5.978797e-01
6.042411e-01
6.095946e-01
6.132171e-01
6.145342e-01
6.133215e-01
6.097958e-01
6.045326e-01
5.981529e-01
5.914106e-01
5.847800e-01
5.780161e-01
0.000000e+00
1.000000e+00
5.782923e-01
5.822431e-01
5.876815e-01
5.930923e-01
5.982266e-01
6.025453e-01
6.054631e-01
6.065171e-01
6.055399e-01
6.026937e-01
5.984513e-01
5.933135e-01
5.878944e-01
5.825382e-01
5.770152e-01
0.000000e+00
1.000000e+00
5.769996e-01
5.799606e-01
5.840300e-01
5.880932e-01
5.919477e-01
5.951885e-01
5.973745e-01
5.981567e-01
5.974166e-01
5.952855e-01
5.921086e-01
5.882678e-01
5.842271e-01
5.801986e-01
5.759230e-01
0.000000e+00
1.000000e+00
5.757426e-01
5.776611e-01
5.803735e-01
5.830884e-01
5.856633e-01
5.878275e-01
5.892853e-01
5.898014e-01
5.892933e-01
5.878678e-01
5.857567e-01
5.832115e-01
5.805535e-01
5.778585e-01
5.748324e-01
0.000000e+00
1.000000e+00
5.745773e-01
5.754560e-01
5.768840e-01
5.783119e-01
5.796664e-01
5.808047e-01
5.815711e-01
5.818404e-01
5.815653e-01
5.808038e-01
5.796939e-01
5.783765e-01
5.770357e-01
5.756262e-01
5.737585e-01
0.000000e+00
1.000000e+00
5.735597e-01
5.734649e-01
5.737453e-01
5.740144e-01
5.742702e-01
5.744855e-01
5.746302e-01
5.746792e-01
5.746220e-01
5.744701e-01
5.742699e-01
5.740435e-01
5.738481e-01
5.736109e-01
5.727942e-01
0.000000e+00
1.000000e+00
5.726752e-01
5.717931e-01
5.711234e-01
5.704223e-01
5.697580e-01
5.692005e-01
5.688252e-01
5.686916e-01
5.688223e-01
5.691956e-01
5.697749e-01
5.704484e-01
5.712016e-01
5.719354e-01
5.719419e-01
0.000000e+00
1.000000e+00
5.720335e-01
5.705295e-01
5.691399e-01
5.677072e-01
5.663496e-01
5.652103e-01
5.644442e-01
5.641752e-01
5.644511e-01
5.652269e-01
5.663838e-01
5.677459e-01
5.692113e-01
5.706482e-01
5.713866e-01
0.000000e+00
1.000000e+00
5.716328e-01
5.697289e-01
5.678858e-01
5.659901e-01
5.641934e-01
5.626850e-01
5.616709e-01
5.613158e-01
5.616844e-01
5.627149e-01
5.642383e-01
5.660402e-01
5.679467e-01
5.697868e-01
5.713735e-01
0.000000e+00
1.000000e+00
5.714486e-01
5.694098e-01
5.673877e-01
5.653082e-01
5.633373e-01
5.616827e-01
5.605704e-01
5.601813e-01
5.605862e-01
5.617175e-01
5.633871e-01
5.653687e-01
5.674479e-01
5.694649e-01
5.712491e-01
0.000000e+00
1.000000e+00
5.715022e-01
5.695599e-01
5.676221e-01
5.656297e-01
5.637415e-01
5.621563e-01
5.610907e-01
5.607179e-01
5.611061e-01
5.621909e-01
5.637937e-01
5.657022e-01
5.676935e-01
5.696333e-01
5.710617e-01
0.000000e+00
1.000000e+00
5.717734e-01
5.701338e-01
5.685190e-01
5.668581e-01
5.652841e-01
5.639629e-01
5.630746e-01
5.627636e-01
5.630870e-01
5.639926e-01
5.653366e-01
5.669473e-01
5.686100e-01
5.702186e-01
5.714648e-01
0.000000e+00
1.000000e+00
5.722374e-01
5.710633e-01
5.699742e-01
5.688507e-01
5.677861e-01
5.668927e-01
5.662919e-01
5.660810e-01
5.662987e-01
5.669114e-01
5.678307e-01
5.689597e-01
5.700875e-01
5.711760e-01
5.719075e-01
0.000000e+00
1.000000e+00
5.728564e-01
5.722689e-01
5.718656e-01
5.714404e-01
5.710380e-01
5.707007e-01
5.704739e-01
5.703935e-01
5.704737e-01
5.707033e-01
5.710607e-01
5.715540e-01
5.719945e-01
5.724168e-01
5.724124e-01
0.000000e+00
1.000000e+00
5.735862e-01
5.736704e-01
5.740674e-01
5.744555e-01
5.748242e-01
5.751343e-01
5.753434e-01
5.754160e-01
5.753384e-01
5.751247e-01
5.748218e-01
5.745464e-01
5.742252e-01
5.738595e-01
5.728696e-01
0.000000e+00
1.000000e+00
5.825823e-01
5.894671e-01
5.995467e-01
6.093536e-01
6.186621e-01
6.265049e-01
6.318269e-01
6.337768e-01
6.319821e-01
6.268286e-01
6.191031e-01
6.097477e-01
5.998189e-01
5.901191e-01
5.805110e-01
0.000000e+00
1.000000e+00
5.817021e-01
5.877531e-01
5.968428e-01
6.056502e-01
6.140093e-01
6.210507e-01
6.258269e-01
6.275741e-01
6.259534e-01
6.213363e-01
6.144404e-01
6.060605e-01
5.971648e-01
5.884184e-01
5.798083e-01
0.000000e+00
1.000000e+00
5.806263e-01
5.858500e-01
5.937392e-01
6.013964e-01
6.086636e-01
6.147830e-01
6.189296e-01
6.204418e-01
6.190368e-01
6.150202e-01
6.090207e-01
6.017282e-01
5.940179e-01
5.864163e-01
5.788307e-01
0.000000e+00
1.000000e+00
5.793356e-01
5.837839e-01
5.903115e-01
5.966977e-01
6.027588e-01
6.078606e-01
6.113138e-01
6.125688e-01
6.114013e-01
6.080454e-01
6.030426e-01
5.969673e-01
5.905558e-01
5.842139e-01
5.778025e-01
0.000000e+00
1.000000e+00
5.779945e-01
5.815627e-01
5.866761e-01
5.917166e-01
5.965000e-01
6.005246e-01
6.032452e-01
6.042289e-01
6.033073e-01
6.006573e-01
5.967138e-01
5.919321e-01
5.868953e-01
5.818829e-01
5.766914e-01
0.000000e+00
1.000000e+00
5.766842e-01
5.792772e-01
5.829881e-01
5.866660e-01
5.901554e-01
5.930898e-01
5.950704e-01
5.957815e-01
5.951052e-01
5.931716e-01
5.902990e-01
5.868282e-01
5.831808e-01
5.795154e-01
5.755793e-01
0.000000e+00
1.000000e+00
5.754652e-01
5.770482e-01
5.794254e-01
5.817899e-01
5.840327e-01
5.859179e-01
5.871891e-01
5.876424e-01
5.872029e-01
5.859513e-01
5.841094e-01
5.818971e-01
5.795970e-01
5.772347e-01
5.744968e-01
0.000000e+00
1.000000e+00
5.743780e-01
5.750042e-01
5.761867e-01
5.773566e-01
5.784666e-01
5.793997e-01
5.800284e-01
5.802507e-01
5.800271e-01
5.793987e-01
5.784845e-01
5.774017e-01
5.763117e-01
5.751538e-01
5.735179e-01
0.000000e+00
1.000000e+00
5.734565e-01
5.732747e-01
5.734578e-01
5.736193e-01
5.737728e-01
5.739019e-01
5.739885e-01
5.740175e-01
5.739820e-01
5.738894e-01
5.737655e-01
5.736295e-01
5.735273e-01
5.733988e-01
5.726334e-01
0.000000e+00
1.000000e+00
5.727932e-01
5.719541e-01
5.713799e-01
5.707749e-01
5.702018e-01
5.697205e-01
5.693964e-01
5.692814e-01
5.693943e-01
5.697176e-01
5.702081e-01
5.707869e-01
5.714237e-01
5.720630e-01
5.720457e-01
0.000000e+00
1.000000e+00
5.723197e-01
5.711034e-01
5.700494e-01
5.689519e-01
5.679115e-01
5.670378e-01
5.664499e-01
5.662435e-01
5.664555e-01
5.670509e-01
5.679365e-01
5.689772e-01
5.700833e-01
5.711670e-01
5.720394e-01
0.000000e+00
1.000000e+00
5.721122e-01
5.707522e-01
5.694985e-01
5.681984e-01
5.669661e-01
5.659313e-01
5.652352e-01
5.649912e-01
5.652437e-01
5.659515e-01
5.670003e-01
5.682394e-01
5.695382e-01
5.708137e-01
5.718988e-01
0.000000e+00
1.000000e+00
5.721606e-01
5.708873e-01
5.697072e-01
5.684847e-01
5.673259e-01
5.663529e-01
5.656985e-01
5.654689e-01
5.657061e-01
5.663721e-01
5.673607e-01
5.685413e-01
5.697608e-01
5.709635e-01
5.717348e-01
0.000000e+00
1.000000e+00
5.724454e-01
5.714581e-01
5.705995e-01
5.697064e-01
5.688601e-01
5.681495e-01
5.676714e-01
5.675032e-01
5.676756e-01
5.681618e-01
5.688894e-01
5.697793e-01
5.706715e-01
5.715473e-01
5.721226e-01
0.000000e+00
1.000000e+00
5.729234e-01
5.723919e-01
5.720631e-01
5.717104e-01
5.713764e-01
5.710962e-01
5.709074e-01
5.708403e-01
5.709065e-01
5.710971e-01
5.713913e-01
5.717895e-01
5.721554e-01
5.725065e-01
5.725382e-01
0.000000e+00
1.000000e+00
5.735615e-01
5.736036e-01
5.739677e-01
5.743186e-01
5.746517e-01
5.749317e-01
5.751201e-01
5.751854e-01
5.751152e-01
5.749229e-01
5.746494e-01
5.743829e-01
5.740905e-01
5.737506e-01
5.731124e-01
0.000000e+00
1.000000e+00
5.742995e-01
5.750095e-01
5.761805e-01
5.773490e-01
5.784573e-01
5.793890e-01
5.800165e-01
5.802374e-01
5.800119e-01
5.793797e-01
5.784519e-01
5.774139e-01
5.763528e-01
5.751994e-01
5.735545e-01
0.000000e+00
1.000000e+00
5.832002e-01
5.904378e-01
6.013658e-01
6.118502e-01
6.217972e-01
6.301799e-01
6.358698e-01
6.379471e-01
6.360283e-01
6.305386e-01
6.222839e-01
6.122757e-01
6.016358e-01
5.912570e-01
5.810948e-01
0.000000e+00
1.000000e+00
5.823212e-01
5.888322e-01
5.988361e-01
6.083827e-01
6.174402e-01
6.250720e-01
6.302499e-01
6.321361e-01
6.303733e-01
6.253983e-01
6.179137e-01
6.088198e-01
5.991562e-01
5.896788e-01
5.804424e-01
0.000000e+00
1.000000e+00
5.812820e-01
5.869713e-01
5.958570e-01
6.043016e-01
6.123126e-01
6.190607e-01
6.236363e-01
6.253000e-01
6.237368e-01
6.193451e-01
6.127178e-01
6.046691e-01
5.961413e-01
5.877603e-01
5.794947e-01
0.000000e+00
1.000000e+00
5.801256e-01
5.849349e-01
5.925042e-01
5.997067e-01
6.065395e-01
6.122931e-01
6.161919e-01
6.176065e-01
6.162719e-01
6.125279e-01
6.068670e-01
6.000055e-01
5.927504e-01
5.856072e-01
5.784741e-01
0.000000e+00
1.000000e+00
5.788419e-01
5.827706e-01
5.888933e-01
5.947583e-01
6.003226e-01
6.050061e-01
6.081771e-01
6.093240e-01
6.082387e-01
6.051875e-01
6.005772e-01
5.950001e-01
5.891120e-01
5.832935e-01
5.773693e-01
0.000000e+00
1.000000e+00
5.775221e-01
5.805203e-01
5.851832e-01
5.896749e-01
5.939365e-01
5.975221e-01
5.999471e-01
6.008196e-01
5.999898e-01
5.976461e-01
5.941217e-01
5.898609e-01
5.853698e-01
5.809105e-01
5.762461e-01
0.000000e+00
1.000000e+00
5.762110e-01
5.783189e-01
5.815653e-01
5.847196e-01
5.877120e-01
5.902290e-01
5.919283e-01
5.925350e-01
5.919495e-01
5.902935e-01
5.878300e-01
5.848489e-01
5.817195e-01
5.785848e-01
5.751410e-01
0.000000e+00
1.000000e+00
5.750723e-01
5.762650e-01
5.782377e-01
5.801647e-01
5.819929e-01
5.835302e-01
5.845673e-01
5.849369e-01
5.845763e-01
5.835563e-01
5.820521e-01
5.802386e-01
5.783656e-01
5.764522e-01
5.741453e-01
0.000000e+00
1.000000e+00
5.740982e-01
5.744900e-01
5.754155e-01
5.762993e-01
5.771379e-01
5.778428e-01
5.783174e-01
5.784836e-01
5.783122e-01
5.778377e-01
5.771381e-01
5.763097e-01
5.754821e-01
5.746294e-01
5.732497e-01
0.000000e+00
1.000000e+00
5.733523e-01
5.731247e-01
5.732497e-01
5.733334e-01
5.734127e-01
5.734791e-01
5.735234e-01
5.735377e-01
5.735174e-01
5.734666e-01
5.733955e-01
5.733212e-01
5.732726e-01
5.732295e-01
5.726265e-01
0.000000e+00
1.000000e+00
5.728739e-01
5.722354e-01
5.718431e-01
5.714081e-01
5.709957e-01
5.706492e-01
5.704157e-01
5.703331e-01
5.704157e-01
5.706502e-01
5.710002e-01
5.714101e-01
5.718531e-01
5.723071e-01
5.725270e-01
0.000000e+00
1.000000e+00
5.726586e-01
5.718601e-01
5.712458e-01
5.705911e-01
5.699705e-01
5.694492e-01
5.690983e-01
5.689749e-01
5.691013e-01
5.694574e-01
5.699881e-01
5.706109e-01
5.712584e-01
5.719251e-01
5.723458e-01
0.000000e+00
1.000000e+00
5.727104e-01
5.719839e-01
5.714330e-01
5.708476e-01
5.702927e-01
5.698266e-01
5.695130e-01
5.694025e-01
5.695153e-01
5.698338e-01
5.703099e-01
5.708839e-01
5.714594e-01
5.720563e-01
5.722546e-01
0.000000e+00
1.000000e+00
5.730025e-01
5.725537e-01
5.723235e-01
5.720667e-01
5.718235e-01
5.716192e-01
5.714815e-01
5.714324e-01
5.714805e-01
5.716194e-01
5.718319e-01
5.721080e-01
5.723673e-01
5.726404e-01
5.725563e-01
0.000000e+00
1.000000e+00
5.734930e-01
5.734933e-01
5.737977e-01
5.740854e-01
5.743583e-01
5.745876e-01
5.747417e-01
5.747950e-01
5.747373e-01
5.745799e-01
5.743544e-01
5.741216e-01
5.738745e-01
5.736066e-01
5.729450e-01
0.000000e+00
1.000000e+00
5.741471e-01
5.747128e-01
5.757174e-01
5.767144e-01
5.776600e-01
5.784546e-01
5.789896e-01
5.791778e-01
5.789848e-01
5.784450e-01
5.776514e-01
5.767563e-01
5.758472e-01
5.748636e-01
5.735520e-01
0.000000e+00
1.000000e+00
5.748947e-01
5.761255e-01
5.779432e-01
5.797623e-01
5.814879e-01
5.829382e-01
5.839155e-01
5.842613e-01
5.839141e-01
5.829349e-01
5.814984e-01
5.798510e-01
5.781204e-01
5.763145e-01
5.740980e-01
0.000000e+00
1.000000e+00
5.837249e-01
5.911243e-01
6.025920e-01
6.135324e-01
6.239103e-01
6.326561e-01
6.385904e-01
6.407488e-01
6.387603e-01
6.330397e-01
6.244386e-01
6.139939e-01
6.028679e-01
5.919971e-01
5.814916e-01
0.000000e+00
1.000000e+00
5.828930e-01
5.896060e-01
6.002305e-01
6.102931e-01
6.198383e-01
6.278809e-01
6.333374e-01
6.353156e-01
6.334730e-01
6.282366e-01
6.203404e-01
6.107465e-01
6.005437e-01
5.905344e-01
5.808618e-01
0.000000e+00
1.000000e+00
5.818519e-01
5.878246e-01
5.973791e-01
6.063856e-01
6.149275e-01
6.221244e-01
6.270059e-01
6.287726e-01
6.271142e-01
6.224410e-01
6.153668e-01
6.067791e-01
5.976694e-01
5.887133e-01
5.799649e-01
0.000000e+00
1.000000e+00
5.807446e-01
5.858211e-01
5.941052e-01
6.018996e-01
6.092921e-01
6.155194e-01
6.197414e-01
6.212667e-01
6.198268e-01
6.157875e-01
6.096520e-01
6.022193e-01
5.943528e-01
5.866082e-01
5.789608e-01
0.000000e+00
1.000000e+00
5.794805e-01
5.836819e-01
5.905241e-01
5.969938e-01
6.031304e-01
6.082973e-01
6.117974e-01
6.130592e-01
6.118636e-01
6.085113e-01
6.034123e-01
5.972532e-01
5.907449e-01
5.843155e-01
5.778697e-01
0.000000e+00
1.000000e+00
5.781603e-01
5.814347e-01
5.867988e-01
5.918905e-01
5.967201e-01
6.007844e-01
6.035340e-01
6.045225e-01
6.035828e-01
6.009411e-01
5.969292e-01
5.920919e-01
5.869874e-01
5.819245e-01
5.767392e-01
0.000000e+00
1.000000e+00
5.768105e-01
5.792257e-01
5.831297e-01
5.868633e-01
5.904052e-01
5.933844e-01
5.953966e-01
5.961167e-01
5.954275e-01
5.934821e-01
5.905475e-01
5.870083e-01
5.832814e-01
5.795645e-01
5.756140e-01
0.000000e+00
1.000000e+00
5.755955e-01
5.771611e-01
5.797296e-01
5.822068e-01
5.845567e-01
5.865327e-01
5.878662e-01
5.883428e-01
5.878843e-01
5.865825e-01
5.846418e-01
5.822996e-01
5.798508e-01
5.773788e-01
5.745991e-01
0.000000e+00
1.000000e+00
5.745468e-01
5.753554e-01
5.768236e-01
5.782264e-01
5.795570e-01
5.806750e-01
5.814279e-01
5.816939e-01
5.814278e-01
5.806811e-01
5.795794e-01
5.782533e-01
5.768953e-01
5.755063e-01
5.737151e-01
0.000000e+00
1.000000e+00
5.737847e-01
5.739556e-01
5.745762e-01
5.751499e-01
5.756937e-01
5.761503e-01
5.764573e-01
5.765646e-01
5.764523e-01
5.761408e-01
5.756800e-01
5.751366e-01
5.745964e-01
5.740562e-01
5.730758e-01
0.000000e+00
1.000000e+00
5.732904e-01
5.730347e-01
5.731097e-01
5.731425e-01
5.731734e-01
5.731993e-01
5.732163e-01
5.732217e-01
5.732138e-01
5.731942e-01
5.731641e-01
5.731295e-01
5.731065e-01
5.731020e-01
5.728799e-01
0.000000e+00
1.000000e+00
5.730605e-01
5.726387e-01
5.724755e-01
5.722746e-01
5.720842e-01
5.719242e-01
5.718164e-01
5.717782e-01
5.718165e-01
5.719253e-01
5.720873e-01
5.722739e-01
5.724669e-01
5.726938e-01
5.726271e-01
0.000000e+00
1.000000e+00
5.731070e-01
5.727553e-01
5.726494e-01
5.725128e-01
5.723834e-01
5.722746e-01
5.722012e-01
5.721751e-01
5.722009e-01
5.722752e-01
5.723875e-01
5.725219e-01
5.726510e-01
5.728117e-01
5.726285e-01
0.000000e+00
1.000000e+00
5.734036e-01
5.733295e-01
5.735461e-01
5.737407e-01
5.739252e-01
5.740802e-01
5.741842e-01
5.742201e-01
5.741812e-01
5.740751e-01
5.739220e-01
5.737517e-01
5.735725e-01
5.734065e-01
5.728474e-01
0.000000e+00
1.000000e+00
5.739046e-01
5.742805e-01
5.750393e-01
5.757854e-01
5.764930e-01
5.770874e-01
5.774874e-01
5.776277e-01
5.774827e-01
5.770778e-01
5.764811e-01
5.758008e-01
5.751136e-01
5.743878e-01
5.732930e-01
0.000000e+00
1.000000e+00
5.745629e-01
5.755149e-01
5.769829e-01
5.784470e-01
5.798355e-01
5.810024e-01
5.817885e-01
5.820661e-01
5.817854e-01
5.809953e-01
5.798304e-01
5.785014e-01
5.771152e-01
5.756597e-01
5.739057e-01
0.000000e+00
1.000000e+00
5.753268e-01
5.769409e-01
5.792306e-01
5.815250e-01
5.837010e-01
5.855301e-01
5.867631e-01
5.872006e-01
5.867652e-01
5.855351e-01
5.837352e-01
5.816409e-01
5.793944e-01
5.771185e-01
5.744781e-01
0.000000e+00
1.000000e+00
5.838031e-01
5.916201e-01
6.031148e-01
6.142487e-01
6.248150e-01
6.337194e-01
6.397615e-01
6.419630e-01
6.399382e-01
6.341187e-01
6.253814e-01
6.147531e-01
6.034107e-01
5.923257e-01
5.816433e-01
0.000000e+00
1.000000e+00
5.831865e-01
5.900520e-01
6.008897e-01
6.112057e-01
6.209920e-01
6.292365e-01
6.348286e-01
6.368604e-01
6.349794e-01
6.296110e-01
6.215202e-01
6.116811e-01
6.012147e-01
5.909369e-01
5.810444e-01
0.000000e+00
1.000000e+00
5.821894e-01
5.883245e-01
5.981542e-01
6.074550e-01
6.162768e-01
6.237077e-01
6.287464e-01
6.305731e-01
6.288718e-01
6.240413e-01
6.167422e-01
6.078759e-01
5.984651e-01
5.892039e-01
5.801875e-01
0.000000e+00
1.000000e+00
5.810200e-01
5.864247e-01
5.949569e-01
6.030713e-01
6.107678e-01
6.172498e-01
6.216426e-01
6.232321e-01
6.217471e-01
6.175328e-01
6.111505e-01
6.034118e-01
5.952174e-01
5.871436e-01
5.792097e-01
0.000000e+00
1.000000e+00
5.797694e-01
5.843115e-01
5.914083e-01
5.982072e-01
6.046569e-01
6.100871e-01
6.137643e-01
6.150930e-01
6.138512e-01
6.103145e-01
6.049593e-01
5.984841e-01
5.916388e-01
5.848710e-01
5.781326e-01
0.000000e+00
1.000000e+00
5.784530e-01
5.820557e-01
5.876739e-01
5.930888e-01
5.982265e-01
6.025505e-01
6.054757e-01
6.065319e-01
6.055444e-01
6.027187e-01
5.984539e-01
5.933050e-01
5.878684e-01
5.824722e-01
5.769905e-01
0.000000e+00
1.000000e+00
5.771357e-01
5.797979e-01
5.839615e-01
5.880016e-01
5.918348e-01
5.950595e-01
5.972388e-01
5.980246e-01
5.972851e-01
5.951678e-01
5.919916e-01
5.881585e-01
5.841175e-01
5.800870e-01
5.758519e-01
0.000000e+00
1.000000e+00
5.758892e-01
5.776774e-01
5.804939e-01
5.832544e-01
5.858730e-01
5.880756e-01
5.895637e-01
5.900983e-01
5.895880e-01
5.881330e-01
5.859715e-01
5.833607e-01
5.806168e-01
5.778554e-01
5.748816e-01
0.000000e+00
1.000000e+00
5.748219e-01
5.758181e-01
5.775111e-01
5.791687e-01
5.807412e-01
5.820633e-01
5.829549e-01
5.832720e-01
5.829600e-01
5.820793e-01
5.807826e-01
5.792197e-01
5.775994e-01
5.759325e-01
5.740561e-01
0.000000e+00
1.000000e+00
5.740273e-01
5.743646e-01
5.752014e-01
5.760058e-01
5.767687e-01
5.774094e-01
5.778404e-01
5.779915e-01
5.778359e-01
5.774036e-01
5.767657e-01
5.760031e-01
5.752308e-01
5.744347e-01
5.733840e-01
0.000000e+00
1.000000e+00
5.735195e-01
5.734104e-01
5.736912e-01
5.739382e-01
5.741721e-01
5.743685e-01
5.745002e-01
5.745458e-01
5.744968e-01
5.743613e-01
5.741594e-01
5.739219e-01
5.736869e-01
5.734470e-01
5.730612e-01
0.000000e+00
1.000000e+00
5.732696e-01
5.729968e-01
5.730359e-01
5.730411e-01
5.730459e-01
5.730499e-01
5.730525e-01
5.730533e-01
5.730520e-01
5.730482e-01
5.730415e-01
5.730314e-01
5.730218e-01
5.730341e-01
5.728573e-01
0.000000e+00
1.000000e+00
5.733025e-01
5.731122e-01
5.732106e-01
5.732808e-01
5.733472e-01
5.734029e-01
5.734402e-01
5.734531e-01
5.734393e-01
5.734011e-01
5.733445e-01
5.732755e-01
5.732049e-01
5.731547e-01
5.728828e-01
0.000000e+00
1.000000e+00
5.736020e-01
5.736991e-01
5.741282e-01
5.745374e-01
5.749253e-01
5.752511e-01
5.754701e-01
5.755466e-01
5.754668e-01
5.752447e-01
5.749168e-01
5.745325e-01
5.741520e-01
5.737707e-01
5.729817e-01
0.000000e+00
1.000000e+00
5.741093e-01
5.746716e-01
5.756553e-01
5.766287e-01
5.775517e-01
5.783272e-01
5.788493e-01
5.790329e-01
5.788447e-01
5.783169e-01
5.775356e-01
5.766402e-01
5.757352e-01
5.747770e-01
5.734212e-01
0.000000e+00
1.000000e+00
5.747746e-01
5.759313e-01
5.776383e-01
5.793442e-01
5.809619e-01
5.823214e-01
5.832373e-01
5.835611e-01
5.832350e-01
5.823157e-01
5.809593e-01
5.794119e-01
5.777794e-01
5.760709e-01
5.740474e-01
0.000000e+00
1.000000e+00
5.755595e-01
5.773806e-01
5.799246e-01
5.824751e-01
5.848940e-01
5.869274e-01
5.882984e-01
5.887856e-01
5.883034e-01
5.869397e-01
5.849404e-01
5.826038e-01
5.800869e-01
5.775500e-01
5.746836e-01
0.000000e+00
1.000000e+00
5.835548e-01
5.916385e-01
6.028744e-01
6.139111e-01
6.243918e-01
6.332260e-01
6.392242e-01
6.414200e-01
6.394061e-01
6.336273e-01
6.249767e-01
6.144293e-01
6.031753e-01
5.922236e-01
5.816095e-01
0.000000e+00
1.000000e+00
5.830433e-01
5.901960e-01
6.007573e-01
6.110172e-01
6.207573e-01
6.289641e-01
6.345313e-01
6.365659e-01
6.346982e-01
6.293423e-01
6.212944e-01
6.114946e-01
6.010780e-01
5.908897e-01
5.810067e-01
0.000000e+00
1.000000e+00
5.821200e-01
5.885349e-01
5.981044e-01
6.073808e-01
6.161866e-01
6.236045e-01
6.286334e-01
6.304688e-01
6.287804e-01
6.239429e-01
6.166675e-01
6.078185e-01
5.984250e-01
5.892059e-01
5.801832e-01
0.000000e+00
1.000000e+00
5.809807e-01
5.866322e-01
5.949605e-01
6.030698e-01
6.107682e-01
6.172517e-01
6.216440e-01
6.232443e-01
6.217722e-01
6.175382e-01
6.111658e-01
6.034264e-01
5.952313e-01
5.871745e-01
5.792192e-01
0.000000e+00
1.000000e+00
5.797290e-01
5.844818e-01
5.914311e-01
5.982322e-01
6.046884e-01
6.101242e-01
6.138037e-01
6.151425e-01
6.139127e-01
6.103539e-01
6.050041e-01
5.985235e-01
5.916725e-01
5.849116e-01
5.781443e-01
0.000000e+00
1.000000e+00
5.783985e-01
5.821779e-01
5.876822e-01
5.930954e-01
5.982330e-01
6.025566e-01
6.054808e-01
6.065430e-01
6.055668e-01
6.027265e-01
5.984704e-01
5.933232e-01
5.878870e-01
5.825031e-01
5.769914e-01
0.000000e+00
1.000000e+00
5.770678e-01
5.798508e-01
5.839240e-01
5.879496e-01
5.917685e-01
5.949805e-01
5.971507e-01
5.979364e-01
5.972073e-01
5.950910e-01
5.919329e-01
5.881183e-01
5.840942e-01
5.800923e-01
5.758388e-01
0.000000e+00
1.000000e+00
5.758246e-01
5.776519e-01
5.803961e-01
5.831211e-01
5.857058e-01
5.878793e-01
5.893473e-01
5.898759e-01
5.893764e-01
5.879396e-01
5.858081e-01
5.832385e-01
5.805370e-01
5.778250e-01
5.748984e-01
0.000000e+00
1.000000e+00
5.747816e-01
5.757350e-01
5.773523e-01
5.789522e-01
5.804699e-01
5.817458e-01
5.826065e-01
5.829131e-01
5.826132e-01
5.817626e-01
5.805096e-01
5.790088e-01
5.774559e-01
5.758554e-01
5.741486e-01
0.000000e+00
1.000000e+00
5.739720e-01
5.742410e-01
5.749949e-01
5.757230e-01
5.764134e-01
5.769933e-01
5.773833e-01
5.775199e-01
5.773783e-01
5.769856e-01
5.764084e-01
5.757254e-01
5.750342e-01
5.743068e-01
5.734710e-01
0.000000e+00
1.000000e+00
5.734506e-01
5.732669e-01
5.734555e-01
5.736155e-01
5.737670e-01
5.738941e-01
5.739792e-01
5.740081e-01
5.739749e-01
5.738848e-01
5.737532e-01
5.736055e-01
5.734596e-01
5.732905e-01
5.729805e-01
0.000000e+00
1.000000e+00
5.732143e-01
5.728510e-01
5.727978e-01
5.727149e-01
5.726362e-01
5.725700e-01
5.725251e-01
5.725088e-01
5.725234e-01
5.725655e-01
5.726281e-01
5.727090e-01
5.727903e-01
5.728478e-01
5.728481e-01
0.000000e+00
1.000000e+00
5.732479e-01
5.729783e-01
5.729951e-01
5.729851e-01
5.729755e-01
5.729673e-01
5.729614e-01
5.729588e-01
5.729596e-01
5.729631e-01
5.729678e-01
5.729810e-01
5.729951e-01
5.729860e-01
5.728561e-01
0.000000e+00
1.000000e+00
5.735482e-01
5.735907e-01
5.739540e-01
5.742985e-01
5.746250e-01
5.748991e-01
5.750832e-01
5.751471e-01
5.750790e-01
5.748906e-01
5.746111e-01
5.742831e-01
5.739968e-01
5.736378e-01
5.730799e-01
0.000000e+00
1.000000e+00
5.740671e-01
5.745984e-01
5.755359e-01
5.764650e-01
5.773460e-01
5.780861e-01
5.785841e-01
5.787590e-01
5.785787e-01
5.780740e-01
5.773247e-01
5.764523e-01
5.756127e-01
5.746844e-01
5.734599e-01
0.000000e+00
1.000000e+00
5.747667e-01
5.758961e-01
5.775799e-01
5.792642e-01
5.808613e-01
5.822034e-01
5.831075e-01
5.834269e-01
5.831043e-01
5.821959e-01
5.808510e-01
5.793103e-01
5.777309e-01
5.760162e-01
5.740312e-01
0.000000e+00
1.000000e+00
5.755707e-01
5.773823e-01
5.799277e-01
5.824793e-01
5.848993e-01
5.869334e-01
5.883049e-01
5.887921e-01
5.883096e-01
5.869454e-01
5.849389e-01
5.825984e-01
5.801008e-01
5.775388e-01
5.746711e-01
0.000000e+00
1.000000e+00
5.831306e-01
5.910791e-01
6.018458e-01
6.124907e-01
6.226013e-01
6.311252e-01
6.369140e-01
6.390396e-01
6.371026e-01
6.315087e-01
6.231773e-01
6.129904e-01
6.021364e-01
5.915675e-01
5.813063e-01
0.000000e+00
1.000000e+00
5.825342e-01
5.897488e-01
5.997939e-01
6.096831e-01
6.190744e-01
6.269886e-01
6.323581e-01
6.343265e-01
6.325379e-01
6.273540e-01
6.195991e-01
6.101404e-01
6.001030e-01
5.902781e-01
5.806912e-01
0.000000e+00
1.000000e+00
5.816207e-01
5.881234e-01
5.971842e-01
6.061073e-01
6.145803e-01
6.217181e-01
6.265573e-01
6.283295e-01
6.267214e-01
6.220470e-01
6.150537e-01
6.065351e-01
5.974994e-01
5.886267e-01
5.798968e-01
0.000000e+00
1.000000e+00
5.805140e-01
5.861972e-01
5.940598e-01
6.018266e-01
6.092005e-01
6.154100e-01
6.196158e-01
6.211527e-01
6.197587e-01
6.156871e-01
6.095926e-01
6.021806e-01
5.943356e-01
5.866196e-01
5.789413e-01
0.000000e+00
1.000000e+00
5.792911e-01
5.840054e-01
5.905247e-01
5.969852e-01
6.031173e-01
6.082785e-01
6.117701e-01
6.130422e-01
6.118864e-01
6.084977e-01
6.034278e-01
5.972780e-01
5.907762e-01
5.843561e-01
5.778661e-01
0.000000e+00
1.000000e+00
5.779734e-01
5.816510e-01
5.867457e-01
5.918114e-01
5.966178e-01
6.006608e-01
6.033922e-01
6.043825e-01
6.034746e-01
6.008191e-01
5.968491e-01
5.920449e-01
5.869680e-01
5.819328e-01
5.767092e-01
0.000000e+00
1.000000e+00
5.766538e-01
5.792695e-01
5.829407e-01
5.866034e-01
5.900775e-01
5.929981e-01
5.949690e-01
5.956785e-01
5.950147e-01
5.930962e-01
5.902352e-01
5.867814e-01
5.831335e-01
5.794911e-01
5.755409e-01
0.000000e+00
1.000000e+00
5.754278e-01
5.770182e-01
5.793624e-01
5.817052e-01
5.839274e-01
5.857954e-01
5.870554e-01
5.875058e-01
5.870722e-01
5.858382e-01
5.840138e-01
5.818230e-01
5.795293e-01
5.771914e-01
5.745787e-01
0.000000e+00
1.000000e+00
5.743991e-01
5.750621e-01
5.762703e-01
5.774708e-01
5.786097e-01
5.795671e-01
5.802123e-01
5.804406e-01
5.802119e-01
5.795708e-01
5.786304e-01
5.775174e-01
5.763829e-01
5.751793e-01
5.738401e-01
0.000000e+00
1.000000e+00
5.736004e-01
5.735426e-01
5.738803e-01
5.741971e-01
5.744975e-01
5.747497e-01
5.749188e-01
5.749765e-01
5.749115e-01
5.747364e-01
5.744851e-01
5.742083e-01
5.739321e-01
5.736096e-01
5.731566e-01
0.000000e+00
1.000000e+00
5.730664e-01
5.725580e-01
5.723326e-01
5.720779e-01
5.718361e-01
5.716326e-01
5.714950e-01
5.714448e-01
5.714900e-01
5.716222e-01
5.718255e-01
5.720883e-01
5.723560e-01
5.725963e-01
5.726228e-01
0.000000e+00
1.000000e+00
5.728507e-01
5.721514e-01
5.716906e-01
5.711992e-01
5.707331e-01
5.703413e-01
5.700772e-01
5.699831e-01
5.700754e-01
5.703371e-01
5.707292e-01
5.712159e-01
5.717032e-01
5.721647e-01
5.724388e-01
0.000000e+00
1.000000e+00
5.729065e-01
5.723053e-01
5.719310e-01
5.715282e-01
5.711462e-01
5.708250e-01
5.706083e-01
5.705310e-01
5.706063e-01
5.708204e-01
5.711393e-01
5.715454e-01
5.719506e-01
5.723209e-01
5.724045e-01
0.000000e+00
1.000000e+00
5.732164e-01
5.729579e-01
5.729539e-01
5.729290e-01
5.729052e-01
5.728849e-01
5.728706e-01
5.728640e-01
5.728656e-01
5.728750e-01
5.728879e-01
5.729320e-01
5.730080e-01
5.729872e-01
5.728626e-01
0.000000e+00
1.000000e+00
5.737580e-01
5.740157e-01
5.746140e-01
5.752025e-01
5.757604e-01
5.762288e-01
5.765437e-01
5.766531e-01
5.765367e-01
5.762141e-01
5.757348e-01
5.751811e-01
5.746884e-01
5.740859e-01
5.733483e-01
0.000000e+00
1.000000e+00
5.744920e-01
5.753680e-01
5.767435e-01
5.781188e-01
5.794230e-01
5.805189e-01
5.812568e-01
5.815167e-01
5.812516e-01
5.805072e-01
5.794010e-01
5.781272e-01
5.768897e-01
5.754782e-01
5.739274e-01
0.000000e+00
1.000000e+00
5.753255e-01
5.769090e-01
5.791785e-01
5.814536e-01
5.836112e-01
5.854248e-01
5.866471e-01
5.870804e-01
5.866479e-01
5.854275e-01
5.836263e-01
5.815437e-01
5.793684e-01
5.770569e-01
5.745083e-01
0.000000e+00
1.000000e+00
5.824772e-01
5.900010e-01
6.000462e-01
6.100223e-01
6.194939e-01
6.274755e-01
6.328928e-01
6.348809e-01
6.330775e-01
6.278216e-01
6.200224e-01
6.104683e-01
6.003222e-01
5.904245e-01
5.807630e-01
0.000000e+00
1.000000e+00
5.818273e-01
5.887052e-01
5.980069e-01
6.072303e-01
6.159861e-01
6.233613e-01
6.283609e-01
6.301924e-01
6.285356e-01
6.236893e-01
6.164654e-01
6.076478e-01
5.983069e-01
5.891433e-01
5.801505e-01
0.000000e+00
1.000000e+00
5.809272e-01
5.870712e-01
5.953946e-01
6.036527e-01
6.114910e-01
6.180907e-01
6.225603e-01
6.241947e-01
6.227189e-01
6.183871e-01
6.119287e-01
6.040538e-01
5.957069e-01
5.874874e-01
5.793508e-01
0.000000e+00
1.000000e+00
5.798284e-01
5.851174e-01
5.922535e-01
5.993517e-01
6.060876e-01
6.117566e-01
6.155912e-01
6.169874e-01
6.157212e-01
6.120033e-01
6.064493e-01
5.996911e-01
5.925398e-01
5.854738e-01
5.783891e-01
0.000000e+00
1.000000e+00
5.785946e-01
5.828917e-01
5.886880e-01
5.944705e-01
5.999568e-01
6.045717e-01
6.076890e-01
6.088168e-01
6.077829e-01
6.047609e-01
6.002406e-01
5.947580e-01
5.889576e-01
5.831959e-01
5.773041e-01
0.000000e+00
1.000000e+00
5.772794e-01
5.804954e-01
5.848670e-01
5.892403e-01
5.933887e-01
5.968766e-01
5.992295e-01
6.000739e-01
5.992822e-01
5.970011e-01
5.935938e-01
5.894746e-01
5.851152e-01
5.807493e-01
5.761386e-01
0.000000e+00
1.000000e+00
5.759615e-01
5.780710e-01
5.810156e-01
5.839682e-01
5.867687e-01
5.891227e-01
5.907096e-01
5.912746e-01
5.907279e-01
5.891814e-01
5.868927e-01
5.841417e-01
5.812412e-01
5.782816e-01
5.749612e-01
0.000000e+00
1.000000e+00
5.747430e-01
5.757815e-01
5.773947e-01
5.790107e-01
5.805438e-01
5.818326e-01
5.827012e-01
5.830086e-01
5.827021e-01
5.818439e-01
5.805893e-01
5.791071e-01
5.775867e-01
5.759561e-01
5.739768e-01
0.000000e+00
1.000000e+00
5.737098e-01
5.737975e-01
5.742685e-01
5.747300e-01
5.751681e-01
5.755365e-01
5.757846e-01
5.758710e-01
5.757798e-01
5.755289e-01
5.751713e-01
5.747812e-01
5.743888e-01
5.739132e-01
5.732040e-01
0.000000e+00
1.000000e+00
5.729145e-01
5.722652e-01
5.718617e-01
5.714336e-01
5.710280e-01
5.706872e-01
5.704572e-01
5.703745e-01
5.704532e-01
5.706800e-01
5.710319e-01
5.714833e-01
5.719407e-01
5.723410e-01
5.724999e-01
0.000000e+00
1.000000e+00
5.723961e-01
5.712840e-01
5.703240e-01
5.693278e-01
5.683832e-01
5.675895e-01
5.670548e-01
5.668652e-01
5.670544e-01
5.675890e-01
5.683957e-01
5.693784e-01
5.703809e-01
5.713360e-01
5.720523e-01
0.000000e+00
1.000000e+00
5.721949e-01
5.708977e-01
5.697178e-01
5.684982e-01
5.673417e-01
5.663700e-01
5.657157e-01
5.654848e-01
5.657180e-01
5.663743e-01
5.673563e-01
5.685468e-01
5.697586e-01
5.709345e-01
5.717140e-01
0.000000e+00
1.000000e+00
5.722930e-01
5.710899e-01
5.700184e-01
5.689099e-01
5.678588e-01
5.669758e-01
5.663810e-01
5.661708e-01
5.663825e-01
5.669788e-01
5.678676e-01
5.689606e-01
5.700642e-01
5.711301e-01
5.717352e-01
0.000000e+00
1.000000e+00
5.726275e-01
5.717946e-01
5.711235e-01
5.704230e-01
5.697588e-01
5.692006e-01
5.688244e-01
5.686905e-01
5.688225e-01
5.691974e-01
5.697523e-01
5.704778e-01
5.711879e-01
5.718386e-01
5.722315e-01
0.000000e+00
1.000000e+00
5.731964e-01
5.729150e-01
5.728815e-01
5.728303e-01
5.727816e-01
5.727405e-01
5.727120e-01
5.727000e-01
5.727057e-01
5.727280e-01
5.727589e-01
5.728605e-01
5.729685e-01
5.729832e-01
5.728947e-01
0.000000e+00
1.000000e+00
5.739487e-01
5.743376e-01
5.751182e-01
5.758932e-01
5.766283e-01
5.772458e-01
5.776611e-01