<?xml version="1.0"?>
<VTKFile type="StructuredGrid" version="0.1">
  <StructuredGrid WholeExtent="0 16 0 16 0 16">
    <Piece Extent="0 16 0 16 0 16">
      <PointData Scalars="temperature" Vectors="velocity">
        <DataArray type="Float32" Name="temperature" format="ascii">
1.000000e+00
5.733329e-01
5.737023e-01
5.740991e-01
5.745049e-01
5.748897e-01
5.752130e-01
5.754309e-01
5.755081e-01
5.754309e-01
5.752130e-01
5.748897e-01
5.745049e-01
5.740991e-01
5.737023e-01
5.733329e-01
0.000000e+00
1.000000e+00
5.741018e-01
5.753241e-01
5.766373e-01
5.779803e-01
5.792538e-01
5.803239e-01
5.810450e-01
5.813004e-01
5.810450e-01
5.803239e-01
5.792538e-01
5.779803e-01
5.766373e-01
5.753241e-01
5.741018e-01
0.000000e+00
1.000000e+00
5.749926e-01
5.772031e-01
5.795779e-01
5.820067e-01
5.843098e-01
5.862451e-01
5.875492e-01
5.880111e-01
5.875492e-01
5.862451e-01
5.843098e-01
5.820067e-01
5.795779e-01
5.772031e-01
5.749926e-01
0.000000e+00
1.000000e+00
5.759855e-01
5.792975e-01
5.828556e-01
5.864946e-01
5.899452e-01
5.928450e-01
5.947989e-01
5.954910e-01
5.947989e-01
5.928450e-01
5.899452e-01
5.864946e-01
5.828556e-01
5.792975e-01
5.759855e-01
0.000000e+00
1.000000e+00
5.770490e-01
5.815408e-01
5.863664e-01
5.913016e-01
5.959815e-01
5.999142e-01
6.025642e-01
6.035027e-01
6.025642e-01
5.999142e-01
5.959815e-01
5.913016e-01
5.863664e-01
5.815408e-01
5.770490e-01
0.000000e+00
1.000000e+00
5.781404e-01
5.838429e-01
5.899691e-01
5.962347e-01
6.021760e-01
6.071686e-01
6.105329e-01
6.117245e-01
6.105329e-01
6.071686e-01
6.021760e-01
5.962347e-01
5.899691e-01
5.838429e-01
5.781404e-01
0.000000e+00
1.000000e+00
5.792079e-01
5.860946e-01
5.934931e-01
6.010598e-01
6.082348e-01
6.142643e-01
6.183273e-01
6.197662e-01
6.183273e-01
6.142643e-01
6.082348e-01
6.010598e-01
5.934931e-01
5.860946e-01
5.792079e-01
0.000000e+00
1.000000e+00
5.801949e-01
5.881765e-01
5.967514e-01
6.055211e-01
6.138370e-01
6.208251e-01
6.255341e-01
6.272018e-01
6.255341e-01
6.208251e-01
6.138370e-01
6.055211e-01
5.967514e-01
5.881765e-01
5.801949e-01
0.000000e+00
1.000000e+00
5.810457e-01
5.899711e-01
5.995599e-01
6.093666e-01
6.186658e-01
6.264802e-01
6.317460e-01
6.336109e-01
6.317460e-01
6.264802e-01
6.186658e-01
6.093666e-01
5.995599e-01
5.899711e-01
5.810457e-01
0.000000e+00
1.000000e+00
5.817114e-01
5.913752e-01
6.017574e-01
6.123755e-01
6.224441e-01
6.309052e-01
6.366066e-01
6.386258e-01
6.366066e-01
6.309052e-01
6.224441e-01
6.123755e-01
6.017574e-01
5.913752e-01
5.817114e-01
0.000000e+00
1.000000e+00
5.821556e-01
5.923123e-01
6.032239e-01
6.143835e-01
6.249656e-01
6.338581e-01
6.398502e-01
6.419725e-01
6.398502e-01
6.338581e-01
6.249656e-01
6.143835e-01
6.032239e-01
5.923123e-01
5.821556e-01
0.000000e+00
1.000000e+00
5.823582e-01
5.927395e-01
6.038924e-01
6.152989e-01
6.261150e-01
6.352042e-01
6.413289e-01
6.434981e-01
6.413289e-01
6.352042e-01
6.261150e-01
6.152989e-01
6.038924e-01
5.927395e-01
5.823582e-01
0.000000e+00
1.000000e+00
5.823160e-01
5.926505e-01
6.037531e-01
6.151081e-01
6.258755e-01
6.349237e-01
6.410208e-01
6.431802e-01
6.410208e-01
6.349237e-01
6.258755e-01
6.151081e-01
6.037531e-01
5.926505e-01
5.823160e-01
0.000000e+00
1.000000e+00
5.820420e-01
5.920726e-01
6.028488e-01
6.138699e-01
6.243207e-01
6.331028e-01
6.390206e-01
6.411165e-01
6.390206e-01
6.331028e-01
6.243207e-01
6.138699e-01
6.028488e-01
5.920726e-01
5.820420e-01
0.000000e+00
1.000000e+00
5.815620e-01
5.910601e-01
6.012642e-01
6.117002e-01
6.215962e-01
6.299121e-01
6.355157e-01
6.375003e-01
6.355157e-01
6.299121e-01
6.215962e-01
6.117002e-01
6.012642e-01
5.910601e-01
5.815620e-01
0.000000e+00
1.000000e+00
5.809099e-01
5.896847e-01
5.991117e-01
6.087529e-01
6.178952e-01
6.255778e-01
6.307547e-01
6.325882e-01
6.307547e-01
6.255778e-01
6.178952e-01
6.087529e-01
5.991117e-01
5.896847e-01
5.809099e-01
0.000000e+00
1.000000e+00
5.801239e-01
5.880266e-01
5.965167e-01
6.051998e-01
6.134335e-01
6.203526e-01
6.250150e-01
6.266662e-01
6.250150e-01
6.203526e-01
6.134335e-01
6.051998e-01
5.965167e-01
5.880266e-01
5.801239e-01
0.000000e+00
1.000000e+00
5.739725e-01
5.750513e-01
5.762104e-01
5.773957e-01
5.785197e-01
5.794643e-01
5.801008e-01
5.803262e-01
5.801008e-01
5.794643e-01
5.785197e-01
5.773957e-01
5.762104e-01
5.750513e-01
5.739725e-01
0.000000e+00
1.000000e+00
5.747678e-01
5.767289e-01
5.788357e-01
5.809905e-01
5.830337e-01
5.847507e-01
5.859077e-01
5.863174e-01
5.859077e-01
5.847507e-01
5.830337e-01
5.809905e-01
5.788357e-01
5.767289e-01
5.747678e-01
0.000000e+00
1.000000e+00
5.756870e-01
5.786678e-01
5.818702e-01
5.851453e-01
5.882510e-01
5.908608e-01
5.926194e-01
5.932422e-01
5.926194e-01
5.908608e-01
5.882510e-01
5.851453e-01
5.818702e-01
5.786678e-01
5.756870e-01
0.000000e+00
1.000000e+00
5.767086e-01
5.808227e-01
5.852426e-01
5.897630e-01
5.940494e-01
5.976514e-01
6.000787e-01
6.009383e-01
6.000787e-01
5.976514e-01
5.940494e-01
5.897630e-01
5.852426e-01
5.808227e-01
5.767086e-01
0.000000e+00
1.000000e+00
5.777982e-01
5.831211e-01
5.888396e-01
5.946880e-01
6.002338e-01
6.048941e-01
6.080345e-01
6.091467e-01
6.080345e-01
6.048941e-01
6.002338e-01
5.946880e-01
5.888396e-01
5.831211e-01
5.777982e-01
0.000000e+00
1.000000e+00
5.789091e-01
5.854642e-01
5.925066e-01
5.997090e-01
6.065387e-01
6.122779e-01
6.161453e-01
6.175150e-01
6.161453e-01
6.122779e-01
6.065387e-01
5.997090e-01
5.925066e-01
5.854642e-01
5.789091e-01
0.000000e+00
1.000000e+00
5.799846e-01
5.877327e-01
5.960568e-01
6.045701e-01
6.126429e-01
6.194267e-01
6.239979e-01
6.256169e-01
6.239979e-01
6.194267e-01
6.126429e-01
6.045701e-01
5.960568e-01
5.877327e-01
5.799846e-01
0.000000e+00
1.000000e+00
5.809631e-01
5.897968e-01
5.992871e-01
6.089931e-01
6.181968e-01
6.259310e-01
6.311427e-01
6.329885e-01
6.311427e-01
6.259310e-01
6.181968e-01
6.089931e-01
5.992871e-01
5.897968e-01
5.809631e-01
0.000000e+00
1.000000e+00
5.817847e-01
5.915298e-01
6.019993e-01
6.127067e-01
6.228601e-01
6.313923e-01
6.371417e-01
6.391779e-01
6.371417e-01
6.313923e-01
6.228601e-01
6.127067e-01
6.019993e-01
5.915298e-01
5.817847e-01
0.000000e+00
1.000000e+00
5.823980e-01
5.928235e-01
6.040240e-01
6.154790e-01
6.263412e-01
6.354691e-01
6.416199e-01
6.437983e-01
6.416199e-01
6.354691e-01
6.263412e-01
6.154790e-01
6.040240e-01
5.928235e-01
5.823980e-01
0.000000e+00
1.000000e+00
5.827665e-01
5.936009e-01
6.052405e-01
6.171447e-01
6.284328e-01
6.379187e-01
6.443106e-01
6.465745e-01
6.443106e-01
6.379187e-01
6.284328e-01
6.171447e-01
6.052405e-01
5.936009e-01
5.827665e-01
0.000000e+00
1.000000e+00
5.828724e-01
5.938242e-01
6.055900e-01
6.176232e-01
6.290337e-01
6.386224e-01
6.450837e-01
6.473720e-01
6.450837e-01
6.386224e-01
6.290337e-01
6.176232e-01
6.055900e-01
5.938242e-01
5.828724e-01
0.000000e+00
1.000000e+00
5.827173e-01
5.934970e-01
6.050780e-01
6.169222e-01
6.281534e-01
6.375914e-01
6.439512e-01
6.462036e-01
6.439512e-01
6.375914e-01
6.281534e-01
6.169222e-01
6.050780e-01
5.934970e-01
5.827173e-01
0.000000e+00
1.000000e+00
5.823203e-01
5.926597e-01
6.037676e-01
6.151279e-01
6.259003e-01
6.349528e-01
6.410528e-01
6.432132e-01
6.410528e-01
6.349528e-01
6.259003e-01
6.151279e-01
6.037676e-01
5.926597e-01
5.823203e-01
0.000000e+00
1.000000e+00
5.817138e-01
5.913804e-01
6.017654e-01
6.123865e-01
6.224579e-01
6.309213e-01
6.366243e-01
6.386441e-01
6.366243e-01
6.309213e-01
6.224579e-01
6.123865e-01
6.017654e-01
5.913804e-01
5.817138e-01
0.000000e+00
1.000000e+00
5.809381e-01
5.897440e-01
5.992045e-01
6.088800e-01
6.180548e-01
6.257647e-01
6.309600e-01
6.328000e-01
6.309600e-01
6.257647e-01
6.180548e-01
6.088800e-01
5.992045e-01
5.897440e-01
5.809381e-01
0.000000e+00
1.000000e+00
5.800362e-01
5.878417e-01
5.962274e-01
6.048036e-01
6.129360e-01
6.197700e-01
6.243751e-01
6.260060e-01
6.243751e-01
6.197700e-01
6.129360e-01
6.048036e-01
5.962274e-01
5.878417e-01
5.800362e-01
0.000000e+00
1.000000e+00
5.745063e-01
5.761773e-01
5.779725e-01
5.798085e-01
5.815495e-01
5.830125e-01
5.839984e-01
5.843475e-01
5.839984e-01
5.830125e-01
5.815495e-01
5.798085e-01
5.779725e-01
5.761773e-01
5.745063e-01
0.000000e+00
1.000000e+00
5.753205e-01
5.778947e-01
5.806602e-01
5.834885e-01
5.861705e-01
5.884243e-01
5.899430e-01
5.904809e-01
5.899430e-01
5.884243e-01
5.861705e-01
5.834885e-01
5.806602e-01
5.778947e-01
5.753205e-01
0.000000e+00
1.000000e+00
5.762601e-01
5.798766e-01
5.837620e-01
5.877356e-01
5.915036e-01
5.946700e-01
5.968037e-01
5.975593e-01
5.968037e-01
5.946700e-01
5.915036e-01
5.877356e-01
5.837620e-01
5.798766e-01
5.762601e-01
0.000000e+00
1.000000e+00
5.773021e-01
5.820746e-01
5.872018e-01
5.924455e-01
5.974179e-01
6.015963e-01
6.044120e-01
6.054092e-01
6.044120e-01
6.015963e-01
5.974179e-01
5.924455e-01
5.872018e-01
5.820746e-01
5.773021e-01
0.000000e+00
1.000000e+00
5.784095e-01
5.844104e-01
5.908574e-01
5.974509e-01
6.037031e-01
6.089571e-01
6.124975e-01
6.137514e-01
6.124975e-01
6.089571e-01
6.037031e-01
5.974509e-01
5.908574e-01
5.844104e-01
5.784095e-01
0.000000e+00
1.000000e+00
5.795317e-01
5.867775e-01
5.945619e-01
6.025232e-01
6.100725e-01
6.164164e-01
6.206913e-01
6.222053e-01
6.206913e-01
6.164164e-01
6.100725e-01
6.025232e-01
5.945619e-01
5.867775e-01
5.795317e-01
0.000000e+00
1.000000e+00
5.806075e-01
5.890468e-01
5.981134e-01
6.073860e-01
6.161788e-01
6.235677e-01
6.285466e-01
6.303100e-01
6.285466e-01
6.235677e-01
6.161788e-01
6.073860e-01
5.981134e-01
5.890468e-01
5.806075e-01
0.000000e+00
1.000000e+00
5.815708e-01
5.910787e-01
6.012933e-01
6.117400e-01
6.216461e-01
6.299706e-01
6.355800e-01
6.375666e-01
6.355800e-01
6.299706e-01
6.216461e-01
6.117400e-01
6.012933e-01
5.910787e-01
5.815708e-01
0.000000e+00
1.000000e+00
5.823576e-01
5.927384e-01
6.038907e-01
6.152965e-01
6.261120e-01
6.352007e-01
6.413251e-01
6.434941e-01
6.413251e-01
6.352007e-01
6.261120e-01
6.152965e-01
6.038907e-01
5.927384e-01
5.823576e-01
0.000000e+00
1.000000e+00
5.829146e-01
5.939132e-01
6.057293e-01
6.178140e-01
6.292732e-01
6.389029e-01
6.453918e-01
6.476899e-01
6.453918e-01
6.389029e-01
6.292732e-01
6.178140e-01
6.057293e-01
5.939132e-01
5.829146e-01
0.000000e+00
1.000000e+00
5.832055e-01
5.945268e-01
6.066896e-01
6.191288e-01
6.309243e-01
6.408365e-01
6.475158e-01
6.498813e-01
6.475158e-01
6.408365e-01
6.309243e-01
6.191288e-01
6.066896e-01
5.945268e-01
5.832055e-01
0.000000e+00
1.000000e+00
5.832154e-01
5.945476e-01
6.067222e-01
6.191734e-01
6.309803e-01
6.409021e-01
6.475878e-01
6.499557e-01
6.475878e-01
6.409021e-01
6.309803e-01
6.191734e-01
6.067222e-01
5.945476e-01
5.832154e-01
0.000000e+00
1.000000e+00
5.829509e-01
5.939898e-01
6.058492e-01
6.179781e-01
6.294794e-01
6.391443e-01
6.456570e-01
6.479635e-01
6.456570e-01
6.391443e-01
6.294794e-01
6.179781e-01
6.058492e-01
5.939898e-01
5.829509e-01
0.000000e+00
1.000000e+00
5.824376e-01
5.929069e-01
6.041545e-01
6.156577e-01
6.265656e-01
6.357319e-01
6.419086e-01
6.440962e-01
6.419086e-01
6.357319e-01
6.265656e-01
6.156577e-01
6.041545e-01
5.929069e-01
5.824376e-01
0.000000e+00
1.000000e+00
5.817141e-01
5.913810e-01
6.017664e-01
6.123878e-01
6.224595e-01
6.309232e-01
6.366264e-01
6.386463e-01
6.366264e-01
6.309232e-01
6.224595e-01
6.123878e-01
6.017664e-01
5.913810e-01
5.817141e-01
0.000000e+00
1.000000e+00
5.808268e-01
5.895093e-01
5.988372e-01
6.083771e-01
6.174232e-01
6.250251e-01
6.301476e-01
6.319618e-01
6.301476e-01
6.250251e-01
6.174232e-01
6.083771e-01
5.988372e-01
5.895093e-01
5.808268e-01
0.000000e+00
1.000000e+00
5.798234e-01
5.873927e-01
5.955247e-01
6.038415e-01
6.117279e-01
6.183552e-01
6.228209e-01
6.244025e-01
6.228209e-01
6.183552e-01
6.117279e-01
6.038415e-01
5.955247e-01
5.873927e-01
5.798234e-01
0.000000e+00
1.000000e+00
5.748965e-01
5.770004e-01
5.792606e-01
5.815722e-01
5.837642e-01
5.856061e-01
5.868474e-01
5.872870e-01
5.868474e-01
5.856061e-01
5.837642e-01
5.815722e-01
5.792606e-01
5.770004e-01
5.748965e-01
0.000000e+00
1.000000e+00
5.757182e-01
5.787336e-01
5.819732e-01
5.852864e-01
5.884281e-01
5.910682e-01
5.928472e-01
5.934773e-01
5.928472e-01
5.910682e-01
5.884281e-01
5.852864e-01
5.819732e-01
5.787336e-01
5.757182e-01
0.000000e+00
1.000000e+00
5.766664e-01
5.807335e-01
5.851030e-01
5.895719e-01
5.938094e-01
5.973704e-01
5.997699e-01
6.006198e-01
5.997699e-01
5.973704e-01
5.938094e-01
5.895719e-01
5.851030e-01
5.807335e-01
5.766664e-01
0.000000e+00
1.000000e+00
5.777167e-01
5.829490e-01
5.885702e-01
5.943192e-01
5.997707e-01
6.043518e-01
6.074387e-01
6.085320e-01
6.074387e-01
6.043518e-01
5.997707e-01
5.943192e-01
5.885702e-01
5.829490e-01
5.777167e-01
0.000000e+00
1.000000e+00
5.788300e-01
5.852973e-01
5.922454e-01
5.993514e-01
6.060896e-01
6.117520e-01
6.155676e-01
6.169189e-01
6.155676e-01
6.117520e-01
6.060896e-01
5.993514e-01
5.922454e-01
5.852973e-01
5.788300e-01
0.000000e+00
1.000000e+00
5.799526e-01
5.876652e-01
5.959512e-01
6.044255e-01
6.124613e-01
6.192140e-01
6.237643e-01
6.253758e-01
6.237643e-01
6.192140e-01
6.124613e-01
6.044255e-01
5.959512e-01
5.876652e-01
5.799526e-01
0.000000e+00
1.000000e+00
5.810194e-01
5.899156e-01
5.994730e-01
6.092476e-01
6.185164e-01
6.263053e-01
6.315538e-01
6.334127e-01
6.315538e-01
6.263053e-01
6.185164e-01
6.092476e-01
5.994730e-01
5.899156e-01
5.810194e-01
0.000000e+00
1.000000e+00
5.819602e-01
5.919001e-01
6.025788e-01
6.135002e-01
6.238564e-01
6.325591e-01
6.384234e-01
6.405003e-01
6.384234e-01
6.325591e-01
6.238564e-01
6.135002e-01
6.025788e-01
5.919001e-01
5.819602e-01
0.000000e+00
1.000000e+00
5.827080e-01
5.934774e-01
6.050473e-01
6.168801e-01
6.281006e-01
6.375295e-01
6.438832e-01
6.461335e-01
6.438832e-01
6.375295e-01
6.281006e-01
6.168801e-01
6.050473e-01
5.934774e-01
5.827080e-01
0.000000e+00
1.000000e+00
5.832077e-01
5.945315e-01
6.066969e-01
6.191388e-01
6.309369e-01
6.408512e-01
6.475320e-01
6.498980e-01
6.475320e-01
6.408512e-01
6.309369e-01
6.191388e-01
6.066969e-01
5.945315e-01
5.832077e-01
0.000000e+00
1.000000e+00
5.834239e-01
5.949875e-01
6.074107e-01
6.201161e-01
6.321641e-01
6.422884e-01
6.491106e-01
6.515269e-01
6.491106e-01
6.422884e-01
6.321641e-01
6.201161e-01
6.074107e-01
5.949875e-01
5.834239e-01
0.000000e+00
1.000000e+00
5.833448e-01
5.948206e-01
6.071494e-01
6.197583e-01
6.317148e-01
6.417623e-01
6.485327e-01
6.509306e-01
6.485327e-01
6.417623e-01
6.317148e-01
6.197583e-01
6.071494e-01
5.948206e-01
5.833448e-01
0.000000e+00
1.000000e+00
5.829819e-01
5.940552e-01
6.059515e-01
6.181182e-01
6.296552e-01
6.393503e-01
6.458832e-01
6.481970e-01
6.458832e-01
6.393503e-01
6.296552e-01
6.181182e-01
6.059515e-01
5.940552e-01
5.829819e-01
0.000000e+00
1.000000e+00
5.823667e-01
5.927574e-01
6.039205e-01
6.153373e-01
6.261633e-01
6.352607e-01
6.413910e-01
6.435622e-01
6.413910e-01
6.352607e-01
6.261633e-01
6.153373e-01
6.039205e-01
5.927574e-01
5.823667e-01
0.000000e+00
1.000000e+00
5.815438e-01
5.910218e-01
6.012042e-01
6.116180e-01
6.214930e-01
6.297912e-01
6.353830e-01
6.373634e-01
6.353830e-01
6.297912e-01
6.214930e-01
6.116180e-01
6.012042e-01
5.910218e-01
5.815438e-01
0.000000e+00
1.000000e+00
5.805646e-01
5.889562e-01
5.979717e-01
6.071919e-01
6.159351e-01
6.232823e-01
6.282331e-01
6.299866e-01
6.282331e-01
6.232823e-01
6.159351e-01
6.071919e-01
5.979717e-01
5.889562e-01
5.805646e-01
0.000000e+00
1.000000e+00
5.794805e-01
5.866695e-01
5.943929e-01
6.022918e-01
6.097820e-01
6.160762e-01
6.203175e-01
6.218197e-01
6.203175e-01
6.160762e-01
6.097820e-01
6.022918e-01
5.943929e-01
5.866695e-01
5.794805e-01
0.000000e+00
1.000000e+00
5.751073e-01
5.774449e-01
5.799563e-01
5.825248e-01
5.849603e-01
5.870070e-01
5.883862e-01
5.888746e-01
5.883862e-01
5.870070e-01
5.849603e-01
5.825248e-01
5.799563e-01
5.774449e-01
5.751073e-01
0.000000e+00
1.000000e+00
5.759215e-01
5.791625e-01
5.826444e-01
5.862053e-01
5.895820e-01
5.924196e-01
5.943317e-01
5.950089e-01
5.943317e-01
5.924196e-01
5.895820e-01
5.862053e-01
5.826444e-01
5.791625e-01
5.759215e-01
0.000000e+00
1.000000e+00
5.768624e-01
5.811471e-01
5.857503e-01
5.904581e-01
5.949222e-01
5.986736e-01
6.012015e-01
6.020968e-01
6.012015e-01
5.986736e-01
5.949222e-01
5.904581e-01
5.857503e-01
5.811471e-01
5.768624e-01
0.000000e+00
1.000000e+00
5.779051e-01
5.833465e-01
5.891923e-01
5.951710e-01
6.008403e-01
6.056045e-01
6.088147e-01
6.099517e-01
6.088147e-01
6.056045e-01
6.008403e-01
5.951710e-01
5.891923e-01
5.833465e-01
5.779051e-01
0.000000e+00
1.000000e+00
5.790091e-01
5.856752e-01
5.928368e-01
6.001611e-01
6.071064e-01
6.129428e-01
6.168756e-01
6.182685e-01
6.168756e-01
6.129428e-01
6.071064e-01
6.001611e-01
5.928368e-01
5.856752e-01
5.790091e-01
0.000000e+00
1.000000e+00
5.801185e-01
5.880153e-01
5.964991e-01
6.051756e-01
6.134032e-01
6.203171e-01
6.249760e-01
6.266260e-01
6.249760e-01
6.203171e-01
6.134032e-01
6.051756e-01
5.964991e-01
5.880153e-01
5.801185e-01
0.000000e+00
1.000000e+00
5.811655e-01
5.902237e-01
5.999552e-01
6.099079e-01
6.193456e-01
6.272763e-01
6.326205e-01
6.345132e-01
6.326205e-01
6.272763e-01
6.193456e-01
6.099079e-01
5.999552e-01
5.902237e-01
5.811655e-01
0.000000e+00
1.000000e+00
5.820768e-01
5.921461e-01
6.029638e-01
6.140273e-01
6.245183e-01
6.333343e-01
6.392749e-01
6.413788e-01
6.392749e-01
6.333343e-01
6.245183e-01
6.140273e-01
6.029638e-01
5.921461e-01
5.820768e-01
0.000000e+00
1.000000e+00
5.827833e-01
5.936361e-01
6.052957e-01
6.172203e-01
6.285278e-01
6.380298e-01
6.444328e-01
6.467005e-01
6.444328e-01
6.380298e-01
6.285278e-01
6.172203e-01
6.052957e-01
5.936361e-01
5.827833e-01
0.000000e+00
1.000000e+00
5.832289e-01
5.945760e-01
6.067667e-01
6.192344e-01
6.310569e-01
6.409917e-01
6.476863e-01
6.500573e-01
6.476863e-01
6.409917e-01
6.310569e-01
6.192344e-01
6.067667e-01
5.945760e-01
5.832289e-01
0.000000e+00
1.000000e+00
5.833792e-01
5.948931e-01
6.072629e-01
6.199138e-01
6.319100e-01
6.419908e-01
6.487838e-01
6.511896e-01
6.487838e-01
6.419908e-01
6.319100e-01
6.199138e-01
6.072629e-01
5.948931e-01
5.833792e-01
0.000000e+00
1.000000e+00
5.832252e-01
5.945684e-01
6.067547e-01
6.192180e-01
6.310363e-01
6.409676e-01
6.476598e-01
6.500299e-01
6.476598e-01
6.409676e-01
6.310363e-01
6.192180e-01
6.067547e-01
5.945684e-01
5.832252e-01
0.000000e+00
1.000000e+00
5.827830e-01
5.936357e-01
6.052950e-01
6.172193e-01
6.285265e-01
6.380284e-01
6.444312e-01
6.466989e-01
6.444312e-01
6.380284e-01
6.285265e-01
6.172193e-01
6.052950e-01
5.936357e-01
5.827830e-01
0.000000e+00
1.000000e+00
5.820889e-01
5.921715e-01
6.030036e-01
6.140818e-01
6.245868e-01
6.334145e-01
6.393630e-01
6.414697e-01
6.393630e-01
6.334145e-01
6.245868e-01
6.140818e-01
6.030036e-01
5.921715e-01
5.820889e-01
0.000000e+00
1.000000e+00
5.811923e-01
5.902803e-01
6.000438e-01
6.100292e-01
6.194978e-01
6.274547e-01
6.328163e-01
6.347153e-01
6.328163e-01
6.274547e-01
6.194978e-01
6.100292e-01
6.000438e-01
5.902803e-01
5.811923e-01
0.000000e+00
1.000000e+00
5.801482e-01
5.880780e-01
5.965972e-01
6.053100e-01
6.135719e-01
6.205147e-01
6.251930e-01
6.268500e-01
6.251930e-01
6.205147e-01
6.135719e-01
6.053100e-01
5.965972e-01
5.880780e-01
5.801482e-01
0.000000e+00
1.000000e+00
5.790107e-01
5.856786e-01
5.928420e-01
6.001683e-01
6.071155e-01
6.129534e-01
6.168873e-01
6.182805e-01
6.168873e-01
6.129534e-01
6.071155e-01
6.001683e-01
5.928420e-01
5.856786e-01
5.790107e-01
0.000000e+00
1.000000e+00
5.751091e-01
5.774488e-01
5.799624e-01
5.825332e-01
5.849709e-01
5.870194e-01
5.883997e-01
5.888886e-01
5.883997e-01
5.870194e-01
5.849709e-01
5.825332e-01
5.799624e-01
5.774488e-01
5.751091e-01
0.000000e+00
1.000000e+00
5.758980e-01
5.791128e-01
5.825666e-01
5.860988e-01
5.894483e-01
5.922630e-01
5.941596e-01
5.948314e-01
5.941596e-01
5.922630e-01
5.894483e-01
5.860988e-01
5.825666e-01
5.791128e-01
5.758980e-01
0.000000e+00
1.000000e+00
5.768128e-01
5.810424e-01
5.855865e-01
5.902338e-01
5.946406e-01
5.983438e-01
6.008392e-01
6.017230e-01
6.008392e-01
5.983438e-01
5.946406e-01
5.902338e-01
5.855865e-01
5.810424e-01
5.768128e-01
0.000000e+00
1.000000e+00
5.778290e-01
5.831860e-01
5.889411e-01
5.948271e-01
6.004084e-01
6.050986e-01
6.082591e-01
6.093784e-01
6.082591e-01
6.050986e-01
6.004084e-01
5.948271e-01
5.889411e-01
5.831860e-01
5.778290e-01
0.000000e+00
1.000000e+00
5.789059e-01
5.854574e-01
5.924959e-01
5.996944e-01
6.065204e-01
6.122565e-01
6.161218e-01
6.174907e-01
6.161218e-01
6.122565e-01
6.065204e-01
5.996944e-01
5.924959e-01
5.854574e-01
5.789059e-01
0.000000e+00
1.000000e+00
5.799866e-01
5.877372e-01
5.960638e-01
6.045796e-01
6.126547e-01
6.194406e-01
6.240132e-01
6.256326e-01
6.240132e-01
6.194406e-01
6.126547e-01
6.045796e-01
5.960638e-01
5.877372e-01
5.799866e-01
0.000000e+00
1.000000e+00
5.810022e-01
5.898793e-01
5.994163e-01
6.091700e-01
6.184190e-01
6.261912e-01
6.314285e-01
6.332833e-01
6.314285e-01
6.261912e-01
6.184190e-01
6.091700e-01
5.994163e-01
5.898793e-01
5.810022e-01
0.000000e+00
1.000000e+00
5.818780e-01
5.917266e-01
6.023073e-01
6.131285e-01
6.233896e-01
6.320124e-01
6.378229e-01
6.398807e-01
6.378229e-01
6.320124e-01
6.233896e-01
6.131285e-01
6.023073e-01
5.917266e-01
5.818780e-01
0.000000e+00
1.000000e+00
5.825435e-01
5.931304e-01
6.045042e-01
6.161365e-01
6.271668e-01
6.364360e-01
6.426820e-01
6.448941e-01
6.426820e-01
6.364360e-01
6.271668e-01
6.161365e-01
6.045042e-01
5.931304e-01
5.825435e-01
0.000000e+00
1.000000e+00
5.829426e-01
5.939723e-01
6.058218e-01
6.179406e-01
6.294322e-01
6.390891e-01
6.455963e-01
6.479009e-01
6.455963e-01
6.390891e-01
6.294322e-01
6.179406e-01
6.058218e-01
5.939723e-01
5.829426e-01
0.000000e+00
1.000000e+00
5.830420e-01
5.941819e-01
6.061498e-01
6.183897e-01
6.299962e-01
6.397495e-01
6.463218e-01
6.486495e-01
6.463218e-01
6.397495e-01
6.299962e-01
6.183897e-01
6.061498e-01
5.941819e-01
5.830420e-01
0.000000e+00
1.000000e+00
5.828349e-01
5.937450e-01
6.054661e-01
6.174536e-01
6.288207e-01
6.383729e-01
6.448096e-01
6.470893e-01
6.448096e-01
6.383729e-01
6.288207e-01
6.174536e-01
6.054661e-01
5.937450e-01
5.828349e-01
0.000000e+00
1.000000e+00
5.823404e-01
5.927020e-01
6.038338e-01
6.152186e-01
6.260142e-01
6.350862e-01
6.411993e-01
6.433643e-01
6.411993e-01
6.350862e-01
6.260142e-01
6.152186e-01
6.038338e-01
5.927020e-01
5.823404e-01
0.000000e+00
1.000000e+00
5.815982e-01
5.911365e-01
6.013838e-01
6.118639e-01
6.218018e-01
6.301529e-01
6.357802e-01
6.377732e-01
6.357802e-01
6.301529e-01
6.218018e-01
6.118639e-01
6.013838e-01
5.911365e-01
5.815982e-01
0.000000e+00
1.000000e+00
5.806608e-01
5.891591e-01
5.982891e-01
6.076266e-01
6.164808e-01
6.239214e-01
6.289352e-01
6.307109e-01
6.289352e-01
6.239214e-01
6.164808e-01
6.076266e-01
5.982891e-01
5.891591e-01
5.806608e-01
0.000000e+00
1.000000e+00
5.795851e-01
5.868902e-01
5.947382e-01
6.027647e-01
6.103757e-01
6.167716e-01
6.210814e-01
6.226078e-01
6.210814e-01
6.167716e-01
6.103757e-01
6.027647e-01
5.947382e-01
5.868902e-01
5.795851e-01
0.000000e+00
1.000000e+00
5.784264e-01
5.844460e-01
5.909131e-01
5.975272e-01
6.037990e-01
6.090694e-01
6.126208e-01
6.138786e-01
6.126208e-01
6.090694e-01
6.037990e-01
5.975272e-01
5.909131e-01
5.844460e-01
5.784264e-01
0.000000e+00
1.000000e+00
5.748835e-01
5.769729e-01
5.792176e-01
5.815134e-01
5.836903e-01
5.855197e-01
5.867524e-01
5.871890e-01
5.867524e-01
5.855197e-01
5.836903e-01
5.815134e-01
5.792176e-01
5.769729e-01
5.748835e-01
0.000000e+00
1.000000e+00
5.756275e-01
5.785422e-01
5.816736e-01
5.848762e-01
5.879130e-01
5.904649e-01
5.921846e-01
5.927936e-01
5.921846e-01
5.904649e-01
5.879130e-01
5.848762e-01
5.816736e-01
5.785422e-01
5.756275e-01
0.000000e+00
1.000000e+00
5.764960e-01
5.803741e-01
5.845406e-01
5.888017e-01
5.928423e-01
5.962378e-01
5.985258e-01
5.993362e-01
5.985258e-01
5.962378e-01
5.928423e-01
5.888017e-01
5.845406e-01
5.803741e-01
5.764960e-01
0.000000e+00
1.000000e+00
5.774655e-01
5.824193e-01
5.877412e-01
5.931841e-01
5.983453e-01
6.026825e-01
6.056051e-01
6.066402e-01
6.056051e-01
6.026825e-01
5.983453e-01
5.931841e-01
5.877412e-01
5.824193e-01
5.774655e-01
0.000000e+00
1.000000e+00
5.784964e-01
5.845938e-01
5.911444e-01
5.978439e-01
6.041966e-01
6.095351e-01
6.131324e-01
6.144064e-01
6.131324e-01
6.095351e-01
6.041966e-01
5.978439e-01
5.911444e-01
5.845938e-01
5.784964e-01
0.000000e+00
1.000000e+00
5.795328e-01
5.867799e-01
5.945657e-01
6.025284e-01
6.100791e-01
6.164241e-01
6.206997e-01
6.222140e-01
6.206997e-01
6.164241e-01
6.100791e-01
6.025284e-01
5.945657e-01
5.867799e-01
5.795328e-01
0.000000e+00
1.000000e+00
5.805061e-01
5.888329e-01
5.977786e-01
6.069276e-01
6.156032e-01
6.228936e-01
6.278062e-01
6.295461e-01
6.278062e-01
6.228936e-01
6.156032e-01
6.069276e-01
5.977786e-01
5.888329e-01
5.805061e-01
0.000000e+00
1.000000e+00
5.813420e-01
5.905960e-01
6.005378e-01
6.107056e-01
6.203473e-01
6.284495e-01
6.339091e-01
6.358427e-01
6.339091e-01
6.284495e-01
6.203473e-01
6.107056e-01
6.005378e-01
5.905960e-01
5.813420e-01
0.000000e+00
1.000000e+00
5.819701e-01
5.919210e-01
6.026115e-01
6.135450e-01
6.239127e-01
6.326250e-01
6.384958e-01
6.405750e-01
6.384958e-01
6.326250e-01
6.239127e-01
6.135450e-01
6.026115e-01
5.919210e-01
5.819701e-01
0.000000e+00
1.000000e+00
5.823351e-01
5.926907e-01
6.038161e-01
6.151944e-01
6.259838e-01
6.350506e-01
6.411601e-01
6.433240e-01
6.411601e-01
6.350506e-01
6.259838e-01
6.151944e-01
6.038161e-01
5.926907e-01
5.823351e-01
0.000000e+00
1.000000e+00
5.824041e-01
5.928363e-01
6.040439e-01
6.155063e-01
6.263755e-01
6.355092e-01
6.416640e-01
6.438438e-01
6.416640e-01
6.355092e-01
6.263755e-01
6.155063e-01
6.040439e-01
5.928363e-01
5.824041e-01
0.000000e+00
1.000000e+00
5.821717e-01
5.923461e-01
6.032767e-01
6.144558e-01
6.250564e-01
6.339645e-01
6.399671e-01
6.420930e-01
6.399671e-01
6.339645e-01
6.250564e-01
6.144558e-01
6.032767e-01
5.923461e-01
5.821717e-01
0.000000e+00
1.000000e+00
5.816583e-01
5.912632e-01
6.015821e-01
6.121355e-01
6.221428e-01
6.305522e-01
6.362189e-01
6.382259e-01
6.362189e-01
6.305522e-01
6.221428e-01
6.121355e-01
6.015821e-01
5.912632e-01
5.816583e-01
0.000000e+00
1.000000e+00
5.809049e-01
5.896740e-01
5.990949e-01
6.087300e-01
6.178664e-01
6.255441e-01
6.307176e-01
6.325499e-01
6.307176e-01
6.255441e-01
6.178664e-01
6.087300e-01
5.990949e-01
5.896740e-01
5.809049e-01
0.000000e+00
1.000000e+00
5.799645e-01
5.876905e-01
5.959908e-01
6.044797e-01
6.125293e-01
6.192936e-01
6.238518e-01
6.254661e-01
6.238518e-01
6.192936e-01
6.125293e-01
6.044797e-01
5.959908e-01
5.876905e-01
5.799645e-01
0.000000e+00
1.000000e+00
5.788946e-01
5.854337e-01
5.924588e-01
5.996436e-01
6.064566e-01
6.121818e-01
6.160397e-01
6.174061e-01
6.160397e-01
6.121818e-01
6.064566e-01
5.996436e-01
5.924588e-01
5.854337e-01
5.788946e-01
0.000000e+00
1.000000e+00
5.777498e-01
5.830188e-01
5.886795e-01
5.944688e-01
5.999586e-01
6.045718e-01
6.076804e-01
6.087814e-01
6.076804e-01
6.045718e-01
5.999586e-01
5.944688e-01
5.886795e-01
5.830188e-01
5.777498e-01
0.000000e+00
1.000000e+00
5.744265e-01
5.760090e-01
5.777092e-01
5.794479e-01
5.810967e-01
5.824823e-01
5.834159e-01
5.837466e-01
5.834159e-01
5.824823e-01
5.810967e-01
5.794479e-01
5.777092e-01
5.760090e-01
5.744265e-01
0.000000e+00
1.000000e+00
5.751068e-01
5.774440e-01
5.799549e-01
5.825229e-01
5.849580e-01
5.870043e-01
5.883831e-01
5.888715e-01
5.883831e-01
5.870043e-01
5.849580e-01
5.825229e-01
5.799549e-01
5.774440e-01
5.751068e-01
0.000000e+00
1.000000e+00
5.759096e-01
5.791372e-01
5.826048e-01
5.861512e-01
5.895141e-01
5.923400e-01
5.942443e-01
5.949187e-01
5.942443e-01
5.923400e-01
5.895141e-01
5.861512e-01
5.826048e-01
5.791372e-01
5.759096e-01
0.000000e+00
1.000000e+00
5.768134e-01
5.810436e-01
5.855883e-01
5.902363e-01
5.946438e-01
5.983475e-01
6.008433e-01
6.017272e-01
6.008433e-01
5.983475e-01
5.946438e-01
5.902363e-01
5.855883e-01
5.810436e-01
5.768134e-01
0.000000e+00
1.000000e+00
5.777809e-01
5.830845e-01
5.887823e-01
5.946096e-01
6.001354e-01
6.047789e-01
6.079079e-01
6.090161e-01
6.079079e-01
6.047789e-01
6.001354e-01
5.946096e-01
5.887823e-01
5.830845e-01
5.777809e-01
0.000000e+00
1.000000e+00
5.787589e-01
5.851474e-01
5.920108e-01
5.990302e-01
6.056863e-01
6.112797e-01
6.150487e-01
6.163836e-01
6.150487e-01
6.112797e-01
6.056863e-01
5.990302e-01
5.920108e-01
5.851474e-01
5.787589e-01
0.000000e+00
1.000000e+00
5.796812e-01
5.870928e-01
5.950554e-01
6.031989e-01
6.109210e-01
6.174101e-01
6.217828e-01
6.233314e-01
6.217828e-01
6.174101e-01
6.109210e-01
6.031989e-01
5.950554e-01
5.870928e-01
5.796812e-01
0.000000e+00
1.000000e+00
5.804755e-01
5.887684e-01
5.976777e-01
6.067894e-01
6.154296e-01
6.226903e-01
6.275829e-01
6.293156e-01
6.275829e-01
6.226903e-01
6.154296e-01
6.067894e-01
5.976777e-01
5.887684e-01
5.804755e-01
0.000000e+00
1.000000e+00
5.810734e-01
5.900294e-01
5.996512e-01
6.094916e-01
6.188228e-01
6.266641e-01
6.319480e-01
6.338193e-01
6.319480e-01
6.266641e-01
6.188228e-01
6.094916e-01
5.996512e-01
5.900294e-01
5.810734e-01
0.000000e+00
1.000000e+00
5.814200e-01
5.907607e-01
6.007956e-01
6.110585e-01
6.207904e-01
6.289684e-01
6.344792e-01
6.364309e-01
6.344792e-01
6.289684e-01
6.207904e-01
6.110585e-01
6.007956e-01
5.907607e-01
5.814200e-01
0.000000e+00
1.000000e+00
5.814833e-01
5.908941e-01
6.010044e-01
6.113445e-01
6.211494e-01
6.293889e-01
6.349410e-01
6.369074e-01
6.349410e-01
6.293889e-01
6.211494e-01
6.113445e-01
6.010044e-01
5.908941e-01
5.814833e-01
0.000000e+00
1.000000e+00
5.812574e-01
5.904176e-01
6.002587e-01
6.103235e-01
6.198674e-01
6.278875e-01
6.332918e-01
6.352058e-01
6.332918e-01
6.278875e-01
6.198674e-01
6.103235e-01
6.002587e-01
5.904176e-01
5.812574e-01
0.000000e+00
1.000000e+00
5.807621e-01
5.893729e-01
5.986236e-01
6.080847e-01
6.170561e-01
6.245951e-01
6.296752e-01
6.314744e-01
6.296752e-01
6.245951e-01
6.170561e-01
6.080847e-01
5.986236e-01
5.893729e-01
5.807621e-01
0.000000e+00
1.000000e+00
5.800370e-01
5.878434e-01
5.962300e-01
6.048072e-01
6.129405e-01
6.197753e-01
6.243808e-01
6.260119e-01
6.243808e-01
6.197753e-01
6.129405e-01
6.048072e-01
5.962300e-01
5.878434e-01
5.800370e-01
0.000000e+00
1.000000e+00
5.791337e-01
5.859380e-01
5.932481e-01
6.007243e-01
6.078137e-01
6.137711e-01
6.177855e-01
6.192072e-01
6.177855e-01
6.137711e-01
6.078137e-01
6.007243e-01
5.932481e-01
5.859380e-01
5.791337e-01
0.000000e+00
1.000000e+00
5.781078e-01
5.837740e-01
5.898613e-01
5.960870e-01
6.019906e-01
6.069515e-01
6.102944e-01