<?xml version="1.0"?>
<VTKFile type="StructuredGrid" version="0.1">
  <StructuredGrid WholeExtent="0 16 0 16 0 16">
    <Piece Extent="0 16 0 16 0 16">
      <PointData Scalars="temperature" Vectors="velocity">
        <DataArray type="Float32" Name="temperature" format="ascii">
1.000000e+00
5.731976e-01
5.730270e-01
5.731170e-01
5.731575e-01
5.731954e-01
5.732272e-01
5.732487e-01
5.732565e-01
5.732490e-01
5.732274e-01
5.731957e-01
5.731573e-01
5.731171e-01
5.730958e-01
5.728440e-01
0.000000e+00
1.000000e+00
5.732392e-01
5.731909e-01
5.733694e-01
5.735046e-01
5.736322e-01
5.737389e-01
5.738100e-01
5.738345e-01
5.738101e-01
5.737397e-01
5.736321e-01
5.735034e-01
5.733682e-01
5.732603e-01
5.729476e-01
0.000000e+00
1.000000e+00
5.733398e-01
5.733893e-01
5.736625e-01
5.739043e-01
5.741348e-01
5.743293e-01
5.744597e-01
5.745059e-01
5.744594e-01
5.743284e-01
5.741405e-01
5.739138e-01
5.736711e-01
5.734287e-01
5.730241e-01
0.000000e+00
1.000000e+00
5.734423e-01
5.735994e-01
5.739825e-01
5.743410e-01
5.746838e-01
5.749743e-01
5.751729e-01
5.752475e-01
5.751772e-01
5.749905e-01
5.747111e-01
5.743711e-01
5.740065e-01
5.736438e-01
5.731290e-01
0.000000e+00
1.000000e+00
5.735410e-01
5.738058e-01
5.743178e-01
5.748049e-01
5.752685e-01
5.756607e-01
5.759299e-01
5.760321e-01
5.759726e-01
5.757316e-01
5.753465e-01
5.748757e-01
5.743724e-01
5.738769e-01
5.732416e-01
0.000000e+00
1.000000e+00
5.736576e-01
5.740116e-01
5.746518e-01
5.752587e-01
5.758372e-01
5.763271e-01
5.766642e-01
5.768019e-01
5.767811e-01
5.765204e-01
5.760245e-01
5.754152e-01
5.747616e-01
5.741184e-01
5.733538e-01
0.000000e+00
1.000000e+00
5.737664e-01
5.742261e-01
5.749760e-01
5.756895e-01
5.763720e-01
5.769595e-01
5.773918e-01
5.776190e-01
5.775414e-01
5.772623e-01
5.766915e-01
5.759485e-01
5.751448e-01
5.743612e-01
5.734536e-01
0.000000e+00
1.000000e+00
5.738717e-01
5.744303e-01
5.752784e-01
5.760874e-01
5.768666e-01
5.775600e-01
5.780994e-01
5.783854e-01
5.782768e-01
5.779342e-01
5.773048e-01
5.764435e-01
5.754998e-01
5.745909e-01
5.731873e-01
0.000000e+00
1.000000e+00
5.739636e-01
5.746038e-01
5.755366e-01
5.764288e-01
5.773005e-01
5.780939e-01
5.787118e-01
5.790234e-01
5.789142e-01
5.785207e-01
5.778306e-01
5.768763e-01
5.758120e-01
5.747761e-01
5.726613e-01
0.000000e+00
1.000000e+00
5.740394e-01
5.747218e-01
5.757256e-01
5.766903e-01
5.776450e-01
5.785153e-01
5.791838e-01
5.795121e-01
5.794040e-01
5.789726e-01
5.782359e-01
5.772186e-01
5.760632e-01
5.748814e-01
5.725095e-01
0.000000e+00
1.000000e+00
5.740805e-01
5.747983e-01
5.758408e-01
5.768577e-01
5.778711e-01
5.787950e-01
5.794973e-01
5.798376e-01
5.797282e-01
5.792670e-01
5.785003e-01
5.774551e-01
5.762483e-01
5.749262e-01
5.726934e-01
0.000000e+00
1.000000e+00
5.741018e-01
5.748274e-01
5.758902e-01
5.769364e-01
5.779799e-01
5.789281e-01
5.796444e-01
5.799886e-01
5.798775e-01
5.793990e-01
5.786112e-01
5.775570e-01
5.763413e-01
5.749718e-01
5.730369e-01
0.000000e+00
1.000000e+00
5.741038e-01
5.748124e-01
5.758814e-01
5.769229e-01
5.779641e-01
5.789095e-01
5.796236e-01
5.799617e-01
5.798480e-01
5.793712e-01
5.785785e-01
5.775240e-01
5.763201e-01
5.750047e-01
5.735179e-01
0.000000e+00
1.000000e+00
5.740671e-01
5.747643e-01
5.758147e-01
5.768230e-01
5.778312e-01
5.787459e-01
5.794426e-01
5.797667e-01
5.796495e-01
5.791900e-01
5.784038e-01
5.773613e-01
5.761933e-01
5.749719e-01
5.737705e-01
0.000000e+00
1.000000e+00
5.740048e-01
5.746799e-01
5.756899e-01
5.766519e-01
5.776030e-01
5.784585e-01
5.791144e-01
5.794183e-01
5.792982e-01
5.788656e-01
5.780974e-01
5.770922e-01
5.759915e-01
5.748673e-01
5.736429e-01
0.000000e+00
1.000000e+00
5.739239e-01
5.745635e-01
5.755041e-01
5.764106e-01
5.772948e-01
5.780757e-01
5.786641e-01
5.789401e-01
5.788302e-01
5.784138e-01
5.776716e-01
5.767325e-01
5.757205e-01
5.747416e-01
5.736995e-01
0.000000e+00
1.000000e+00
5.738325e-01
5.744155e-01
5.752602e-01
5.760921e-01
5.768992e-01
5.776010e-01
5.781150e-01
5.783564e-01
5.782679e-01
5.778619e-01
5.771751e-01
5.763330e-01
5.754355e-01
5.745683e-01
5.740617e-01
0.000000e+00
1.000000e+00
5.732199e-01
5.731687e-01
5.733273e-01
5.734452e-01
5.735572e-01
5.736518e-01
5.737159e-01
5.737391e-01
5.737163e-01
5.736500e-01
5.735522e-01
5.734421e-01
5.733253e-01
5.732426e-01
5.729396e-01
0.000000e+00
1.000000e+00
5.732938e-01
5.733558e-01
5.735915e-01
5.738087e-01
5.740128e-01
5.741823e-01
5.742940e-01
5.743316e-01
5.742879e-01
5.741703e-01
5.740002e-01
5.737962e-01
5.735824e-01
5.734410e-01
5.729753e-01
0.000000e+00
1.000000e+00
5.734070e-01
5.735540e-01
5.738946e-01
5.742239e-01
5.745345e-01
5.747931e-01
5.749634e-01
5.750215e-01
5.749523e-01
5.747764e-01
5.745238e-01
5.742184e-01
5.738932e-01
5.736189e-01
5.730824e-01
0.000000e+00
1.000000e+00
5.735131e-01
5.737652e-01
5.742247e-01
5.746739e-01
5.751003e-01
5.754598e-01
5.757022e-01
5.757920e-01
5.756943e-01
5.754693e-01
5.751243e-01
5.746963e-01
5.742385e-01
5.738218e-01
5.731847e-01
0.000000e+00
1.000000e+00
5.736160e-01
5.739828e-01
5.745673e-01
5.751420e-01
5.756883e-01
5.761510e-01
5.764678e-01
5.765863e-01
5.765389e-01
5.762368e-01
5.757700e-01
5.752042e-01
5.746034e-01
5.740433e-01
5.733004e-01
0.000000e+00
1.000000e+00
5.737345e-01
5.741974e-01
5.749106e-01
5.756092e-01
5.762723e-01
5.768343e-01
5.772234e-01
5.774054e-01
5.773647e-01
5.770243e-01
5.764356e-01
5.757251e-01
5.749755e-01
5.742704e-01
5.734100e-01
0.000000e+00
1.000000e+00
5.738490e-01
5.744067e-01
5.752429e-01
5.760506e-01
5.768132e-01
5.774753e-01
5.779780e-01
5.782511e-01
5.781241e-01
5.777789e-01
5.770903e-01
5.762323e-01
5.753344e-01
5.744937e-01
5.735722e-01
0.000000e+00
1.000000e+00
5.739479e-01
5.745999e-01
5.755457e-01
5.764482e-01
5.773056e-01
5.780804e-01
5.786876e-01
5.789918e-01
5.788407e-01
5.784434e-01
5.776926e-01
5.766982e-01
5.756585e-01
5.747281e-01
5.737037e-01
0.000000e+00
1.000000e+00
5.740259e-01
5.747649e-01
5.757966e-01
5.767780e-01
5.777289e-01
5.786045e-01
5.792777e-01
5.795991e-01
5.794557e-01
5.789896e-01
5.781925e-01
5.771003e-01
5.759302e-01
5.749802e-01
5.732545e-01
0.000000e+00
1.000000e+00
5.740901e-01
5.748752e-01
5.759815e-01
5.770292e-01
5.780614e-01
5.790009e-01
5.797081e-01
5.800477e-01
5.799210e-01
5.793981e-01
5.785457e-01
5.774107e-01
5.761434e-01
5.751703e-01
5.724995e-01
0.000000e+00
1.000000e+00
5.741245e-01
5.749345e-01
5.760995e-01
5.771963e-01
5.782719e-01
5.792396e-01
5.799648e-01
5.803167e-01
5.801992e-01
5.796473e-01
5.787433e-01
5.775841e-01
5.762870e-01
5.752319e-01
5.724062e-01
0.000000e+00
1.000000e+00
5.741185e-01
5.749501e-01
5.761338e-01
5.772444e-01
5.783323e-01
5.793092e-01
5.800408e-01
5.803946e-01
5.802801e-01
5.797236e-01
5.788009e-01
5.776215e-01
5.763255e-01
5.752658e-01
5.724189e-01
0.000000e+00
1.000000e+00
5.741084e-01
5.749326e-01
5.760844e-01
5.771825e-01
5.782525e-01
5.792168e-01
5.799378e-01
5.802818e-01
5.801711e-01
5.796312e-01
5.787188e-01
5.775426e-01
5.762574e-01
5.751216e-01
5.726715e-01
0.000000e+00
1.000000e+00
5.740775e-01
5.748764e-01
5.759700e-01
5.770228e-01
5.780470e-01
5.789713e-01
5.796655e-01
5.799908e-01
5.798834e-01
5.793712e-01
5.784835e-01
5.773431e-01
5.761136e-01
5.750026e-01
5.734445e-01
0.000000e+00
1.000000e+00
5.740174e-01
5.747831e-01
5.758039e-01
5.767886e-01
5.777405e-01
5.785952e-01
5.792414e-01
5.795434e-01
5.794398e-01
5.789583e-01
5.781124e-01
5.770392e-01
5.759035e-01
5.748508e-01
5.736591e-01
0.000000e+00
1.000000e+00
5.739285e-01
5.746198e-01
5.755463e-01
5.764629e-01
5.773424e-01
5.781153e-01
5.786923e-01
5.789662e-01
5.788715e-01
5.784227e-01
5.776406e-01
5.766660e-01
5.756296e-01
5.746725e-01
5.737854e-01
0.000000e+00
1.000000e+00
5.738225e-01
5.744196e-01
5.752470e-01
5.760747e-01
5.768696e-01
5.775556e-01
5.780506e-01
5.782806e-01
5.782057e-01
5.778028e-01
5.771286e-01
5.762981e-01
5.754052e-01
5.745265e-01
5.740531e-01
0.000000e+00
1.000000e+00
5.732815e-01
5.732848e-01
5.734984e-01
5.736810e-01
5.738554e-01
5.740027e-01
5.741028e-01
5.741395e-01
5.741053e-01
5.740077e-01
5.738559e-01
5.736860e-01
5.735055e-01
5.733414e-01
5.729940e-01
0.000000e+00
1.000000e+00
5.733667e-01
5.734832e-01
5.737744e-01
5.740569e-01
5.743237e-01
5.745462e-01
5.746940e-01
5.747456e-01
5.746892e-01
5.745361e-01
5.743127e-01
5.740438e-01
5.737634e-01
5.735401e-01
5.730489e-01
0.000000e+00
1.000000e+00
5.734636e-01
5.736813e-01
5.740839e-01
5.744818e-01
5.748567e-01
5.751692e-01
5.753765e-01
5.754501e-01
5.753667e-01
5.751561e-01
5.748493e-01
5.744776e-01
5.740839e-01
5.737362e-01
5.731450e-01
0.000000e+00
1.000000e+00
5.735696e-01
5.738895e-01
5.744153e-01
5.749368e-01
5.754310e-01
5.758480e-01
5.761303e-01
5.762381e-01
5.761262e-01
5.758679e-01
5.754641e-01
5.749659e-01
5.744373e-01
5.739487e-01
5.732577e-01
0.000000e+00
1.000000e+00
5.736823e-01
5.741096e-01
5.747644e-01
5.754132e-01
5.760301e-01
5.765525e-01
5.769104e-01
5.770441e-01
5.770001e-01
5.766453e-01
5.761179e-01
5.754812e-01
5.748101e-01
5.741781e-01
5.733709e-01
0.000000e+00
1.000000e+00
5.737973e-01
5.743346e-01
5.751178e-01
5.758930e-01
5.766272e-01
5.772480e-01
5.776775e-01
5.778678e-01
5.778302e-01
5.774441e-01
5.767850e-01
5.760035e-01
5.751870e-01
5.744125e-01
5.734945e-01
0.000000e+00
1.000000e+00
5.739150e-01
5.745502e-01
5.754609e-01
5.763482e-01
5.771787e-01
5.778947e-01
5.784392e-01
5.787253e-01
5.785784e-01
5.782030e-01
5.774387e-01
5.765069e-01
5.755468e-01
5.746390e-01
5.735959e-01
0.000000e+00
1.000000e+00
5.740149e-01
5.747475e-01
5.757714e-01
5.767482e-01
5.776689e-01
5.784989e-01
5.791467e-01
5.794541e-01
5.792678e-01
5.788497e-01
5.780345e-01
5.769641e-01
5.758660e-01
5.748675e-01
5.736953e-01
0.000000e+00
1.000000e+00
5.740891e-01
5.749118e-01
5.760187e-01
5.770666e-01
5.780850e-01
5.790162e-01
5.797188e-01
5.800378e-01
5.798522e-01
5.793436e-01
5.785077e-01
5.773545e-01
5.761285e-01
5.751097e-01
5.735067e-01
0.000000e+00
1.000000e+00
5.741524e-01
5.750078e-01
5.761851e-01
5.773027e-01
5.784048e-01
5.793868e-01
5.801110e-01
5.804478e-01
5.802870e-01
5.796945e-01
5.787940e-01
5.776323e-01
5.763343e-01
5.752967e-01
5.730425e-01
0.000000e+00
1.000000e+00
5.741766e-01
5.750382e-01
5.762893e-01
5.774546e-01
5.785850e-01
5.795794e-01
5.803137e-01
5.806601e-01
5.805252e-01
5.799130e-01
5.789296e-01
5.777330e-01
5.764438e-01
5.753357e-01
5.727754e-01
0.000000e+00
1.000000e+00
5.741575e-01
5.750303e-01
5.763080e-01
5.774699e-01
5.785958e-01
5.795877e-01
5.803216e-01
5.806652e-01
5.805322e-01
5.799276e-01
5.789400e-01
5.777292e-01
5.764361e-01
5.751757e-01
5.728322e-01
0.000000e+00
1.000000e+00
5.741351e-01
5.750109e-01
5.762125e-01
5.773442e-01
5.784421e-01
5.794168e-01
5.801364e-01
5.804689e-01
5.803294e-01
5.797515e-01
5.788167e-01
5.776336e-01
5.763470e-01
5.751138e-01
5.728829e-01
0.000000e+00
1.000000e+00
5.740800e-01
5.749372e-01
5.760560e-01
5.771280e-01
5.781595e-01
5.790847e-01
5.797738e-01
5.800883e-01
5.799531e-01
5.794255e-01
5.785297e-01
5.773762e-01
5.761549e-01
5.750760e-01
5.735010e-01
0.000000e+00
1.000000e+00
5.740093e-01
5.748082e-01
5.758394e-01
5.768309e-01
5.777740e-01
5.786163e-01
5.792540e-01
5.795502e-01
5.794300e-01
5.789460e-01
5.780895e-01
5.770157e-01
5.759065e-01
5.748843e-01
5.736590e-01
0.000000e+00
1.000000e+00
5.739056e-01
5.746065e-01
5.755206e-01
5.764259e-01
5.772889e-01
5.780433e-01
5.786094e-01
5.788849e-01
5.787883e-01
5.783439e-01
5.775648e-01
5.766043e-01
5.756019e-01
5.746717e-01
5.738691e-01
0.000000e+00
1.000000e+00
5.738014e-01
5.743706e-01
5.751729e-01
5.759749e-01
5.767438e-01
5.774038e-01
5.778802e-01
5.781107e-01
5.780452e-01
5.776671e-01
5.770224e-01
5.762196e-01
5.753522e-01
5.744925e-01
5.740485e-01
0.000000e+00
1.000000e+00
5.733268e-01
5.733758e-01
5.736241e-01
5.738554e-01
5.740745e-01
5.742584e-01
5.743828e-01
5.744284e-01
5.743867e-01
5.742677e-01
5.740903e-01
5.738735e-01
5.736413e-01
5.734273e-01
5.730342e-01
0.000000e+00
1.000000e+00
5.734126e-01
5.735681e-01
5.739008e-01
5.742300e-01
5.745420e-01
5.748034e-01
5.749794e-01
5.750440e-01
5.749802e-01
5.748053e-01
5.745459e-01
5.742291e-01
5.738970e-01
5.736165e-01
5.730872e-01
0.000000e+00
1.000000e+00
5.735068e-01
5.737647e-01
5.742146e-01
5.746594e-01
5.750800e-01
5.754325e-01
5.756693e-01
5.757571e-01
5.756657e-01
5.754363e-01
5.750913e-01
5.746690e-01
5.742216e-01
5.738147e-01
5.731892e-01
0.000000e+00
1.000000e+00
5.736144e-01
5.739697e-01
5.745454e-01
5.751148e-01
5.756557e-01
5.761137e-01
5.764273e-01
5.765513e-01
5.764373e-01
5.761588e-01
5.757117e-01
5.751626e-01
5.745787e-01
5.740316e-01
5.732973e-01
0.000000e+00
1.000000e+00
5.737285e-01
5.741909e-01
5.748963e-01
5.755930e-01
5.762572e-01
5.768206e-01
5.772072e-01
5.773629e-01
5.773112e-01
5.769352e-01
5.763667e-01
5.756812e-01
5.749543e-01
5.742631e-01
5.734124e-01
0.000000e+00
1.000000e+00
5.738377e-01
5.744209e-01
5.752512e-01
5.760753e-01
5.768578e-01
5.775197e-01
5.779776e-01
5.781841e-01
5.781540e-01
5.777311e-01
5.770342e-01
5.762052e-01
5.753322e-01
5.744976e-01
5.735326e-01
0.000000e+00
1.000000e+00
5.739545e-01
5.746341e-01
5.755914e-01
5.765274e-01
5.774063e-01
5.781633e-01
5.787371e-01
5.790347e-01
5.788878e-01
5.784838e-01
5.776827e-01
5.767064e-01
5.756902e-01
5.747184e-01
5.736281e-01
0.000000e+00
1.000000e+00
5.740532e-01
5.748257e-01
5.758949e-01
5.769194e-01
5.778886e-01
5.787578e-01
5.794322e-01
5.797459e-01
5.795588e-01
5.791120e-01
5.782611e-01
5.771548e-01
5.760046e-01
5.749208e-01
5.737838e-01
0.000000e+00
1.000000e+00
5.741248e-01
5.749803e-01
5.761303e-01
5.772236e-01
5.782884e-01
5.792558e-01
5.799793e-01
5.803012e-01
5.801157e-01
5.795798e-01
5.787034e-01
5.775223e-01
5.762565e-01
5.751136e-01
5.737485e-01
0.000000e+00
1.000000e+00
5.741769e-01
5.750706e-01
5.762790e-01
5.774381e-01
5.785823e-01
5.795963e-01
5.803359e-01
5.806699e-01
5.805036e-01
5.798974e-01
5.789644e-01
5.777708e-01
5.764417e-01
5.752476e-01
5.733468e-01
0.000000e+00
1.000000e+00
5.741934e-01
5.750881e-01
5.763449e-01
5.775511e-01
5.787230e-01
5.797443e-01
5.804888e-01
5.808285e-01
5.806776e-01
5.800532e-01
5.790530e-01
5.778428e-01
5.765278e-01
5.752318e-01
5.728756e-01
0.000000e+00
1.000000e+00
5.741805e-01
5.750539e-01
5.763235e-01
5.775200e-01
5.786816e-01
5.796939e-01
5.804330e-01
5.807684e-01
5.806158e-01
5.799960e-01
5.790028e-01
5.778011e-01
5.764982e-01
5.750879e-01
5.727129e-01
0.000000e+00
1.000000e+00
5.741427e-01
5.750149e-01
5.762086e-01
5.773484e-01
5.784680e-01
5.794558e-01
5.801767e-01
5.804984e-01
5.803315e-01
5.797461e-01
5.788259e-01
5.776591e-01
5.763645e-01
5.751699e-01
5.729843e-01
0.000000e+00
1.000000e+00
5.740647e-01
5.749183e-01
5.760274e-01
5.770921e-01
5.781233e-01
5.790496e-01
5.797373e-01
5.800409e-01
5.798769e-01
5.793588e-01
5.784862e-01
5.773473e-01
5.761330e-01
5.750376e-01
5.734651e-01
0.000000e+00
1.000000e+00
5.739818e-01
5.747653e-01
5.757779e-01
5.767530e-01
5.776804e-01
5.785084e-01
5.791388e-01
5.794272e-01
5.792876e-01
5.788236e-01
5.779883e-01
5.769386e-01
5.758518e-01
5.748449e-01
5.735753e-01
0.000000e+00
1.000000e+00
5.738825e-01
5.745433e-01
5.754329e-01
5.763068e-01
5.771408e-01
5.778686e-01
5.784195e-01
5.786912e-01
5.785878e-01
5.781659e-01
5.774158e-01
5.764915e-01
5.755215e-01
5.746224e-01
5.738178e-01
0.000000e+00
1.000000e+00
5.737720e-01
5.742874e-01
5.750625e-01
5.758181e-01
5.765445e-01
5.771663e-01
5.776188e-01
5.778499e-01
5.777843e-01
5.774363e-01
5.768316e-01
5.760696e-01
5.752414e-01
5.744197e-01
5.740680e-01
0.000000e+00
1.000000e+00
5.733547e-01
5.734249e-01
5.736933e-01
5.739498e-01
5.741923e-01
5.743957e-01
5.745335e-01
5.745846e-01
5.745380e-01
5.744066e-01
5.742129e-01
5.739727e-01
5.737135e-01
5.734751e-01
5.730560e-01
0.000000e+00
1.000000e+00
5.734359e-01
5.736100e-01
5.739653e-01
5.743186e-01
5.746532e-01
5.749340e-01
5.751243e-01
5.751965e-01
5.751292e-01
5.749452e-01
5.746678e-01
5.743251e-01
5.739659e-01
5.736572e-01
5.731192e-01
0.000000e+00
1.000000e+00
5.735297e-01
5.738012e-01
5.742762e-01
5.747429e-01
5.751852e-01
5.755569e-01
5.758089e-01
5.759054e-01
5.758098e-01
5.755737e-01
5.752100e-01
5.747615e-01
5.742880e-01
5.738533e-01
5.732145e-01
0.000000e+00
1.000000e+00
5.736311e-01
5.740047e-01
5.746031e-01
5.751939e-01
5.757553e-01
5.762318e-01
5.765603e-01
5.766938e-01
5.765816e-01
5.762945e-01
5.758264e-01
5.752523e-01
5.746430e-01
5.740693e-01
5.733163e-01
0.000000e+00
1.000000e+00
5.737483e-01
5.742239e-01
5.749511e-01
5.756673e-01
5.763508e-01
5.769317e-01
5.773314e-01
5.775034e-01
5.774377e-01
5.770648e-01
5.764780e-01
5.757689e-01
5.750167e-01
5.743001e-01
5.734293e-01
0.000000e+00
1.000000e+00
5.738580e-01
5.744494e-01
5.753013e-01
5.761427e-01
5.769436e-01
5.776225e-01
5.780928e-01
5.783215e-01
5.782671e-01
5.778489e-01
5.771403e-01
5.762892e-01
5.753913e-01
5.745316e-01
5.735422e-01
0.000000e+00
1.000000e+00
5.739665e-01
5.746617e-01
5.756333e-01
5.765855e-01
5.774835e-01
5.782570e-01
5.788391e-01
5.791436e-01
5.790002e-01
5.785827e-01
5.777756e-01
5.767832e-01
5.757439e-01
5.747490e-01
5.736492e-01
0.000000e+00
1.000000e+00
5.740623e-01
5.748487e-01
5.759276e-01
5.769686e-01
5.779551e-01
5.788333e-01
5.795118e-01
5.798303e-01
5.796595e-01
5.791907e-01
5.783283e-01
5.772165e-01
5.760497e-01
5.749380e-01
5.737506e-01
0.000000e+00
1.000000e+00
5.741334e-01
5.749941e-01
5.761543e-01
5.772608e-01
5.783322e-01
5.793023e-01
5.800321e-01
5.803535e-01
5.801864e-01
5.796491e-01
5.787474e-01
5.775588e-01
5.762871e-01
5.750979e-01
5.738392e-01
0.000000e+00
1.000000e+00
5.741767e-01
5.750806e-01
5.762894e-01
5.774438e-01
5.785843e-01
5.796073e-01
5.803563e-01
5.806824e-01
5.805135e-01
5.799319e-01
5.789973e-01
5.777851e-01
5.764493e-01
5.752116e-01
5.736971e-01
0.000000e+00
1.000000e+00
5.741825e-01
5.751001e-01
5.763239e-01
5.775059e-01
5.786764e-01
5.797126e-01
5.804651e-01
5.807941e-01
5.806201e-01
5.800132e-01
5.790565e-01
5.778541e-01
5.765119e-01
5.752130e-01
5.733000e-01
0.000000e+00
1.000000e+00
5.741691e-01
5.750711e-01
5.762853e-01
5.774501e-01
5.785985e-01
5.796157e-01
5.803566e-01
5.806808e-01
5.805095e-01
5.799149e-01
5.789760e-01
5.777835e-01
5.764566e-01
5.751702e-01
5.730398e-01
0.000000e+00
1.000000e+00
5.741202e-01
5.749912e-01
5.761549e-01
5.772648e-01
5.783514e-01
5.793253e-01
5.800418e-01
5.803524e-01
5.801776e-01
5.796293e-01
5.787342e-01
5.775627e-01
5.762864e-01
5.751284e-01
5.732552e-01
0.000000e+00
1.000000e+00
5.740335e-01
5.748640e-01
5.759420e-01
5.769797e-01
5.779734e-01
5.788670e-01
5.795408e-01
5.798347e-01
5.796655e-01
5.791816e-01
5.783255e-01
5.772138e-01
5.760412e-01
5.749779e-01
5.734398e-01
0.000000e+00
1.000000e+00
5.739376e-01
5.746929e-01
5.756607e-01
5.766035e-01
5.774950e-01
5.782832e-01
5.788863e-01
5.791644e-01
5.790220e-01
5.785862e-01
5.777801e-01
5.767769e-01
5.757367e-01
5.747771e-01
5.735258e-01
0.000000e+00
1.000000e+00
5.738359e-01
5.744592e-01
5.752990e-01
5.761280e-01
5.769175e-01
5.776022e-01
5.781182e-01
5.783787e-01
5.782732e-01
5.778802e-01
5.771711e-01
5.763003e-01
5.753853e-01
5.745296e-01
5.737836e-01
0.000000e+00
1.000000e+00
5.737208e-01
5.741892e-01
5.749143e-01
5.756142e-01
5.762852e-01
5.768573e-01
5.772706e-01
5.774899e-01
5.774249e-01
5.771171e-01
5.765592e-01
5.758501e-01
5.750789e-01
5.743074e-01
5.737496e-01
0.000000e+00
1.000000e+00
5.733508e-01
5.734193e-01
5.736899e-01
5.739428e-01
5.741846e-01
5.743900e-01
5.745312e-01
5.745857e-01
5.745413e-01
5.744110e-01
5.742163e-01
5.739764e-01
5.737169e-01
5.734756e-01
5.730533e-01
0.000000e+00
1.000000e+00
5.734195e-01
5.736058e-01
5.739555e-01
5.743034e-01
5.746336e-01
5.749116e-01
5.751018e-01
5.751765e-01
5.751115e-01
5.749285e-01
5.746514e-01
5.743119e-01
5.739578e-01
5.736518e-01
5.731148e-01
0.000000e+00
1.000000e+00
5.735153e-01
5.737947e-01
5.742618e-01
5.747223e-01
5.751577e-01
5.755234e-01
5.757713e-01
5.758666e-01
5.757714e-01
5.755384e-01
5.751819e-01
5.747396e-01
5.742710e-01
5.738417e-01
5.732073e-01
0.000000e+00
1.000000e+00
5.736215e-01
5.739896e-01
5.745791e-01
5.751604e-01
5.757122e-01
5.761804e-01
5.765033e-01
5.766352e-01
5.765216e-01
5.762448e-01
5.757856e-01
5.752195e-01
5.746184e-01
5.740522e-01
5.733089e-01
0.000000e+00
1.000000e+00
5.737350e-01
5.742015e-01
5.749163e-01
5.756193e-01
5.762900e-01
5.768611e-01
5.772549e-01
5.774076e-01
5.773831e-01
5.769985e-01
5.764215e-01
5.757240e-01
5.749835e-01
5.742772e-01
5.734201e-01
0.000000e+00
1.000000e+00
5.738388e-01
5.744225e-01
5.752565e-01
5.760820e-01
5.768690e-01
5.775390e-01
5.779992e-01
5.781866e-01
5.781885e-01
5.777609e-01
5.770663e-01
5.762320e-01
5.753493e-01
5.745035e-01
5.735269e-01
0.000000e+00
1.000000e+00
5.739397e-01
5.746307e-01
5.755769e-01
5.765117e-01
5.773974e-01
5.781578e-01
5.787181e-01
5.790151e-01
5.788900e-01
5.784691e-01
5.776789e-01
5.767110e-01
5.756920e-01
5.747152e-01
5.736310e-01
0.000000e+00
1.000000e+00
5.740350e-01
5.748087e-01
5.758585e-01
5.768818e-01
5.778528e-01
5.787070e-01
5.793613e-01
5.796768e-01
5.795257e-01
5.790639e-01
5.782069e-01
5.771243e-01
5.759854e-01
5.748957e-01
5.737220e-01
0.000000e+00
1.000000e+00
5.741046e-01
5.749466e-01
5.760775e-01
5.771632e-01
5.782024e-01
5.791385e-01
5.798548e-01
5.801719e-01
5.800106e-01
5.795118e-01
5.786145e-01
5.774478e-01
5.762104e-01
5.750356e-01
5.738035e-01
0.000000e+00
1.000000e+00
5.741367e-01
5.750312e-01
5.762016e-01
5.773174e-01
5.784068e-01
5.794022e-01
5.801510e-01
5.804686e-01
5.802872e-01
5.797590e-01
5.788535e-01
5.776527e-01
5.763500e-01
5.751350e-01
5.738547e-01
0.000000e+00
1.000000e+00
5.741402e-01
5.750507e-01
5.762276e-01
5.773551e-01
5.784645e-01
5.794755e-01
5.802275e-01
5.805436e-01
5.803551e-01
5.798092e-01
5.789045e-01
5.777053e-01
5.763874e-01
5.751612e-01
5.735329e-01
0.000000e+00
1.000000e+00
5.741200e-01
5.750107e-01
5.761699e-01
5.772788e-01
5.783632e-01
5.793453e-01
5.800791e-01
5.803908e-01
5.802138e-01
5.796813e-01
5.787807e-01
5.775946e-01
5.763092e-01
5.751402e-01
5.732984e-01
0.000000e+00
1.000000e+00
5.740693e-01
5.749131e-01
5.760191e-01
5.770832e-01
5.781069e-01
5.790257e-01
5.797203e-01
5.800228e-01
5.798569e-01
5.793597e-01
5.784795e-01
5.773403e-01
5.761323e-01
5.750400e-01
5.733947e-01
0.000000e+00
1.000000e+00
5.739807e-01
5.747671e-01
5.757865e-01
5.767793e-01
5.777188e-01
5.785471e-01
5.791792e-01
5.794668e-01
5.793146e-01
5.788646e-01
5.780283e-01
5.769781e-01
5.758788e-01
5.748813e-01
5.733821e-01
0.000000e+00
1.000000e+00
5.738761e-01
5.745832e-01
5.754865e-01
5.763786e-01
5.772206e-01
5.779490e-01
5.784974e-01
5.787623e-01
5.786364e-01
5.782244e-01
5.774591e-01
5.765292e-01
5.755613e-01
5.746721e-01
5.734415e-01
0.000000e+00
1.000000e+00
5.737627e-01
5.743517e-01
5.751210e-01
5.758910e-01
5.766243e-01
5.772531e-01
5.777134e-01
5.779508e-01
5.778556e-01
5.774892e-01
5.768318e-01
5.760365e-01
5.751985e-01
5.744050e-01
5.736645e-01
0.000000e+00
1.000000e+00
5.736566e-01
5.740810e-01
5.747345e-01
5.753717e-01
5.759816e-01
5.764983e-01
5.768592e-01
5.770337e-01
5.769943e-01
5.767141e-01
5.762027e-01
5.755625e-01
5.748698e-01
5.741736e-01
5.734621e-01
0.000000e+00
1.000000e+00
5.733264e-01
5.733650e-01
5.736151e-01
5.738392e-01
5.740543e-01
5.742385e-01
5.743664e-01
5.744165e-01
5.743780e-01
5.742609e-01
5.740849e-01
5.738715e-01
5.736404e-01
5.734255e-01
5.730535e-01
0.000000e+00
1.000000e+00
5.733891e-01
5.735501e-01
5.738690e-01
5.741831e-01
5.744816e-01
5.747336e-01
5.749058e-01
5.749726e-01
5.749137e-01
5.747443e-01
5.744926e-01
5.741866e-01
5.738673e-01
5.736000e-01
5.730966e-01
0.000000e+00
1.000000e+00
5.734791e-01
5.737324e-01
5.741603e-01
5.745828e-01
5.749819e-01
5.753163e-01
5.755419e-01
5.756266e-01
5.755391e-01
5.753203e-01
5.749976e-01
5.745968e-01
5.741671e-01
5.737775e-01
5.731788e-01
0.000000e+00
1.000000e+00
5.735805e-01
5.739152e-01
5.744613e-01
5.749986e-01
5.755091e-01
5.759422e-01
5.762403e-01
5.763593e-01
5.762478e-01
5.759934e-01
5.755757e-01
5.750539e-01
5.744973e-01
5.739763e-01
5.732697e-01
0.000000e+00
1.000000e+00
5.736804e-01
5.741214e-01
5.747843e-01
5.754390e-01
5.760634e-01
5.765962e-01
5.769664e-01
5.771133e-01
5.770571e-01
5.767161e-01
5.761832e-01
5.755348e-01
5.748460e-01
5.741914e-01
5.733779e-01
0.000000e+00
1.000000e+00
5.737810e-01
5.743341e-01
5.751121e-01
5.758855e-01
5.766234e-01
5.772532e-01
5.776867e-01
5.778629e-01
5.778572e-01
5.774391e-01
5.767961e-01
5.760204e-01
5.751969e-01
5.744093e-01
5.734837e-01
0.000000e+00
1.000000e+00
5.738823e-01
5.745318e-01
5.754208e-01
5.763037e-01
5.771440e-01
5.778621e-01
5.783700e-01
5.786118e-01
5.785455e-01
5.781178e-01
5.773768e-01
5.764769e-01
5.755249e-01
5.746130e-01
5.735777e-01
0.000000e+00
1.000000e+00
5.739702e-01
5.747017e-01
5.756872e-01
5.766586e-01
5.775793e-01
5.783745e-01
5.789686e-01
5.792679e-01
5.791416e-01
5.787071e-01
5.778850e-01
5.768725e-01
5.758062e-01
5.747863e-01
5.736681e-01
0.000000e+00
1.000000e+00
5.740347e-01
5.748333e-01
5.758946e-01
5.769236e-01
5.778960e-01
5.787577e-01
5.794288e-01
5.797442e-01
5.795830e-01
5.791399e-01
5.782754e-01
5.771747e-01
5.760168e-01
5.749145e-01
5.737371e-01
0.000000e+00
1.000000e+00
5.740647e-01
5.749110e-01
5.760104e-01
5.770672e-01
5.780736e-01
5.789862e-01
5.797037e-01
5.800192e-01
5.798334e-01
5.793778e-01
5.785060e-01
5.773574e-01
5.761405e-01
5.749906e-01
5.738233e-01
0.000000e+00
1.000000e+00
5.740700e-01
5.749249e-01
5.760328e-01
5.770951e-01
5.781108e-01
5.790358e-01
5.797599e-01
5.800719e-01
5.798834e-01
5.794183e-01
5.785453e-01
5.773905e-01
5.761629e-01
5.750197e-01
5.737499e-01
0.000000e+00
1.000000e+00
5.740481e-01
5.748780e-01
5.759615e-01
5.770057e-01
5.780013e-01
5.788949e-01
5.795900e-01
5.798986e-01
5.797282e-01
5.792643e-01
5.783929e-01
5.772679e-01
5.760801e-01
5.749884e-01
5.735661e-01
0.000000e+00
1.000000e+00
5.739915e-01
5.747749e-01
5.757996e-01
5.767998e-01
5.777482e-01
5.785803e-01
5.792154e-01
5.795124e-01
5.793696e-01
5.789157e-01
5.780690e-01
5.770129e-01
5.759040e-01
5.748843e-01
5.735438e-01
0.000000e+00
1.000000e+00
5.739057e-01
5.746250e-01
5.755608e-01
5.764850e-01
5.773607e-01
5.781136e-01
5.786709e-01
5.789398e-01
5.788276e-01
5.783931e-01
5.776055e-01
5.766506e-01
5.756482e-01
5.747284e-01
5.734357e-01
0.000000e+00
1.000000e+00
5.737999e-01
5.744405e-01
5.752619e-01
5.760821e-01
5.768612e-01
5.775252e-01
5.779996e-01
5.782233e-01
5.781439e-01
5.777378e-01
5.770400e-01
5.762055e-01
5.753298e-01
5.745252e-01
5.733980e-01
0.000000e+00
1.000000e+00
5.736862e-01
5.742155e-01
5.749077e-01
5.756042e-01
5.762702e-01
5.768373e-01
5.772324e-01
5.774170e-01
5.773549e-01
5.770018e-01
5.764168e-01
5.757134e-01
5.749682e-01
5.742661e-01
5.734754e-01
0.000000e+00
1.000000e+00
5.735833e-01
5.739585e-01
5.745320e-01
5.750972e-01
5.756365e-01
5.760934e-01
5.764057e-01
5.765318e-01
5.765009e-01
5.762428e-01
5.757867e-01
5.752282e-01
5.746261e-01
5.740265e-01
5.733357e-01
0.000000e+00
1.000000e+00
5.732728e-01
5.732625e-01
5.734721e-01
5.736437e-01
5.738077e-01
5.739469e-01
5.740421e-01
5.740778e-01
5.740462e-01
5.739538e-01
5.738138e-01
5.736516e-01
5.734788e-01
5.733183e-01
5.730255e-01
0.000000e+00
1.000000e+00
5.733347e-01
5.734437e-01
5.737036e-01
5.739580e-01
5.741990e-01
5.744003e-01
5.745349e-01
5.745832e-01
5.745336e-01
5.743949e-01
5.741943e-01
5.739544e-01
5.737000e-01
5.735048e-01
5.730125e-01
0.000000e+00
1.000000e+00
5.734148e-01
5.736104e-01
5.739662e-01
5.743193e-01
5.746532e-01
5.749318e-01
5.751175e-01
5.751845e-01
5.751129e-01
5.749248e-01
5.746558e-01
5.743288e-01
5.739737e-01
5.736636e-01
5.731045e-01
0.000000e+00
1.000000e+00
5.735018e-01
5.737867e-01
5.742509e-01
5.747115e-01
5.751501e-01
5.755201e-01
5.757708e-01
5.758657e-01
5.757692e-01
5.755401e-01
5.751912e-01
5.747527e-01
5.742791e-01
5.738445e-01
5.731943e-01
0.000000e+00
1.000000e+00
5.735959e-01
5.739812e-01
5.745575e-01
5.751306e-01
5.756772e-01
5.761430e-01
5.764655e-01
5.765945e-01
5.764846e-01
5.762129e-01
5.757631e-01
5.752025e-01
5.746046e-01
5.740438e-01
5.732968e-01
0.000000e+00
1.000000e+00
5.736975e-01
5.741772e-01
5.748693e-01
5.755538e-01
5.762062e-01
5.767636e-01
5.771541e-01
5.773211e-01
5.772406e-01
5.768974e-01
5.763383e-01
5.756579e-01
5.749347e-01
5.742486e-01
5.733949e-01
0.000000e+00
1.000000e+00
5.737892e-01
5.743670e-01
5.751641e-01
5.759527e-01
5.767049e-01
5.773474e-01
5.777946e-01
5.779922e-01
5.779433e-01
5.775361e-01
5.768799e-01
5.760871e-01
5.752449e-01
5.744405e-01
5.734874e-01
0.000000e+00
1.000000e+00
5.738743e-01
5.745343e-01
5.754206e-01
5.762995e-01
5.771332e-01
5.778412e-01
5.783437e-01
5.785879e-01
5.785186e-01
5.781063e-01
5.773631e-01
5.764641e-01
5.755144e-01
5.746082e-01
5.735777e-01
0.000000e+00
1.000000e+00
5.739342e-01
5.746514e-01
5.756082e-01
5.765447e-01
5.774270e-01
5.781852e-01
5.787596e-01
5.790630e-01
5.789293e-01
5.785361e-01
5.777338e-01
5.767492e-01
5.757153e-01
5.747291e-01
5.736353e-01
0.000000e+00
1.000000e+00
5.739681e-01
5.747205e-01
5.757173e-01
5.766863e-01
5.775976e-01
5.783914e-01
5.790151e-01
5.793349e-01
5.791708e-01
5.787790e-01
5.779526e-01
5.769169e-01
5.758322e-01
5.747972e-01
5.736806e-01
0.000000e+00
1.000000e+00
5.739767e-01
5.747302e-01
5.757367e-01
5.767135e-01
5.776327e-01
5.784356e-01
5.790675e-01
5.793851e-01
5.792223e-01
5.788193e-01
5.779878e-01
5.769451e-01
5.758526e-01
5.748152e-01
5.736911e-01
0.000000e+00
1.000000e+00
5.739444e-01
5.746901e-01
5.756650e-01
5.766228e-01
5.775266e-01
5.783083e-01
5.789076e-01
5.792129e-01
5.790748e-01
5.786564e-01
5.778392e-01
5.768317e-01
5.757745e-01
5.747781e-01
5.736172e-01
0.000000e+00
1.000000e+00
5.738861e-01
5.745945e-01
5.755082e-01
5.764169e-01
5.772793e-01
5.780178e-01
5.785586e-01
5.788286e-01
5.787337e-01
5.783009e-01
5.775274e-01
5.765917e-01
5.756059e-01
5.746827e-01
5.735397e-01
0.000000e+00
1.000000e+00
5.738107e-01
5.744480e-01
5.752801e-01
5.761102e-01
5.769033e-01
5.775805e-01
5.780547e-01
5.782627e-01
5.782106e-01
5.777842e-01
5.770842e-01
5.762457e-01
5.753590e-01
5.745351e-01
5.734442e-01
0.000000e+00
1.000000e+00
5.737130e-01
5.742668e-01
5.749955e-01
5.757234e-01
5.764201e-01
5.770148e-01
5.774243e-01
5.775993e-01
5.775398e-01
5.771508e-01
5.765452e-01
5.758193e-01
5.750522e-01
5.743444e-01
5.733850e-01
0.000000e+00
1.000000e+00
5.736087e-01
5.740544e-01
5.746636e-01
5.752723e-01
5.758548e-01
5.763509e-01
5.766931e-01