<?xml version="1.0"?>
<VTKFile type="StructuredGrid" version="0.1">
  <StructuredGrid WholeExtent="0 16 0 16 0 16">
    <Piece Extent="0 16 0 16 0 16">
      <PointData Scalars="temperature" Vectors="velocity">
        <DataArray type="Float32" Name="temperature" format="ascii">
1.000000e+00
5.722096e-01
5.713962e-01
5.704862e-01
5.695553e-01
5.686725e-01
5.679309e-01
5.674307e-01
5.672526e-01
5.674294e-01
5.679294e-01
5.686711e-01
5.695537e-01
5.704845e-01
5.714198e-01
5.720657e-01
0.000000e+00
1.000000e+00
5.723063e-01
5.715761e-01
5.707663e-01
5.699389e-01
5.691543e-01
5.684953e-01
5.680514e-01
5.678933e-01
5.680500e-01
5.684941e-01
5.691532e-01
5.699376e-01
5.707648e-01
5.716011e-01
5.721825e-01
0.000000e+00
1.000000e+00
5.723940e-01
5.717827e-01
5.710866e-01
5.703775e-01
5.697050e-01
5.691401e-01
5.687597e-01
5.686242e-01
5.687580e-01
5.691384e-01
5.697034e-01
5.703757e-01
5.710847e-01
5.718059e-01
5.722667e-01
0.000000e+00
1.000000e+00
5.724882e-01
5.720112e-01
5.714390e-01
5.708601e-01
5.703110e-01
5.698495e-01
5.695390e-01
5.694288e-01
5.695376e-01
5.698478e-01
5.703090e-01
5.708580e-01
5.714369e-01
5.720293e-01
5.723903e-01
0.000000e+00
1.000000e+00
5.725930e-01
5.722516e-01
5.718122e-01
5.713711e-01
5.709527e-01
5.706008e-01
5.703639e-01
5.702805e-01
5.703633e-01
5.705989e-01
5.709503e-01
5.713685e-01
5.718096e-01
5.722748e-01
5.724694e-01
0.000000e+00
1.000000e+00
5.726907e-01
5.724986e-01
5.721913e-01
5.718903e-01
5.716046e-01
5.713644e-01
5.712023e-01
5.711452e-01
5.712026e-01
5.713624e-01
5.716018e-01
5.718874e-01
5.721882e-01
5.725171e-01
5.726648e-01
0.000000e+00
1.000000e+00
5.727755e-01
5.727402e-01
5.725597e-01
5.723945e-01
5.722377e-01
5.721056e-01
5.720163e-01
5.719841e-01
5.720160e-01
5.721040e-01
5.722342e-01
5.723911e-01
5.725559e-01
5.727340e-01
5.728948e-01
0.000000e+00
1.000000e+00
5.728539e-01
5.729539e-01
5.729002e-01
5.728603e-01
5.728217e-01
5.727886e-01
5.727658e-01
5.727563e-01
5.727630e-01
5.727852e-01
5.728161e-01
5.728546e-01
5.728948e-01
5.729451e-01
5.729489e-01
0.000000e+00
1.000000e+00
5.729511e-01
5.731399e-01
5.731911e-01
5.732578e-01
5.733214e-01
5.733740e-01
5.734095e-01
5.734212e-01
5.734070e-01
5.733705e-01
5.733160e-01
5.732523e-01
5.731856e-01
5.731211e-01
5.732082e-01
0.000000e+00
1.000000e+00
5.730204e-01
5.732664e-01
5.734157e-01
5.735674e-01
5.737110e-01
5.738320e-01
5.739141e-01
5.739446e-01
5.739170e-01
5.738358e-01
5.737148e-01
5.735723e-01
5.734205e-01
5.732592e-01
5.731560e-01
0.000000e+00
1.000000e+00
5.730776e-01
5.733499e-01
5.735719e-01
5.737785e-01
5.739759e-01
5.741450e-01
5.742606e-01
5.743046e-01
5.742735e-01
5.741685e-01
5.740029e-01
5.738021e-01
5.735852e-01
5.733560e-01
5.730195e-01
0.000000e+00
1.000000e+00
5.731049e-01
5.734145e-01
5.736552e-01
5.738935e-01
5.741199e-01
5.743127e-01
5.744444e-01
5.744943e-01
5.744619e-01
5.743462e-01
5.741535e-01
5.739199e-01
5.736714e-01
5.734257e-01
5.729266e-01
0.000000e+00
1.000000e+00
5.731160e-01
5.734240e-01
5.736665e-01
5.739104e-01
5.741405e-01
5.743342e-01
5.744649e-01
5.745140e-01
5.744788e-01
5.743628e-01
5.741673e-01
5.739299e-01
5.736782e-01
5.734398e-01
5.729971e-01
0.000000e+00
1.000000e+00
5.731064e-01
5.733912e-01
5.736039e-01
5.738258e-01
5.740355e-01
5.742119e-01
5.743305e-01
5.743741e-01
5.743383e-01
5.742298e-01
5.740555e-01
5.738416e-01
5.736131e-01
5.734218e-01
5.730443e-01
0.000000e+00
1.000000e+00
5.730677e-01
5.733180e-01
5.734852e-01
5.736625e-01
5.738306e-01
5.739719e-01
5.740667e-01
5.740999e-01
5.740672e-01
5.739737e-01
5.738321e-01
5.736616e-01
5.734878e-01
5.733382e-01
5.729564e-01
0.000000e+00
1.000000e+00
5.730790e-01
5.732098e-01
5.733206e-01
5.734356e-01
5.735448e-01
5.736362e-01
5.736974e-01
5.737182e-01
5.736951e-01
5.736323e-01
5.735394e-01
5.734307e-01
5.733196e-01
5.732266e-01
5.729296e-01
0.000000e+00
1.000000e+00
5.729612e-01
5.730760e-01
5.731179e-01
5.731582e-01
5.731959e-01
5.732273e-01
5.732484e-01
5.732555e-01
5.732470e-01
5.732247e-01
5.731920e-01
5.731535e-01
5.731131e-01
5.730950e-01
5.729027e-01
0.000000e+00
1.000000e+00
5.721596e-01
5.712482e-01
5.702556e-01
5.692397e-01
5.682764e-01
5.674676e-01
5.669219e-01
5.667272e-01
5.669202e-01
5.674660e-01
5.682754e-01
5.692386e-01
5.702542e-01
5.712679e-01
5.719919e-01
0.000000e+00
1.000000e+00
5.722437e-01
5.714160e-01
5.705165e-01
5.695970e-01
5.687254e-01
5.679938e-01
5.675015e-01
5.673260e-01
5.674999e-01
5.679933e-01
5.687257e-01
5.695973e-01
5.705163e-01
5.714378e-01
5.720905e-01
0.000000e+00
1.000000e+00
5.723303e-01
5.716124e-01
5.708231e-01
5.700168e-01
5.692520e-01
5.686098e-01
5.681777e-01
5.680244e-01
5.681765e-01
5.686092e-01
5.692517e-01
5.700161e-01
5.708221e-01
5.716363e-01
5.721583e-01
0.000000e+00
1.000000e+00
5.724297e-01
5.718338e-01
5.711666e-01
5.704873e-01
5.698427e-01
5.693011e-01
5.689369e-01
5.688082e-01
5.689363e-01
5.693004e-01
5.698419e-01
5.704862e-01
5.711655e-01
5.718572e-01
5.723158e-01
0.000000e+00
1.000000e+00
5.725358e-01
5.720720e-01
5.715363e-01
5.709935e-01
5.704785e-01
5.700454e-01
5.697540e-01
5.696515e-01
5.697542e-01
5.700444e-01
5.704769e-01
5.709918e-01
5.715348e-01
5.721145e-01
5.723185e-01
0.000000e+00
1.000000e+00
5.726413e-01
5.723192e-01
5.719171e-01
5.715148e-01
5.711332e-01
5.708122e-01
5.705957e-01
5.705196e-01
5.705963e-01
5.708108e-01
5.711309e-01
5.715124e-01
5.719147e-01
5.723623e-01
5.724096e-01
0.000000e+00
1.000000e+00
5.727467e-01
5.725620e-01
5.722907e-01
5.720263e-01
5.717754e-01
5.715645e-01
5.714220e-01
5.713713e-01
5.714222e-01
5.715633e-01
5.717727e-01
5.720234e-01
5.722876e-01
5.725692e-01
5.727325e-01
0.000000e+00
1.000000e+00
5.728278e-01
5.727841e-01
5.726378e-01
5.725014e-01
5.723719e-01
5.722629e-01
5.721894e-01
5.721625e-01
5.721882e-01
5.722622e-01
5.723689e-01
5.724979e-01
5.726339e-01
5.727721e-01
5.728428e-01
0.000000e+00
1.000000e+00
5.728971e-01
5.729764e-01
5.729405e-01
5.729159e-01
5.728910e-01
5.728692e-01
5.728545e-01
5.728491e-01
5.728526e-01
5.728674e-01
5.728877e-01
5.729108e-01
5.729362e-01
5.729612e-01
5.729526e-01
0.000000e+00
1.000000e+00
5.729360e-01
5.731336e-01
5.731809e-01
5.732426e-01
5.733015e-01
5.733503e-01
5.733828e-01
5.733942e-01
5.733823e-01
5.733493e-01
5.733003e-01
5.732401e-01
5.731772e-01
5.731040e-01
5.732676e-01
0.000000e+00
1.000000e+00
5.729850e-01
5.732048e-01
5.733411e-01
5.734659e-01
5.735842e-01
5.736832e-01
5.737477e-01
5.737701e-01
5.737477e-01
5.736887e-01
5.735933e-01
5.734722e-01
5.733452e-01
5.732007e-01
5.731114e-01
0.000000e+00
1.000000e+00
5.730462e-01
5.732284e-01
5.734317e-01
5.735874e-01
5.737347e-01
5.738588e-01
5.739412e-01
5.739704e-01
5.739435e-01
5.738745e-01
5.737542e-01
5.735965e-01
5.734346e-01
5.732755e-01
5.728952e-01
0.000000e+00
1.000000e+00
5.730482e-01
5.732436e-01
5.734431e-01
5.736033e-01
5.737549e-01
5.738816e-01
5.739660e-01
5.739956e-01
5.739664e-01
5.738939e-01
5.737711e-01
5.736099e-01
5.734459e-01
5.733057e-01
5.728916e-01
0.000000e+00
1.000000e+00
5.730326e-01
5.732222e-01
5.733845e-01
5.735226e-01
5.736529e-01
5.737615e-01
5.738332e-01
5.738574e-01
5.738297e-01
5.737606e-01
5.736583e-01
5.735294e-01
5.733862e-01
5.733008e-01
5.729640e-01
0.000000e+00
1.000000e+00
5.729788e-01
5.731657e-01
5.732579e-01
5.733512e-01
5.734400e-01
5.735152e-01
5.735655e-01
5.735828e-01
5.735646e-01
5.735149e-01
5.734426e-01
5.733580e-01
5.732623e-01
5.731893e-01
5.729182e-01
0.000000e+00
1.000000e+00
5.729961e-01
5.730644e-01
5.730927e-01
5.731248e-01
5.731551e-01
5.731797e-01
5.731955e-01
5.732001e-01
5.731931e-01
5.731755e-01
5.731500e-01
5.731209e-01
5.730904e-01
5.730836e-01
5.728993e-01
0.000000e+00
1.000000e+00
5.728958e-01
5.729356e-01
5.728912e-01
5.728463e-01
5.728034e-01
5.727673e-01
5.727431e-01
5.727343e-01
5.727422e-01
5.727654e-01
5.728002e-01
5.728418e-01
5.728857e-01
5.729546e-01
5.727869e-01
0.000000e+00
1.000000e+00
5.720971e-01
5.711316e-01
5.700737e-01
5.689905e-01
5.679635e-01
5.671014e-01
5.665195e-01
5.663122e-01
5.665184e-01
5.671000e-01
5.679629e-01
5.689897e-01
5.700724e-01
5.711534e-01
5.719380e-01
0.000000e+00
1.000000e+00
5.721783e-01
5.712870e-01
5.703152e-01
5.693214e-01
5.683791e-01
5.675881e-01
5.670558e-01
5.668659e-01
5.670543e-01
5.675879e-01
5.683795e-01
5.693215e-01
5.703148e-01
5.713115e-01
5.720162e-01
0.000000e+00
1.000000e+00
5.722594e-01
5.714733e-01
5.706065e-01
5.697199e-01
5.688791e-01
5.681728e-01
5.676978e-01
5.675290e-01
5.676966e-01
5.681728e-01
5.688791e-01
5.697194e-01
5.706053e-01
5.715015e-01
5.720834e-01
0.000000e+00
1.000000e+00
5.723574e-01
5.716870e-01
5.709394e-01
5.701759e-01
5.694515e-01
5.688429e-01
5.684335e-01
5.682889e-01
5.684328e-01
5.688426e-01
5.694513e-01
5.701752e-01
5.709383e-01
5.717291e-01
5.722102e-01
0.000000e+00
1.000000e+00
5.724659e-01
5.719217e-01
5.713037e-01
5.706747e-01
5.700781e-01
5.695765e-01
5.692388e-01
5.691200e-01
5.692387e-01
5.695755e-01
5.700771e-01
5.706737e-01
5.713026e-01
5.720114e-01
5.721860e-01
0.000000e+00
1.000000e+00
5.725822e-01
5.721666e-01
5.716841e-01
5.711956e-01
5.707322e-01
5.703424e-01
5.700798e-01
5.699873e-01
5.700801e-01
5.703410e-01
5.707302e-01
5.711936e-01
5.716822e-01
5.722499e-01
5.723040e-01
0.000000e+00
1.000000e+00
5.726942e-01
5.724084e-01
5.720615e-01
5.717123e-01
5.713811e-01
5.711026e-01
5.709144e-01
5.708478e-01
5.709145e-01
5.711007e-01
5.713783e-01
5.717094e-01
5.720585e-01
5.724301e-01
5.726409e-01
0.000000e+00
1.000000e+00
5.727912e-01
5.726371e-01
5.724148e-01
5.721962e-01
5.719887e-01
5.718142e-01
5.716966e-01
5.716541e-01
5.716957e-01
5.718125e-01
5.719858e-01
5.721929e-01
5.724113e-01
5.726253e-01
5.728500e-01
0.000000e+00
1.000000e+00
5.728603e-01
5.728399e-01
5.727235e-01
5.726189e-01
5.725199e-01
5.724368e-01
5.723805e-01
5.723600e-01
5.723786e-01
5.724346e-01
5.725180e-01
5.726161e-01
5.727202e-01
5.728098e-01
5.729180e-01
0.000000e+00
1.000000e+00
5.728974e-01
5.730021e-01
5.729716e-01
5.729570e-01
5.729435e-01
5.729328e-01
5.729252e-01
5.729217e-01
5.729234e-01
5.729292e-01
5.729417e-01
5.729543e-01
5.729680e-01
5.729605e-01
5.731701e-01
0.000000e+00
1.000000e+00
5.728929e-01
5.731047e-01
5.731430e-01
5.731896e-01
5.732368e-01
5.732776e-01
5.733046e-01
5.733135e-01
5.733028e-01
5.732763e-01
5.732363e-01
5.731898e-01
5.731428e-01
5.730743e-01
5.732688e-01
0.000000e+00
1.000000e+00
5.729272e-01
5.731351e-01
5.732326e-01
5.733187e-01
5.733992e-01
5.734666e-01
5.735110e-01
5.735256e-01
5.735073e-01
5.734670e-01
5.733992e-01
5.733231e-01
5.732419e-01
5.731636e-01
5.728217e-01
0.000000e+00
1.000000e+00
5.729407e-01
5.731278e-01
5.732456e-01
5.733374e-01
5.734225e-01
5.734929e-01
5.735396e-01
5.735548e-01
5.735353e-01
5.734932e-01
5.734228e-01
5.733392e-01
5.732515e-01
5.731818e-01
5.727112e-01
0.000000e+00
1.000000e+00
5.728979e-01
5.731012e-01
5.731816e-01
5.732493e-01
5.733128e-01
5.733658e-01
5.734019e-01
5.734151e-01
5.734017e-01
5.733662e-01
5.733144e-01
5.732532e-01
5.731893e-01
5.731478e-01
5.727967e-01
0.000000e+00
1.000000e+00
5.729144e-01
5.730584e-01
5.730656e-01
5.730859e-01
5.731062e-01
5.731246e-01
5.731371e-01
5.731408e-01
5.731354e-01
5.731224e-01
5.731048e-01
5.730848e-01
5.730642e-01
5.730621e-01
5.728683e-01
0.000000e+00
1.000000e+00
5.729338e-01
5.729442e-01
5.728991e-01
5.728589e-01
5.728194e-01
5.727848e-01
5.727608e-01
5.727515e-01
5.727586e-01
5.727804e-01
5.728128e-01
5.728517e-01
5.728928e-01
5.729603e-01
5.727509e-01
0.000000e+00
1.000000e+00
5.728742e-01
5.728107e-01
5.726922e-01
5.725744e-01
5.724625e-01
5.723686e-01
5.723054e-01
5.722830e-01
5.723051e-01
5.723675e-01
5.724604e-01
5.725712e-01
5.726881e-01
5.728281e-01
5.727060e-01
0.000000e+00
1.000000e+00
5.720562e-01
5.710539e-01
5.699516e-01
5.688234e-01
5.677538e-01
5.668563e-01
5.662499e-01
5.660346e-01
5.662496e-01
5.668554e-01
5.677541e-01
5.688234e-01
5.699509e-01
5.710795e-01
5.718943e-01
0.000000e+00
1.000000e+00
5.721308e-01
5.711967e-01
5.701742e-01
5.691283e-01
5.681367e-01
5.673045e-01
5.667442e-01
5.665444e-01
5.667433e-01
5.673049e-01
5.681380e-01
5.691291e-01
5.701742e-01
5.712268e-01
5.719608e-01
0.000000e+00
1.000000e+00
5.722082e-01
5.713732e-01
5.704499e-01
5.695055e-01
5.686099e-01
5.678577e-01
5.673522e-01
5.671723e-01
5.673516e-01
5.678589e-01
5.686113e-01
5.695062e-01
5.704496e-01
5.714089e-01
5.720576e-01
0.000000e+00
1.000000e+00
5.723045e-01
5.715796e-01
5.707717e-01
5.699462e-01
5.691632e-01
5.685053e-01
5.680632e-01
5.679069e-01
5.680629e-01
5.685066e-01
5.691647e-01
5.699473e-01
5.707720e-01
5.716605e-01
5.721215e-01
0.000000e+00
1.000000e+00
5.724163e-01
5.718086e-01
5.711296e-01
5.704364e-01
5.697788e-01
5.692260e-01
5.688542e-01
5.687238e-01
5.688545e-01
5.692267e-01
5.697800e-01
5.704377e-01
5.711308e-01
5.719874e-01
5.719059e-01
0.000000e+00
1.000000e+00
5.725362e-01
5.720514e-01
5.715083e-01
5.709549e-01
5.704301e-01
5.699886e-01
5.696913e-01
5.695871e-01
5.696922e-01
5.699883e-01
5.704302e-01
5.709556e-01
5.715094e-01
5.721880e-01
5.719993e-01
0.000000e+00
1.000000e+00
5.726577e-01
5.722954e-01
5.718880e-01
5.714749e-01
5.710830e-01
5.707535e-01
5.705311e-01
5.704526e-01
5.705314e-01
5.707526e-01
5.710819e-01
5.714742e-01
5.718877e-01
5.723227e-01
5.724933e-01
0.000000e+00
1.000000e+00
5.727727e-01
5.725272e-01
5.722465e-01
5.719658e-01
5.716994e-01
5.714755e-01
5.713244e-01
5.712702e-01
5.713236e-01
5.714741e-01
5.716980e-01
5.719642e-01
5.722449e-01
5.725202e-01
5.727652e-01
0.000000e+00
1.000000e+00
5.728736e-01
5.727331e-01
5.725619e-01
5.723977e-01
5.722418e-01
5.721106e-01
5.720221e-01
5.719905e-01
5.720210e-01
5.721091e-01
5.722404e-01
5.723953e-01
5.725598e-01
5.727114e-01
5.730137e-01
0.000000e+00
1.000000e+00
5.729367e-01
5.728978e-01
5.728153e-01
5.727453e-01
5.726784e-01
5.726217e-01
5.725833e-01
5.725693e-01
5.725822e-01
5.726195e-01
5.726759e-01
5.727422e-01
5.728133e-01
5.728795e-01
5.731977e-01
0.000000e+00
1.000000e+00
5.729282e-01
5.730172e-01
5.729946e-01
5.729894e-01
5.729832e-01
5.729782e-01
5.729748e-01
5.729732e-01
5.729736e-01
5.729763e-01
5.729804e-01
5.729853e-01
5.729925e-01
5.730627e-01
5.735054e-01
0.000000e+00
1.000000e+00
5.728503e-01
5.730797e-01
5.730880e-01
5.731150e-01
5.731406e-01
5.731635e-01
5.731791e-01
5.731846e-01
5.731790e-01
5.731654e-01
5.731446e-01
5.731220e-01
5.730939e-01
5.731445e-01
5.731434e-01
0.000000e+00
1.000000e+00
5.728180e-01
5.730863e-01
5.730974e-01
5.731298e-01
5.731626e-01
5.731901e-01
5.732092e-01
5.732156e-01
5.732087e-01
5.731931e-01
5.731672e-01
5.731435e-01
5.731110e-01
5.731179e-01
5.728523e-01
0.000000e+00
1.000000e+00
5.728710e-01
5.730568e-01
5.730418e-01
5.730518e-01
5.730618e-01
5.730696e-01
5.730753e-01
5.730784e-01
5.730775e-01
5.730721e-01
5.730627e-01
5.730517e-01
5.730399e-01
5.730167e-01
5.727749e-01
0.000000e+00
1.000000e+00
5.729478e-01
5.729691e-01
5.729177e-01
5.728844e-01
5.728536e-01
5.728278e-01
5.728094e-01
5.728012e-01
5.728052e-01
5.728217e-01
5.728483e-01
5.728805e-01
5.729141e-01
5.729376e-01
5.726918e-01
0.000000e+00
1.000000e+00
5.729430e-01
5.728477e-01
5.727450e-01
5.726485e-01
5.725560e-01
5.724769e-01
5.724231e-01
5.724037e-01
5.724219e-01
5.724742e-01
5.725518e-01
5.726441e-01
5.727413e-01
5.728408e-01
5.726578e-01
0.000000e+00
1.000000e+00
5.728844e-01
5.727062e-01
5.725375e-01
5.723628e-01
5.721969e-01
5.720576e-01
5.719639e-01
5.719308e-01
5.719639e-01
5.720571e-01
5.721954e-01
5.723603e-01
5.725341e-01
5.727181e-01
5.726424e-01
0.000000e+00
1.000000e+00
5.720375e-01
5.710212e-01
5.699001e-01
5.687529e-01
5.676654e-01
5.667530e-01
5.661364e-01
5.659183e-01
5.661369e-01
5.667529e-01
5.676667e-01
5.687539e-01
5.699002e-01
5.710534e-01
5.718744e-01
0.000000e+00
1.000000e+00
5.721058e-01
5.711536e-01
5.701059e-01
5.690348e-01
5.680193e-01
5.671673e-01
5.665933e-01
5.663894e-01
5.665934e-01
5.671685e-01
5.680217e-01
5.690367e-01
5.701068e-01
5.711931e-01
5.719147e-01
0.000000e+00
1.000000e+00
5.721772e-01
5.713213e-01
5.703677e-01
5.693929e-01
5.684686e-01
5.676924e-01
5.671707e-01
5.669853e-01
5.671713e-01
5.676948e-01
5.684714e-01
5.693950e-01
5.703686e-01
5.713730e-01
5.720478e-01
0.000000e+00
1.000000e+00
5.722709e-01
5.715201e-01
5.706791e-01
5.698194e-01
5.690041e-01
5.683191e-01
5.678591e-01
5.676962e-01
5.678598e-01
5.683221e-01
5.690075e-01
5.698224e-01
5.706813e-01
5.716607e-01
5.719806e-01
0.000000e+00
1.000000e+00
5.723826e-01
5.717437e-01
5.710307e-01
5.703011e-01
5.696090e-01
5.690272e-01
5.686362e-01
5.684991e-01
5.686373e-01
5.690301e-01
5.696124e-01
5.703045e-01
5.710338e-01
5.719816e-01
5.716291e-01
0.000000e+00
1.000000e+00
5.725043e-01
5.719855e-01
5.714071e-01
5.708167e-01
5.702565e-01
5.697855e-01
5.694683e-01
5.693575e-01
5.694700e-01
5.697871e-01
5.702593e-01
5.708198e-01
5.714098e-01
5.721152e-01
5.718924e-01
0.000000e+00
1.000000e+00
5.726428e-01
5.722304e-01
5.717882e-01
5.713383e-01
5.709115e-01
5.705528e-01
5.703107e-01
5.702257e-01
5.703115e-01
5.705537e-01
5.709139e-01
5.713403e-01
5.717892e-01
5.722415e-01
5.723876e-01
0.000000e+00
1.000000e+00
5.727796e-01
5.724613e-01
5.721504e-01
5.718341e-01
5.715341e-01
5.712820e-01
5.711120e-01
5.710512e-01
5.711117e-01
5.712835e-01
5.715349e-01
5.718347e-01
5.721502e-01
5.724510e-01
5.726837e-01
0.000000e+00
1.000000e+00
5.729023e-01
5.726655e-01
5.724703e-01
5.722723e-01
5.720843e-01
5.719263e-01
5.718198e-01
5.717819e-01
5.718195e-01
5.719268e-01
5.720841e-01
5.722717e-01
5.724695e-01
5.726696e-01
5.729847e-01
0.000000e+00
1.000000e+00
5.729926e-01
5.728326e-01
5.727277e-01
5.726249e-01
5.725271e-01
5.724448e-01
5.723893e-01
5.723694e-01
5.723891e-01
5.724451e-01
5.725270e-01
5.726238e-01
5.727275e-01
5.728782e-01
5.733626e-01
0.000000e+00
1.000000e+00
5.730524e-01
5.729569e-01
5.729081e-01
5.728724e-01
5.728383e-01
5.728092e-01
5.727893e-01
5.727820e-01
5.727884e-01
5.728075e-01
5.728365e-01
5.728708e-01
5.729062e-01
5.730880e-01
5.737088e-01
0.000000e+00
1.000000e+00
5.730313e-01
5.730327e-01
5.730054e-01
5.730059e-01
5.730056e-01
5.730048e-01
5.730037e-01
5.730029e-01
5.730021e-01
5.730014e-01
5.730011e-01
5.730017e-01
5.730039e-01
5.730825e-01
5.737726e-01
0.000000e+00
1.000000e+00
5.729887e-01
5.730482e-01
5.730192e-01
5.730237e-01
5.730271e-01
5.730294e-01
5.730303e-01
5.730298e-01
5.730286e-01
5.730261e-01
5.730214e-01
5.730193e-01
5.730203e-01
5.730655e-01
5.735770e-01
0.000000e+00
1.000000e+00
5.730545e-01
5.729951e-01
5.729540e-01
5.729341e-01
5.729146e-01
5.728981e-01
5.728870e-01
5.728838e-01
5.728881e-01
5.728984e-01
5.729137e-01
5.729316e-01
5.729508e-01
5.729312e-01
5.732562e-01
0.000000e+00
1.000000e+00
5.730343e-01
5.728957e-01
5.728245e-01
5.727577e-01
5.726953e-01
5.726435e-01
5.726079e-01
5.725937e-01
5.726044e-01
5.726393e-01
5.726926e-01
5.727567e-01
5.728242e-01
5.728235e-01
5.729650e-01
0.000000e+00
1.000000e+00
5.729779e-01
5.727749e-01
5.726503e-01
5.725187e-01
5.723929e-01
5.722861e-01
5.722136e-01
5.721877e-01
5.722127e-01
5.722839e-01
5.723894e-01
5.725149e-01
5.726470e-01
5.727292e-01
5.728042e-01
0.000000e+00
1.000000e+00
5.729077e-01
5.726288e-01
5.724389e-01
5.722280e-01
5.720277e-01
5.718594e-01
5.717462e-01
5.717063e-01
5.717465e-01
5.718593e-01
5.720266e-01
5.722259e-01
5.724359e-01
5.726225e-01
5.726280e-01
0.000000e+00
1.000000e+00
5.720441e-01
5.710384e-01
5.699266e-01
5.687891e-01
5.677109e-01
5.668063e-01
5.661953e-01
5.659798e-01
5.661964e-01
5.668071e-01
5.677132e-01
5.687911e-01
5.699276e-01
5.710822e-01
5.718476e-01
0.000000e+00
1.000000e+00
5.721064e-01
5.711627e-01
5.701195e-01
5.690534e-01
5.680426e-01
5.671946e-01
5.666230e-01
5.664210e-01
5.666242e-01
5.671966e-01
5.680459e-01
5.690562e-01
5.701213e-01
5.712117e-01
5.718766e-01
0.000000e+00
1.000000e+00
5.721734e-01
5.713229e-01
5.703703e-01
5.693966e-01
5.684731e-01
5.676980e-01
5.671767e-01
5.669919e-01
5.671783e-01
5.677012e-01
5.684768e-01
5.693996e-01
5.703723e-01
5.713917e-01
5.720316e-01
0.000000e+00
1.000000e+00
5.722626e-01
5.715165e-01
5.706735e-01
5.698120e-01
5.689947e-01
5.683084e-01
5.678475e-01
5.676839e-01
5.678492e-01
5.683123e-01
5.689985e-01
5.698150e-01
5.706759e-01
5.716915e-01
5.717839e-01
0.000000e+00
1.000000e+00
5.723700e-01
5.717383e-01
5.710201e-01
5.702868e-01
5.695911e-01
5.690064e-01
5.686137e-01
5.684756e-01
5.686153e-01
5.690104e-01
5.695946e-01
5.702891e-01
5.710216e-01
5.719793e-01
5.714243e-01
0.000000e+00
1.000000e+00
5.724981e-01
5.719784e-01
5.713947e-01
5.707998e-01
5.702353e-01
5.697609e-01
5.694415e-01
5.693302e-01
5.694434e-01
5.697640e-01
5.702373e-01
5.708008e-01
5.713954e-01
5.721134e-01
5.717186e-01
0.000000e+00
1.000000e+00
5.726489e-01
5.722213e-01
5.717765e-01
5.713223e-01
5.708916e-01
5.705296e-01
5.702855e-01
5.701999e-01
5.702864e-01
5.705304e-01
5.708919e-01
5.713223e-01
5.717763e-01
5.722324e-01
5.723560e-01
0.000000e+00
1.000000e+00
5.728024e-01
5.724502e-01
5.721411e-01
5.718215e-01
5.715183e-01
5.712635e-01
5.710918e-01
5.710307e-01
5.710920e-01
5.712660e-01
5.715188e-01
5.718216e-01
5.721406e-01
5.724373e-01
5.727701e-01
0.000000e+00
1.000000e+00
5.729535e-01
5.726513e-01
5.724638e-01
5.722635e-01
5.720733e-01
5.719135e-01
5.718058e-01
5.717677e-01
5.718065e-01
5.719151e-01
5.720739e-01
5.722642e-01
5.724631e-01
5.726626e-01
5.729728e-01
0.000000e+00
1.000000e+00
5.731004e-01
5.728113e-01
5.727233e-01
5.726188e-01
5.725195e-01
5.724360e-01
5.723797e-01
5.723600e-01
5.723805e-01
5.724371e-01
5.725198e-01
5.726198e-01
5.727239e-01
5.728620e-01
5.730530e-01
0.000000e+00
1.000000e+00
5.732131e-01
5.729239e-01
5.729042e-01
5.728664e-01
5.728304e-01
5.728001e-01
5.727797e-01
5.727725e-01
5.727800e-01
5.728007e-01
5.728304e-01
5.728663e-01
5.729033e-01
5.729557e-01
5.731150e-01
0.000000e+00
1.000000e+00
5.732787e-01
5.729840e-01
5.729987e-01
5.729957e-01
5.729927e-01
5.729901e-01
5.729882e-01
5.729875e-01
5.729880e-01
5.729898e-01
5.729931e-01
5.729951e-01
5.729962e-01
5.729271e-01
5.736439e-01
0.000000e+00
1.000000e+00
5.732702e-01
5.729860e-01
5.730077e-01
5.730080e-01
5.730078e-01
5.730073e-01
5.730070e-01
5.730076e-01
5.730087e-01
5.730093e-01
5.730090e-01
5.730043e-01
5.730059e-01
5.729465e-01
5.738615e-01
0.000000e+00
1.000000e+00
5.731786e-01
5.729403e-01
5.729382e-01
5.729128e-01
5.728887e-01
5.728689e-01
5.728568e-01
5.728540e-01
5.728595e-01
5.728723e-01
5.728921e-01
5.729151e-01
5.729372e-01
5.729305e-01
5.737138e-01
0.000000e+00
1.000000e+00
5.730905e-01
5.728598e-01
5.728048e-01
5.727313e-01
5.726622e-01
5.726042e-01
5.725645e-01
5.725493e-01
5.725620e-01
5.726010e-01
5.726598e-01
5.727306e-01
5.728055e-01
5.728265e-01
5.734620e-01
0.000000e+00
1.000000e+00
5.730314e-01
5.727387e-01
5.726249e-01
5.724834e-01
5.723486e-01
5.722343e-01
5.721570e-01
5.721293e-01
5.721560e-01
5.722323e-01
5.723454e-01
5.724799e-01
5.726214e-01
5.726864e-01
5.732274e-01
0.000000e+00
1.000000e+00
5.729505e-01
5.725863e-01
5.724067e-01
5.721842e-01
5.719729e-01
5.717954e-01
5.716759e-01
5.716338e-01
5.716763e-01
5.717955e-01
5.719721e-01
5.721824e-01
5.724041e-01
5.725518e-01
5.728008e-01
0.000000e+00
1.000000e+00
5.720786e-01
5.711069e-01
5.700339e-01
5.689361e-01
5.678954e-01
5.670223e-01
5.664329e-01
5.662254e-01
5.664344e-01
5.670237e-01
5.678983e-01
5.689388e-01
5.700357e-01
5.711621e-01
5.718356e-01
0.000000e+00
1.000000e+00
5.721364e-01
5.712262e-01
5.702189e-01
5.691896e-01
5.682137e-01
5.673948e-01
5.668428e-01
5.666484e-01
5.668447e-01
5.673973e-01
5.682173e-01
5.691929e-01
5.702213e-01
5.712754e-01
5.719027e-01
0.000000e+00
1.000000e+00
5.721982e-01
5.713825e-01
5.704631e-01
5.695238e-01
5.686331e-01
5.678853e-01
5.673822e-01
5.672040e-01
5.673842e-01
5.678886e-01
5.686365e-01
5.695266e-01
5.704650e-01
5.714523e-01
5.720455e-01
0.000000e+00
1.000000e+00
5.722832e-01
5.715744e-01
5.707616e-01
5.699327e-01
5.691465e-01
5.684863e-01
5.680428e-01
5.678849e-01
5.680447e-01
5.684903e-01
5.691502e-01
5.699354e-01
5.707634e-01
5.717453e-01
5.717328e-01
0.000000e+00
1.000000e+00
5.723908e-01
5.717960e-01
5.711055e-01
5.704037e-01
5.697381e-01
5.691789e-01
5.688032e-01
5.686705e-01
5.688045e-01
5.691831e-01
5.697427e-01
5.704073e-01
5.711083e-01
5.720320e-01
5.715032e-01
0.000000e+00
1.000000e+00
5.725279e-01
5.720346e-01
5.714794e-01
5.709156e-01
5.703809e-01
5.699317e-01
5.696294e-01
5.695239e-01
5.696302e-01
5.699360e-01
5.703850e-01
5.709190e-01
5.714824e-01
5.721657e-01
5.718069e-01
0.000000e+00
1.000000e+00
5.726857e-01
5.722752e-01
5.718618e-01
5.714392e-01
5.710383e-01
5.707016e-01
5.704749e-01
5.703954e-01
5.704765e-01
5.707046e-01
5.710411e-01
5.714413e-01
5.718632e-01
5.722827e-01
5.724010e-01
0.000000e+00
1.000000e+00
5.728556e-01
5.725015e-01
5.722278e-01
5.719402e-01
5.716674e-01
5.714383e-01
5.712840e-01
5.712296e-01
5.712845e-01
5.714402e-01
5.716700e-01
5.719421e-01
5.722284e-01
5.724810e-01
5.727466e-01
0.000000e+00
1.000000e+00
5.730288e-01
5.726967e-01
5.725518e-01
5.723839e-01
5.722245e-01
5.720906e-01
5.720005e-01
5.719690e-01
5.720014e-01
5.720912e-01
5.722268e-01
5.723861e-01
5.725523e-01
5.727173e-01
5.732512e-01
0.000000e+00
1.000000e+00
5.732323e-01
5.728394e-01
5.728114e-01
5.727393e-01
5.726707e-01
5.726131e-01
5.725744e-01
5.725611e-01
5.725753e-01
5.726132e-01
5.726710e-01
5.727412e-01
5.728124e-01
5.729055e-01
5.732266e-01
0.000000e+00
1.000000e+00
5.733332e-01
5.729409e-01
5.729906e-01
5.729845e-01
5.729784e-01
5.729733e-01
5.729700e-01
5.729690e-01
5.729703e-01
5.729731e-01
5.729769e-01
5.729837e-01
5.729898e-01
5.728132e-01
5.722143e-01
0.000000e+00
1.000000e+00
5.732712e-01
5.730021e-01
5.730812e-01
5.731082e-01
5.731336e-01
5.731551e-01
5.731699e-01
5.731754e-01
5.731705e-01
5.731560e-01
5.731340e-01
5.731072e-01
5.730787e-01
5.728778e-01
5.723767e-01
0.000000e+00
1.000000e+00
5.732112e-01
5.730079e-01
5.730833e-01
5.731113e-01
5.731379e-01
5.731605e-01
5.731757e-01
5.731810e-01
5.731756e-01
5.731605e-01
5.731386e-01
5.731070e-01
5.730815e-01
5.729413e-01
5.732304e-01
0.000000e+00
1.000000e+00
5.731898e-01
5.729682e-01
5.730053e-01
5.730048e-01
5.730046e-01
5.730051e-01
5.730061e-01
5.730073e-01
5.730078e-01
5.730079e-01
5.730081e-01
5.730071e-01
5.730050e-01
5.730239e-01
5.738023e-01
0.000000e+00
1.000000e+00
5.731848e-01
5.728785e-01
5.728655e-01
5.728141e-01
5.727657e-01
5.727252e-01
5.726978e-01
5.726878e-01
5.726972e-01
5.727242e-01
5.727647e-01
5.728138e-01
5.728659e-01
5.729735e-01
5.738561e-01
0.000000e+00
1.000000e+00
5.731286e-01
5.727433e-01
5.726756e-01
5.725527e-01
5.724359e-01
5.723371e-01
5.722704e-01
5.722463e-01
5.722694e-01
5.723353e-01
5.724333e-01
5.725498e-01
5.726724e-01
5.727980e-01
5.738400e-01
0.000000e+00
1.000000e+00
5.730066e-01
5.725865e-01
5.724484e-01
5.722417e-01
5.720454e-01
5.718804e-01
5.717692e-01
5.717300e-01
5.717696e-01
5.718804e-01
5.720446e-01
5.722400e-01
5.724459e-01
5.725779e-01
5.734346e-01
0.000000e+00
1.000000e+00
5.721404e-01
5.712250e-01
5.702196e-01
5.691905e-01
5.682146e-01
5.673960e-01
5.668435e-01
5.666495e-01
5.668452e-01
5.673977e-01
5.682177e-01
5.691933e-01
5.702218e-01
5.712884e-01
5.718271e-01
0.000000e+00
1.000000e+00
5.721935e-01
5.713436e-01
5.704025e-01
5.694410e-01
5.685294e-01
5.677643e-01
5.672487e-01
5.670670e-01
5.672506e-01
5.677668e-01
5.685329e-01
5.694442e-01
5.704048e-01
5.713881e-01
5.719896e-01
0.000000e+00
1.000000e+00
5.722534e-01
5.715001e-01
5.706451e-01
5.697731e-01
5.689462e-01
5.682520e-01
5.677849e-01
5.676188e-01
5.677868e-01
5.682552e-01
5.689493e-01
5.697753e-01
5.706463e-01
5.715649e-01
5.720852e-01
0.000000e+00
1.000000e+00
5.723408e-01
5.716914e-01
5.709429e-01
5.701808e-01
5.694583e-01
5.688516e-01
5.684439e-01
5.682984e-01
5.684453e-01
5.688555e-01
5.694627e-01
5.701844e-01
5.709454e-01
5.718655e-01
5.717851e-01
0.000000e+00
1.000000e+00
5.724532e-01
5.719117e-01
5.712870e-01
5.706520e-01
5.700500e-01
5.695443e-01
5.692047e-01
5.690848e-01
5.692051e-01
5.695487e-01
5.700557e-01
5.706570e-01
5.712908e-01
5.721540e-01
5.715808e-01
0.000000e+00
1.000000e+00
5.725904e-01
5.721506e-01
5.716616e-01
5.711650e-01
5.706940e-01
5.702985e-01
5.700326e-01
5.699399e-01
5.700330e-01
5.703030e-01
5.706997e-01
5.711693e-01
5.716645e-01
5.722822e-01
5.719235e-01
0.000000e+00
1.000000e+00
5.727569e-01
5.723911e-01
5.720450e-01
5.716899e-01
5.713531e-01
5.710703e-01
5.708800e-01
5.708135e-01
5.708824e-01
5.710754e-01
5.713578e-01
5.716924e-01
5.720460e-01
5.724206e-01
5.722933e-01
0.000000e+00
1.000000e+00
5.729434e-01
5.726142e-01
5.724117e-01
5.721919e-01
5.719835e-01
5.718084e-01
5.716907e-01
5.716495e-01
5.716915e-01
5.718095e-01
5.719858e-01
5.721941e-01
5.724124e-01
5.725941e-01
5.727880e-01
0.000000e+00
1.000000e+00
5.731614e-01
5.727968e-01
5.727355e-01
5.726352e-01
5.725400e-01
5.724600e-01
5.724063e-01
5.723878e-01
5.724068e-01
5.724590e-01
5.725419e-01
5.726378e-01
5.727370e-01
5.728431e-01
5.733572e-01
0.000000e+00
1.000000e+00
5.733308e-01
5.729297e-01
5.729933e-01
5.729878e-01
5.729825e-01
5.729782e-01
5.729755e-01
5.729750e-01
5.729762e-01
5.729776e-01
5.729829e-01
5.729900e-01
5.729954e-01
5.730370e-01
5.732458e-01
0.000000e+00
1.000000e+00
5.732878e-01
5.730475e-01
5.731672e-01
5.732255e-01
5.732810e-01
5.733281e-01
5.733603e-01
5.733720e-01
5.733609e-01
5.733289e-01
5.732829e-01
5.732285e-01
5.731709e-01
5.730074e-01
5.726111e-01
0.000000e+00
1.000000e+00
5.732329e-01
5.731235e-01
5.732504e-01
5.733400e-01
5.734253e-01
5.734969e-01
5.735448e-01
5.735616e-01
5.735435e-01
5.734939e-01
5.734215e-01
5.733369e-01
5.732530e-01
5.731060e-01
5.718732e-01
0.000000e+00
1.000000e+00
5.732096e-01
5.731316e-01
5.732454e-01
5.733341e-01
5.734174e-01
5.734873e-01
5.735345e-01
5.735509e-01
5.735325e-01
5.734827e-01
5.734095e-01
5.733236e-01
5.732443e-01
5.731060e-01
5.715401e-01
0.000000e+00
1.000000e+00
5.731864e-01
5.730790e-01
5.731576e-01
5.732138e-01
5.732665e-01
5.733109e-01
5.733413e-01
5.733525e-01
5.733420e-01
5.733125e-01
5.732685e-01
5.732156e-01
5.731608e-01
5.729367e-01
5.721566e-01
0.000000e+00
1.000000e+00
5.732222e-01
5.729685e-01
5.730049e-01
5.730051e-01
5.730056e-01
5.730064e-01
5.730073e-01
5.730081e-01
5.730084e-01
5.730086e-01
5.730092e-01
5.730095e-01
5.730088e-01
5.730154e-01
5.730311e-01
0.000000e+00
1.000000e+00
5.732394e-01
5.728136e-01
5.728063e-01
5.727317e-01
5.726609e-01
5.726012e-01
5.725608e-01