<?xml version="1.0"?>
<VTKFile type="StructuredGrid" version="0.1">
  <StructuredGrid WholeExtent="0 16 0 16 0 16">
    <Piece Extent="0 16 0 16 0 16">
      <PointData Scalars="temperature" Vectors="velocity">
        <DataArray type="Float32" Name="temperature" format="ascii">
1.000000e+00
5.731205e-01
5.730232e-01
5.730433e-01
5.730574e-01
5.730707e-01
5.730818e-01
5.730893e-01
5.730919e-01
5.730891e-01
5.730816e-01
5.730705e-01
5.730570e-01
5.730422e-01
5.730461e-01
5.728282e-01
0.000000e+00
1.000000e+00
5.729870e-01
5.728091e-01
5.727098e-01
5.726000e-01
5.724958e-01
5.724082e-01
5.723491e-01
5.723281e-01
5.723487e-01
5.724074e-01
5.724948e-01
5.725991e-01
5.727064e-01
5.729248e-01
5.722995e-01
0.000000e+00
1.000000e+00
5.727729e-01
5.723532e-01
5.719929e-01
5.716182e-01
5.712629e-01
5.709643e-01
5.707630e-01
5.706915e-01
5.707623e-01
5.709631e-01
5.712624e-01
5.716195e-01
5.719893e-01
5.724748e-01
5.723903e-01
0.000000e+00
1.000000e+00
5.724313e-01
5.716351e-01
5.708652e-01
5.700743e-01
5.693244e-01
5.686942e-01
5.682697e-01
5.681192e-01
5.682696e-01
5.686949e-01
5.693282e-01
5.700822e-01
5.708678e-01
5.716961e-01
5.722356e-01
0.000000e+00
1.000000e+00
5.719538e-01
5.706512e-01
5.693238e-01
5.679639e-01
5.666745e-01
5.655911e-01
5.648613e-01
5.646032e-01
5.648629e-01
5.655955e-01
5.666849e-01
5.679803e-01
5.693352e-01
5.706998e-01
5.717640e-01
0.000000e+00
1.000000e+00
5.713527e-01
5.694189e-01
5.673936e-01
5.653211e-01
5.633560e-01
5.617051e-01
5.605935e-01
5.602011e-01
5.605978e-01
5.617148e-01
5.633743e-01
5.653475e-01
5.674136e-01
5.694649e-01
5.711805e-01
0.000000e+00
1.000000e+00
5.706530e-01
5.679751e-01
5.651325e-01
5.622251e-01
5.594686e-01
5.571531e-01
5.555944e-01
5.550450e-01
5.556026e-01
5.571695e-01
5.594957e-01
5.622624e-01
5.651615e-01
5.680228e-01
5.704907e-01
0.000000e+00
1.000000e+00
5.698820e-01
5.663771e-01
5.626308e-01
5.587998e-01
5.551677e-01
5.521170e-01
5.500639e-01
5.493410e-01
5.500765e-01
5.521416e-01
5.552038e-01
5.588488e-01
5.626684e-01
5.664279e-01
5.697316e-01
0.000000e+00
1.000000e+00
5.690772e-01
5.646998e-01
5.600051e-01
5.552045e-01
5.506534e-01
5.468312e-01
5.442593e-01
5.433544e-01
5.442766e-01
5.468652e-01
5.506983e-01
5.552650e-01
5.600506e-01
5.647552e-01
5.689330e-01
0.000000e+00
1.000000e+00
5.682745e-01
5.630275e-01
5.573868e-01
5.516195e-01
5.461522e-01
5.415608e-01
5.384719e-01
5.373856e-01
5.384935e-01
5.416039e-01
5.462048e-01
5.516916e-01
5.574390e-01
5.630857e-01
5.681394e-01
0.000000e+00
1.000000e+00
5.675129e-01
5.614448e-01
5.549091e-01
5.482273e-01
5.418932e-01
5.365742e-01
5.329960e-01
5.317378e-01
5.330214e-01
5.366239e-01
5.419535e-01
5.483098e-01
5.549665e-01
5.615065e-01
5.673871e-01
0.000000e+00
1.000000e+00
5.668325e-01
5.600286e-01
5.526925e-01
5.451926e-01
5.380834e-01
5.321136e-01
5.280975e-01
5.266854e-01
5.281260e-01
5.321675e-01
5.381504e-01
5.452843e-01
5.527535e-01
5.600919e-01
5.667168e-01
0.000000e+00
1.000000e+00
5.662623e-01
5.588404e-01
5.508330e-01
5.426471e-01
5.348876e-01
5.283720e-01
5.239885e-01
5.224470e-01
5.240190e-01
5.284284e-01
5.349593e-01
5.427457e-01
5.508972e-01
5.589071e-01
5.661542e-01
0.000000e+00
1.000000e+00
5.658224e-01
5.579216e-01
5.493949e-01
5.406786e-01
5.324164e-01
5.254785e-01
5.208108e-01
5.191689e-01
5.208421e-01
5.255358e-01
5.324904e-01
5.407804e-01
5.494620e-01
5.579902e-01
5.657199e-01
0.000000e+00
1.000000e+00
5.655224e-01
5.572918e-01
5.484089e-01
5.393289e-01
5.307221e-01
5.234947e-01
5.186318e-01
5.169207e-01
5.186630e-01
5.235512e-01
5.307968e-01
5.394292e-01
5.484789e-01
5.573634e-01
5.654201e-01
0.000000e+00
1.000000e+00
5.653564e-01
5.569504e-01
5.478742e-01
5.385971e-01
5.298035e-01
5.224190e-01
5.174500e-01
5.157009e-01
5.174801e-01
5.224733e-01
5.298753e-01
5.386935e-01
5.479444e-01
5.570305e-01
5.652667e-01
0.000000e+00
1.000000e+00
5.652992e-01
5.568767e-01
5.477621e-01
5.384443e-01
5.296126e-01
5.221966e-01
5.172069e-01
5.154508e-01
5.172379e-01
5.222529e-01
5.296861e-01
5.385438e-01
5.478372e-01
5.569727e-01
5.652396e-01
0.000000e+00
1.000000e+00
5.731983e-01
5.732335e-01
5.733785e-01
5.735153e-01
5.736449e-01
5.737537e-01
5.738269e-01
5.738526e-01
5.738261e-01
5.737523e-01
5.736431e-01
5.735146e-01
5.733775e-01
5.732389e-01
5.729039e-01
0.000000e+00
1.000000e+00
5.729863e-01
5.727935e-01
5.726850e-01
5.725660e-01
5.724532e-01
5.723583e-01
5.722942e-01
5.722713e-01
5.722936e-01
5.723574e-01
5.724523e-01
5.725686e-01
5.726860e-01
5.728730e-01
5.723034e-01
0.000000e+00
1.000000e+00
5.726263e-01
5.720815e-01
5.715675e-01
5.710356e-01
5.705313e-01
5.701073e-01
5.698216e-01
5.697202e-01
5.698211e-01
5.701069e-01
5.705323e-01
5.710439e-01
5.715723e-01
5.721641e-01
5.721842e-01
0.000000e+00
1.000000e+00
5.721517e-01
5.710834e-01
5.700016e-01
5.688916e-01
5.678390e-01
5.669545e-01
5.663586e-01
5.661477e-01
5.663595e-01
5.669574e-01
5.678460e-01
5.689053e-01
5.700133e-01
5.711405e-01
5.719179e-01
0.000000e+00
1.000000e+00
5.715505e-01
5.698024e-01
5.679940e-01
5.661431e-01
5.643881e-01
5.629137e-01
5.619207e-01
5.615702e-01
5.619248e-01
5.629223e-01
5.644034e-01
5.661644e-01
5.680134e-01
5.698503e-01
5.713092e-01
0.000000e+00
1.000000e+00
5.708066e-01
5.682660e-01
5.655883e-01
5.628492e-01
5.602523e-01
5.580708e-01
5.566023e-01
5.560846e-01
5.566099e-01
5.580856e-01
5.602757e-01
5.628801e-01
5.656153e-01
5.683143e-01
5.706011e-01
0.000000e+00
1.000000e+00
5.699654e-01
5.665259e-01
5.628642e-01
5.591193e-01
5.555690e-01
5.525870e-01
5.505801e-01
5.498732e-01
5.505920e-01
5.526089e-01
5.556008e-01
5.591617e-01
5.629004e-01
5.665769e-01
5.697775e-01
0.000000e+00
1.000000e+00
5.690631e-01
5.646563e-01
5.599378e-01
5.551123e-01
5.505377e-01
5.466960e-01
5.441110e-01
5.432013e-01
5.441282e-01
5.467271e-01
5.505779e-01
5.551681e-01
5.599830e-01
5.647123e-01
5.688923e-01
0.000000e+00
1.000000e+00
5.681518e-01
5.627493e-01
5.569527e-01
5.510249e-01
5.454057e-01
5.406871e-01
5.375128e-01
5.363964e-01
5.375353e-01
5.407295e-01
5.454529e-01
5.510943e-01
5.570063e-01
5.628108e-01
5.679870e-01
0.000000e+00
1.000000e+00
5.672636e-01
5.609043e-01
5.540648e-01
5.470708e-01
5.404412e-01
5.348747e-01
5.311303e-01
5.298138e-01
5.311575e-01
5.349280e-01
5.404954e-01
5.471531e-01
5.541257e-01
5.609711e-01
5.671127e-01
0.000000e+00
1.000000e+00
5.664509e-01
5.592178e-01
5.514256e-01
5.434573e-01
5.359046e-01
5.295632e-01
5.252977e-01
5.237982e-01
5.253289e-01
5.296239e-01
5.359669e-01
5.435514e-01
5.514919e-01
5.592909e-01
5.663118e-01
0.000000e+00
1.000000e+00
5.657575e-01
5.577731e-01
5.491646e-01
5.403619e-01
5.320186e-01
5.250134e-01
5.203013e-01
5.186447e-01
5.203352e-01
5.250781e-01
5.320882e-01
5.404664e-01
5.492354e-01
5.578534e-01
5.656262e-01
0.000000e+00
1.000000e+00
5.652106e-01
5.566312e-01
5.473771e-01
5.379149e-01
5.289464e-01
5.214163e-01
5.163508e-01
5.145696e-01
5.163863e-01
5.214825e-01
5.290208e-01
5.380260e-01
5.474508e-01
5.567198e-01
5.650883e-01
0.000000e+00
1.000000e+00
5.648255e-01
5.558263e-01
5.461169e-01
5.361899e-01
5.267808e-01
5.188803e-01
5.135654e-01
5.116960e-01
5.136014e-01
5.189464e-01
5.268587e-01
5.363024e-01
5.461926e-01
5.559305e-01
5.647238e-01
0.000000e+00
1.000000e+00
5.646036e-01
5.553669e-01
5.453972e-01
5.352049e-01
5.255442e-01
5.174322e-01
5.119744e-01
5.100543e-01
5.120099e-01
5.174965e-01
5.256251e-01
5.353115e-01
5.454724e-01
5.554757e-01
5.645444e-01
0.000000e+00
1.000000e+00
5.645339e-01
5.552382e-01
5.451954e-01
5.349292e-01
5.251983e-01
5.170271e-01
5.115292e-01
5.095944e-01
5.115637e-01
5.170894e-01
5.252787e-01
5.350293e-01
5.452701e-01
5.553425e-01
5.644578e-01
0.000000e+00
1.000000e+00
5.646625e-01
5.554062e-01
5.454643e-01
5.352984e-01
5.256626e-01
5.175711e-01
5.121265e-01
5.102097e-01
5.121590e-01
5.176302e-01
5.257400e-01
5.353967e-01
5.455459e-01
5.554959e-01
5.644817e-01
0.000000e+00
1.000000e+00
5.734305e-01
5.736863e-01
5.740882e-01
5.744876e-01
5.748663e-01
5.751844e-01
5.753985e-01
5.754739e-01
5.753971e-01
5.751819e-01
5.748634e-01
5.744871e-01
5.740946e-01
5.736987e-01
5.732972e-01
0.000000e+00
1.000000e+00
5.730962e-01
5.730144e-01
5.730310e-01
5.730399e-01
5.730483e-01
5.730553e-01
5.730597e-01
5.730609e-01
5.730584e-01
5.730529e-01
5.730461e-01
5.730442e-01
5.730347e-01
5.730464e-01
5.727553e-01
0.000000e+00
1.000000e+00
5.726111e-01
5.720397e-01
5.715004e-01
5.709443e-01
5.704168e-01
5.699735e-01
5.696746e-01
5.695686e-01
5.696743e-01
5.699734e-01
5.704197e-01
5.709591e-01
5.715105e-01
5.720820e-01
5.722819e-01
0.000000e+00
1.000000e+00
5.719728e-01
5.707506e-01
5.694812e-01
5.681789e-01
5.669439e-01
5.659061e-01
5.652070e-01
5.649597e-01
5.652088e-01
5.659102e-01
5.669553e-01
5.681974e-01
5.694975e-01
5.707882e-01
5.717651e-01
0.000000e+00
1.000000e+00
5.712253e-01
5.691609e-01
5.669902e-01
5.647681e-01
5.626612e-01
5.608913e-01
5.596995e-01
5.592791e-01
5.597055e-01
5.609019e-01
5.626827e-01
5.647929e-01
5.670128e-01
5.691994e-01
5.709934e-01
0.000000e+00
1.000000e+00
5.703503e-01
5.673086e-01
5.640893e-01
5.607965e-01
5.576748e-01
5.550529e-01
5.532882e-01
5.526668e-01
5.532994e-01
5.550710e-01
5.577064e-01
5.608313e-01
5.641202e-01
5.673535e-01
5.701310e-01
0.000000e+00
1.000000e+00
5.693702e-01
5.652617e-01
5.608852e-01
5.564097e-01
5.521670e-01
5.486040e-01
5.462065e-01
5.453628e-01
5.462226e-01
5.486295e-01
5.522069e-01
5.564561e-01
5.609260e-01
5.653129e-01
5.691694e-01
0.000000e+00
1.000000e+00
5.683424e-01
5.631137e-01
5.575231e-01
5.518063e-01
5.463871e-01
5.418365e-01
5.387750e-01
5.376980e-01
5.387963e-01
5.418711e-01
5.464340e-01
5.518665e-01
5.575718e-01
5.631703e-01
5.681589e-01
0.000000e+00
1.000000e+00
5.673130e-01
5.609750e-01
5.541758e-01
5.472230e-01
5.406329e-01
5.350996e-01
5.313774e-01
5.300684e-01
5.314041e-01
5.351460e-01
5.406860e-01
5.472983e-01
5.542317e-01
5.610355e-01
5.671486e-01
0.000000e+00
1.000000e+00
5.663512e-01
5.589618e-01
5.510256e-01
5.429100e-01
5.352184e-01
5.287607e-01
5.244169e-01
5.228895e-01
5.244483e-01
5.288188e-01
5.352780e-01
5.429998e-01
5.510896e-01
5.590270e-01
5.661976e-01
0.000000e+00
1.000000e+00
5.654979e-01
5.571828e-01
5.482425e-01
5.390998e-01
5.304352e-01
5.231609e-01
5.182677e-01
5.165473e-01
5.183028e-01
5.232277e-01
5.305018e-01
5.392028e-01
5.483151e-01
5.572527e-01
5.653567e-01
0.000000e+00
1.000000e+00
5.647973e-01
5.557265e-01
5.459640e-01
5.359806e-01
5.265193e-01
5.185761e-01
5.132329e-01
5.113540e-01
5.132705e-01
5.186480e-01
5.265918e-01
5.360931e-01
5.460453e-01
5.558026e-01
5.646674e-01
0.000000e+00
1.000000e+00
5.642781e-01
5.546515e-01
5.442815e-01
5.336772e-01
5.236273e-01
5.151897e-01
5.095137e-01
5.075174e-01
5.095526e-01
5.152634e-01
5.237052e-01
5.337932e-01
5.443692e-01
5.547394e-01
5.641558e-01
0.000000e+00
1.000000e+00
5.639547e-01
5.539833e-01
5.432347e-01
5.322441e-01
5.218278e-01
5.130822e-01
5.071986e-01
5.051289e-01
5.072378e-01
5.131552e-01
5.219115e-01
5.323565e-01
5.433224e-01
5.540940e-01
5.638141e-01
0.000000e+00
1.000000e+00
5.638219e-01
5.537160e-01
5.428154e-01
5.316703e-01
5.211070e-01
5.122374e-01
5.062701e-01
5.041706e-01
5.063088e-01
5.123083e-01
5.211959e-01
5.317714e-01
5.428960e-01
5.538367e-01
5.636636e-01
0.000000e+00
1.000000e+00
5.638606e-01
5.538200e-01
5.429764e-01
5.318911e-01
5.213841e-01
5.125614e-01
5.066253e-01
5.045365e-01
5.066633e-01
5.126299e-01
5.214723e-01
5.319870e-01
5.430632e-01
5.539213e-01
5.637466e-01
0.000000e+00
1.000000e+00
5.641189e-01
5.542450e-01
5.436456e-01
5.328083e-01
5.225363e-01
5.139106e-01
5.081066e-01
5.060636e-01
5.081421e-01
5.139751e-01
5.226211e-01
5.329092e-01
5.437352e-01
5.543154e-01
5.639586e-01
0.000000e+00
1.000000e+00
5.737782e-01
5.743973e-01
5.752027e-01
5.760136e-01
5.767826e-01
5.774287e-01
5.778639e-01
5.780174e-01
5.778621e-01
5.774254e-01
5.767791e-01
5.760167e-01
5.752205e-01
5.744232e-01
5.735940e-01
0.000000e+00
1.000000e+00
5.733275e-01
5.734961e-01
5.737867e-01
5.740745e-01
5.743473e-01
5.745765e-01
5.747306e-01
5.747845e-01
5.747284e-01
5.745723e-01
5.743433e-01
5.740799e-01
5.737971e-01
5.735240e-01
5.730870e-01
0.000000e+00
1.000000e+00
5.727335e-01
5.722609e-01
5.718465e-01
5.714183e-01
5.710122e-01
5.706708e-01
5.704405e-01
5.703585e-01
5.704393e-01
5.706690e-01
5.710139e-01
5.714397e-01
5.718602e-01
5.722912e-01
5.724969e-01
0.000000e+00
1.000000e+00
5.719502e-01
5.706825e-01
5.693735e-01
5.680319e-01
5.667597e-01
5.656907e-01
5.649706e-01
5.647160e-01
5.649726e-01
5.656952e-01
5.667733e-01
5.680608e-01
5.693974e-01
5.707089e-01
5.717973e-01
0.000000e+00
1.000000e+00
5.710283e-01
5.687834e-01
5.663991e-01
5.639586e-01
5.616445e-01
5.597004e-01
5.583915e-01
5.579301e-01
5.583990e-01
5.597131e-01
5.616694e-01
5.639911e-01
5.664306e-01
5.688126e-01
5.708612e-01
0.000000e+00
1.000000e+00
5.699999e-01
5.666143e-01
5.630033e-01
5.593091e-01
5.558068e-01
5.528655e-01
5.508865e-01
5.501903e-01
5.509006e-01
5.528870e-01
5.558432e-01
5.593504e-01
5.630408e-01
5.666515e-01
5.698158e-01
0.000000e+00
1.000000e+00
5.688962e-01
5.642619e-01
5.593205e-01
5.542671e-01
5.494769e-01
5.454548e-01
5.427491e-01
5.417978e-01
5.427694e-01
5.454835e-01
5.495229e-01
5.543207e-01
5.593644e-01
5.643080e-01
5.686916e-01
0.000000e+00
1.000000e+00
5.677488e-01
5.618398e-01
5.555284e-01
5.490754e-01
5.429592e-01
5.378239e-01
5.343695e-01
5.331546e-01
5.343942e-01
5.378595e-01
5.430128e-01
5.491431e-01
5.555775e-01
5.618926e-01
5.675504e-01
0.000000e+00
1.000000e+00
5.666178e-01
5.594775e-01
5.518311e-01
5.440134e-01
5.366043e-01
5.303836e-01
5.261990e-01
5.247273e-01
5.262285e-01
5.304295e-01
5.366656e-01
5.440970e-01
5.518865e-01
5.595363e-01
5.664342e-01
0.000000e+00
1.000000e+00
5.655796e-01
5.573084e-01
5.484372e-01
5.393674e-01
5.307724e-01
5.235562e-01
5.187018e-01
5.169945e-01
5.187357e-01
5.236135e-01
5.308404e-01
5.394668e-01
5.485024e-01
5.573745e-01
5.654093e-01
0.000000e+00
1.000000e+00
5.647040e-01
5.554535e-01
5.455348e-01
5.353947e-01
5.257858e-01
5.177183e-01
5.122910e-01
5.103820e-01
5.123282e-01
5.177851e-01
5.258585e-01
5.355070e-01
5.456116e-01
5.555258e-01
5.645291e-01
0.000000e+00
1.000000e+00
5.640055e-01
5.540034e-01
5.432673e-01
5.322910e-01
5.218895e-01
5.131564e-01
5.072812e-01
5.052144e-01
5.073208e-01
5.132298e-01
5.219659e-01
5.324096e-01
5.433568e-01
5.540832e-01
5.638365e-01
0.000000e+00
1.000000e+00
5.635193e-01
5.530133e-01
5.417196e-01
5.301717e-01
5.192283e-01
5.100401e-01
5.038585e-01
5.016838e-01
5.038995e-01
5.101168e-01
5.193098e-01
5.302866e-01
5.418193e-01
5.531014e-01
5.633507e-01
0.000000e+00
1.000000e+00
5.632599e-01
5.524985e-01
5.409136e-01
5.290676e-01
5.178411e-01
5.084150e-01
5.020733e-01
4.998420e-01
5.021147e-01
5.084920e-01
5.179299e-01
5.291705e-01
5.410140e-01
5.525943e-01
5.631058e-01
0.000000e+00
1.000000e+00
5.632173e-01
5.524374e-01
5.408163e-01
5.289339e-01
5.176722e-01
5.082164e-01
5.018545e-01
4.996161e-01
5.018957e-01
5.082919e-01
5.177667e-01
5.290276e-01
5.409089e-01
5.525300e-01
5.630725e-01
0.000000e+00
1.000000e+00
5.633764e-01
5.527825e-01
5.413537e-01
5.296695e-01
5.185952e-01
5.092964e-01
5.030401e-01
5.008390e-01
5.030809e-01
5.093698e-01
5.186871e-01
5.297689e-01
5.414510e-01
5.528660e-01
5.632503e-01
0.000000e+00
1.000000e+00
5.637504e-01
5.534663e-01
5.424268e-01
5.311397e-01
5.204418e-01
5.114589e-01
5.054149e-01
5.032882e-01
5.054539e-01
5.115289e-01
5.205315e-01
5.312551e-01
5.425202e-01
5.535349e-01
5.635865e-01
0.000000e+00
1.000000e+00
5.742488e-01
5.753677e-01
5.767231e-01
5.780956e-01
5.793970e-01
5.804906e-01
5.812274e-01
5.814879e-01
5.812259e-01
5.804877e-01
5.793952e-01
5.781090e-01
5.767582e-01
5.754038e-01
5.740857e-01
0.000000e+00
1.000000e+00
5.736917e-01
5.742499e-01
5.749678e-01
5.756919e-01
5.763785e-01
5.769554e-01
5.773438e-01
5.774805e-01
5.773411e-01
5.769503e-01
5.763734e-01
5.756996e-01
5.749937e-01
5.742861e-01
5.735084e-01
0.000000e+00
1.000000e+00
5.729702e-01
5.727659e-01
5.726382e-01
5.725020e-01
5.723729e-01
5.722642e-01
5.721908e-01
5.721642e-01
5.721888e-01
5.722608e-01
5.723734e-01
5.725250e-01
5.726598e-01
5.727999e-01
5.728167e-01
0.000000e+00
1.000000e+00
5.720704e-01
5.709119e-01
5.697318e-01
5.685228e-01
5.673763e-01
5.664129e-01
5.657641e-01
5.655347e-01
5.657654e-01
5.664166e-01
5.673916e-01
5.685602e-01
5.697619e-01
5.709400e-01
5.719754e-01
0.000000e+00
1.000000e+00
5.709903e-01
5.687171e-01
5.662942e-01
5.638152e-01
5.614646e-01
5.594900e-01
5.581609e-01
5.576929e-01
5.581688e-01
5.595049e-01
5.614932e-01
5.638560e-01
5.663342e-01
5.687441e-01
5.709201e-01
0.000000e+00
1.000000e+00
5.698067e-01
5.662460e-01
5.624269e-01
5.585194e-01
5.548149e-01
5.517039e-01
5.496110e-01
5.488755e-01
5.496267e-01
5.517289e-01
5.548554e-01
5.585678e-01
5.624706e-01
5.662767e-01
5.697185e-01
0.000000e+00
1.000000e+00
5.685663e-01
5.636030e-01
5.582903e-01
5.528557e-01
5.477047e-01
5.433803e-01
5.404721e-01
5.394506e-01
5.404947e-01
5.434122e-01
5.477567e-01
5.529183e-01
5.583395e-01
5.636419e-01
5.684287e-01
0.000000e+00
1.000000e+00
5.673137e-01
5.609237e-01
5.540945e-01
5.471122e-01
5.404954e-01
5.349406e-01
5.312047e-01
5.298913e-01
5.312311e-01
5.349765e-01
5.405565e-01
5.471917e-01
5.541495e-01
5.609704e-01
5.671352e-01
0.000000e+00
1.000000e+00
5.661102e-01
5.583582e-01
5.500769e-01
5.416131e-01
5.335925e-01
5.268587e-01
5.223285e-01
5.207345e-01
5.223581e-01
5.269011e-01
5.336606e-01
5.417096e-01
5.501384e-01
5.584134e-01
5.659008e-01
0.000000e+00
1.000000e+00
5.650153e-01
5.560554e-01
5.464715e-01
5.366783e-01
5.273978e-01
5.196057e-01
5.143633e-01
5.125186e-01
5.143975e-01
5.196590e-01
5.274718e-01
5.367910e-01
5.465421e-01
5.561175e-01
5.648057e-01
0.000000e+00
1.000000e+00
5.641145e-01
5.541458e-01
5.434817e-01
5.325871e-01
5.222624e-01
5.135929e-01
5.077599e-01
5.057074e-01
5.077974e-01
5.136555e-01
5.223393e-01
5.327112e-01
5.435648e-01
5.542103e-01
5.639001e-01
0.000000e+00
1.000000e+00
5.634454e-01
5.527218e-01
5.412543e-01
5.295386e-01
5.184353e-01
5.091118e-01
5.028385e-01
5.006309e-01
5.028783e-01
5.091818e-01
5.185149e-01
5.296653e-01
5.413541e-01
5.527884e-01
5.632214e-01
0.000000e+00
1.000000e+00
5.629911e-01
5.518291e-01
5.398644e-01
5.276347e-01
5.160442e-01
5.063118e-01
4.997634e-01
4.974589e-01
4.998049e-01
5.063869e-01
5.161296e-01
5.277517e-01
5.399799e-01
5.519044e-01
5.628000e-01
0.000000e+00
1.000000e+00
5.627884e-01
5.514754e-01
5.393139e-01
5.268790e-01
5.150942e-01
5.051988e-01
4.985410e-01
4.961981e-01
4.985833e-01
5.052767e-01
5.151876e-01
5.269796e-01
5.394283e-01
5.515655e-01
5.626313e-01
0.000000e+00
1.000000e+00
5.628442e-01
5.516226e-01
5.395431e-01
5.271914e-01
5.154854e-01
5.056564e-01
4.990434e-01
4.967167e-01
4.990862e-01
5.057351e-01
5.155822e-01
5.272889e-01
5.396511e-01
5.517145e-01
5.627027e-01
0.000000e+00
1.000000e+00
5.631087e-01
5.522047e-01
5.404511e-01
5.284340e-01
5.170448e-01
5.074820e-01
5.010483e-01
4.987851e-01
5.010912e-01
5.075599e-01
5.171374e-01
5.285471e-01
5.405583e-01
5.522828e-01
5.629890e-01
0.000000e+00
1.000000e+00
5.636042e-01
5.531388e-01
5.419136e-01
5.304372e-01
5.195602e-01
5.104272e-01
5.042828e-01
5.021215e-01
5.043246e-01
5.105023e-01
5.196525e-01
5.305677e-01
5.419999e-01
5.532127e-01
5.634101e-01
0.000000e+00
1.000000e+00
5.748454e-01
5.765790e-01
5.786225e-01
5.806964e-01
5.826630e-01
5.843158e-01
5.854295e-01
5.858238e-01
5.854291e-01
5.843158e-01
5.826700e-01
5.807286e-01
5.786716e-01
5.766267e-01
5.746575e-01
0.000000e+00
1.000000e+00
5.741925e-01
5.752662e-01
5.765607e-01
5.778731e-01
5.791178e-01
5.801637e-01
5.808682e-01
5.811171e-01
5.808659e-01
5.801591e-01
5.791149e-01
5.778914e-01
5.766075e-01
5.753153e-01
5.739836e-01
0.000000e+00
1.000000e+00
5.733539e-01
5.735570e-01
5.738777e-01
5.741993e-01
5.745044e-01
5.747607e-01
5.749331e-01
5.749934e-01
5.749305e-01
5.747555e-01
5.745032e-01
5.742224e-01
5.739145e-01
5.736026e-01
5.731978e-01
0.000000e+00
1.000000e+00
5.723366e-01
5.714529e-01
5.705786e-01
5.696822e-01
5.688323e-01
5.681181e-01
5.676370e-01
5.674667e-01
5.676375e-01
5.681203e-01
5.688492e-01
5.697271e-01
5.706153e-01
5.714899e-01
5.722228e-01
0.000000e+00
1.000000e+00
5.711284e-01
5.689911e-01
5.667221e-01
5.644016e-01
5.622014e-01
5.603531e-01
5.591091e-01
5.586711e-01
5.591163e-01
5.603682e-01
5.622351e-01
5.644489e-01
5.667717e-01
5.690267e-01
5.710617e-01
0.000000e+00
1.000000e+00
5.697990e-01
5.662495e-01
5.624308e-01
5.585249e-01
5.548216e-01
5.517117e-01
5.496201e-01
5.488857e-01
5.496363e-01
5.517386e-01
5.548690e-01
5.585775e-01
5.624823e-01
5.662835e-01
5.697533e-01
0.000000e+00
1.000000e+00
5.684267e-01
5.633481e-01
5.578913e-01
5.523089e-01
5.470176e-01
5.425758e-01
5.395894e-01
5.385410e-01
5.396124e-01
5.426096e-01
5.470782e-01
5.523754e-01
5.579455e-01
5.633867e-01
5.683514e-01
0.000000e+00
1.000000e+00
5.670645e-01
5.604425e-01
5.533428e-01
5.460825e-01
5.392030e-01
5.334287e-01
5.295458e-01
5.281809e-01
5.295716e-01
5.334657e-01
5.392736e-01
5.461690e-01
5.534009e-01
5.604863e-01
5.669441e-01
0.000000e+00
1.000000e+00
5.658019e-01
5.577047e-01
5.490529e-01
5.402128e-01
5.318365e-01
5.248042e-01
5.200730e-01
5.184073e-01
5.200998e-01
5.248449e-01
5.319122e-01
5.403189e-01
5.491179e-01
5.577565e-01
5.656045e-01
0.000000e+00
1.000000e+00
5.646984e-01
5.553015e-01
5.452821e-01
5.350529e-01
5.253583e-01
5.172171e-01
5.117390e-01
5.098104e-01
5.117704e-01
5.172666e-01
5.254373e-01
5.351741e-01
5.453549e-01
5.553552e-01
5.644458e-01
0.000000e+00
1.000000e+00
5.638087e-01
5.533698e-01
5.422440e-01
5.308945e-01
5.201368e-01
5.111029e-01
5.050243e-01
5.028847e-01
5.050600e-01
5.111622e-01
5.202192e-01
5.310260e-01
5.423288e-01
5.534141e-01
5.635300e-01
0.000000e+00
1.000000e+00
5.632111e-01
5.519941e-01
5.400849e-01
5.279385e-01
5.164250e-01
5.067565e-01
5.002507e-01
4.979604e-01
5.002890e-01
5.068237e-01
5.165101e-01
5.280712e-01
5.401867e-01
5.520315e-01
5.628757e-01
0.000000e+00
1.000000e+00
5.627283e-01
5.511976e-01
5.388657e-01
5.262682e-01
5.143279e-01
5.043012e-01
4.975545e-01
4.951796e-01
4.975955e-01
5.043756e-01
5.144200e-01
5.263919e-01
5.389815e-01
5.512584e-01
5.625079e-01
0.000000e+00
1.000000e+00
5.625871e-01
5.510002e-01
5.385688e-01
5.258600e-01
5.138152e-01
5.037012e-01
4.968961e-01
4.945012e-01
4.969390e-01
5.037806e-01
5.139140e-01
5.259720e-01
5.386847e-01
5.510829e-01
5.624112e-01
0.000000e+00
1.000000e+00
5.627245e-01
5.513451e-01
5.391101e-01
5.266000e-01
5.147440e-01
5.047891e-01
4.980915e-01
4.957349e-01
4.981349e-01
5.048703e-01
5.148418e-01
5.267141e-01
5.392264e-01
5.514288e-01
5.625822e-01
0.000000e+00
1.000000e+00
5.631051e-01
5.521480e-01
5.403636e-01
5.283147e-01
5.168959e-01
5.073084e-01
5.008586e-01
4.985900e-01
5.009025e-01
5.073896e-01
5.169878e-01
5.284417e-01
5.404697e-01
5.522267e-01
5.629805e-01
0.000000e+00
1.000000e+00
5.636858e-01
5.533091e-01
5.421794e-01
5.308009e-01
5.200172e-01
5.109631e-01
5.048722e-01
5.027304e-01
5.049156e-01
5.110424e-01
5.201105e-01
5.309390e-01
5.422648e-01
5.533993e-01
5.634365e-01
0.000000e+00
1.000000e+00
5.755485e-01
5.779922e-01
5.808411e-01
5.837342e-01
5.864779e-01
5.887839e-01
5.903382e-01
5.908893e-01
5.903406e-01
5.887909e-01
5.865016e-01
5.837858e-01
5.809015e-01
5.780502e-01
5.753420e-01
0.000000e+00
1.000000e+00
5.748161e-01
5.765119e-01
5.785160e-01
5.805506e-01
5.824802e-01
5.841019e-01
5.851947e-01
5.855816e-01
5.851940e-01
5.841006e-01
5.824878e-01
5.805909e-01
5.785824e-01
5.765738e-01
5.745813e-01
0.000000e+00
1.000000e+00
5.738791e-01
5.746111e-01
5.755308e-01
5.764630e-01
5.773472e-01
5.780902e-01
5.785906e-01
5.787671e-01
5.785880e-01
5.780846e-01
5.773455e-01
5.764902e-01
5.755910e-01
5.746706e-01
5.737205e-01
0.000000e+00
1.000000e+00
5.727422e-01
5.722946e-01
5.718972e-01
5.714876e-01
5.710994e-01
5.707736e-01
5.705543e-01
5.704766e-01
5.705540e-01
5.707739e-01
5.711155e-01
5.715338e-01
5.719447e-01
5.723414e-01
5.726250e-01
0.000000e+00
1.000000e+00
5.714378e-01
5.696081e-01
5.676880e-01
5.657245e-01
5.638630e-01
5.622994e-01
5.612468e-01
5.608759e-01
5.612530e-01
5.623133e-01
5.639027e-01
5.657777e-01
5.677468e-01
5.696541e-01
5.713311e-01
0.000000e+00
1.000000e+00
5.699929e-01
5.666425e-01
5.630447e-01
5.593661e-01
5.558786e-01
5.529498e-01
5.509797e-01
5.502879e-01
5.509955e-01
5.529761e-01
5.559326e-01
5.594221e-01
5.631069e-01
5.666840e-01
5.699192e-01
0.000000e+00
1.000000e+00
5.685038e-01
5.635322e-01
5.581778e-01
5.527010e-01
5.475097e-01
5.431517e-01
5.402222e-01
5.391939e-01
5.402456e-01
5.431860e-01
5.475775e-01
5.527684e-01
5.582382e-01
5.635739e-01
5.684367e-01
0.000000e+00
1.000000e+00
5.670463e-01
5.604477e-01
5.533517e-01
5.460938e-01
5.392169e-01
5.334452e-01
5.295645e-01
5.281998e-01
5.295893e-01
5.334832e-01
5.392959e-01
5.461798e-01
5.534127e-01
5.604914e-01
5.669561e-01
0.000000e+00
1.000000e+00
5.657119e-01
5.575775e-01
5.488575e-01
5.399455e-01
5.315019e-01
5.244133e-01
5.196443e-01
5.179641e-01
5.196684e-01
5.244547e-01
5.315872e-01
5.400515e-01
5.489242e-01
5.576295e-01
5.655458e-01
0.000000e+00
1.000000e+00
5.646169e-01
5.551109e-01
5.449777e-01
5.346380e-01
5.248377e-01
5.166074e-01
5.110682e-01
5.091167e-01
5.110967e-01
5.166557e-01
5.249247e-01
5.347575e-01
5.450492e-01
5.551590e-01
5.643384e-01
0.000000e+00
1.000000e+00
5.639171e-01
5.531968e-01
5.419352e-01
5.304701e-01
5.196024e-01
5.104760e-01
5.043343e-01
5.021718e-01
5.043690e-01
5.105352e-01
5.196933e-01
5.305992e-01
5.420115e-01
5.532135e-01
5.634255e-01
0.000000e+00
1.000000e+00
5.633776e-01
5.518794e-01
5.398665e-01
5.276369e-01
5.160450e-01
5.063109e-01
4.997607e-01
4.974546e-01
4.997990e-01
5.063793e-01
5.161401e-01
5.277697e-01
5.399533e-01
5.518901e-01
5.628018e-01
0.000000e+00
1.000000e+00
5.627954e-01
5.511831e-01
5.388212e-01
5.262068e-01
5.142502e-01
5.042099e-01
4.974539e-01
4.950758e-01
4.974951e-01
5.042855e-01
5.143508e-01
5.263325e-01
5.389209e-01
5.512321e-01
5.624942e-01
0.000000e+00
1.000000e+00
5.626707e-01
5.511281e-01
5.387630e-01
5.261274e-01
5.141515e-01
5.040951e-01
4.973287e-01
4.949473e-01
4.973712e-01
5.041749e-01
5.142537e-01
5.262484e-01
5.388698e-01
5.512053e-01
5.624493e-01
0.000000e+00
1.000000e+00
5.629059e-01
5.516505e-01
5.395859e-01
5.272523e-01
5.155638e-01
5.057497e-01
4.991468e-01
4.968237e-01
4.991901e-01
5.058315e-01
5.156611e-01
5.273815e-01
5.396959e-01
5.517294e-01
5.627086e-01
0.000000e+00
1.000000e+00
5.633522e-01
5.526432e-01
5.411393e-01
5.293771e-01
5.182304e-01
5.088716e-01
5.025759e-01
5.003620e-01
5.026200e-01
5.089540e-01
5.183214e-01
5.295110e-01
5.412391e-01
5.527344e-01
5.632008e-01
0.000000e+00
1.000000e+00
5.639988e-01
5.539953e-01
5.432536e-01
5.322713e-01
5.218633e-01
5.131251e-01
5.072473e-01
5.051813e-01
5.072913e-01
5.132067e-01
5.219562e-01
5.324105e-01
5.433392e-01
5.541015e-01
5.636745e-01
0.000000e+00
1.000000e+00
5.763182e-01
5.795497e-01
5.832877e-01
5.870843e-01
5.906850e-01
5.937115e-01
5.957518e-01
5.964763e-01
5.957584e-01
5.937292e-01
5.907286e-01
5.871506e-01
5.833568e-01
5.796210e-01
5.760807e-01
0.000000e+00
1.000000e+00
5.755190e-01
5.779340e-01
5.807487e-01
5.836079e-01
5.863195e-01
5.885988e-01
5.901351e-01
5.906799e-01
5.901371e-01
5.886049e-01
5.863475e-01
5.836720e-01
5.808276e-01
5.780082e-01
5.752592e-01
0.000000e+00
1.000000e+00
5.745036e-01
5.758807e-01
5.775224e-01
5.791903e-01
5.807721e-01
5.821016e-01
5.829975e-01
5.833143e-01
5.829959e-01
5.820980e-01
5.807791e-01
5.792356e-01
5.776077e-01
5.759559e-01
5.743197e-01
0.000000e+00
1.000000e+00
5.732798e-01
5.733986e-01
5.736275e-01
5.738569e-01
5.740749e-01
5.742584e-01
5.743822e-01
5.744257e-01
5.743810e-01
5.742561e-01
5.740876e-01
5.738988e-01
5.736926e-01
5.734590e-01
5.731627e-01
0.000000e+00
1.000000e+00
5.718894e-01
5.705405e-01
5.691485e-01
5.677243e-01
5.663742e-01
5.652406e-01
5.644780e-01
5.642095e-01
5.644834e-01
5.652526e-01
5.664178e-01
5.677827e-01
5.692158e-01
5.705967e-01
5.717808e-01
0.000000e+00
1.000000e+00
5.703734e-01
5.674090e-01
5.642447e-01
5.610097e-01
5.579431e-01
5.553679e-01
5.536354e-01
5.530268e-01
5.536507e-01
5.553940e-01
5.580022e-01
5.610690e-01
5.643197e-01
5.674615e-01
5.702871e-01
0.000000e+00
1.000000e+00
5.688010e-01
5.641514e-01
5.591457e-01
5.540272e-01
5.491754e-01
5.451021e-01
5.423637e-01
5.414023e-01
5.423870e-01
5.451359e-01
5.492464e-01
5.540934e-01
5.592149e-01
5.641960e-01
5.687550e-01
0.000000e+00
1.000000e+00
5.672761e-01
5.609496e-01
5.541358e-01
5.471672e-01
5.405641e-01
5.350218e-01
5.312955e-01
5.299855e-01
5.313208e-01
5.350607e-01
5.406477e-01
5.472465e-01
5.542010e-01
5.609910e-01
5.672338e-01
0.000000e+00
1.000000e+00
5.658863e-01
5.580008e-01
5.495225e-01
5.408548e-01
5.326427e-01
5.257482e-01
5.211099e-01
5.194763e-01
5.211343e-01
5.257915e-01
5.327353e-01
5.409507e-01
5.495890e-01
5.580465e-01
5.657852e-01
0.000000e+00
1.000000e+00
5.647395e-01
5.555012e-01
5.455991e-01
5.354877e-01
5.259042e-01
5.178562e-01
5.124396e-01
5.105309e-01
5.124676e-01
5.179062e-01
5.260002e-01
5.355969e-01
5.456680e-01
5.555466e-01
5.645406e-01
0.000000e+00
1.000000e+00
5.641425e-01
5.536154e-01
5.425934e-01
5.313706e-01
5.207324e-01
5.117993e-01
5.057874e-01
5.036703e-01
5.058219e-01
5.118598e-01
5.208324e-01
5.314889e-01
5.426634e-01
5.536278e-01
5.636278e-01
0.000000e+00
1.000000e+00
5.637530e-01
5.523821e-01
5.406352e-01
5.286891e-01
5.173658e-01
5.078572e-01
5.014589e-01
4.992066e-01
5.014972e-01
5.079264e-01
5.174687e-01
5.288112e-01
5.407105e-01
5.523777e-01
5.630327e-01
0.000000e+00
1.000000e+00
5.631729e-01
5.517979e-01
5.397612e-01
5.274941e-01
5.158663e-01
5.061019e-01
4.995316e-01
4.972188e-01
4.995716e-01
5.061762e-01
5.159704e-01
5.276136e-01
5.398465e-01
5.518231e-01
5.627777e-01
0.000000e+00
1.000000e+00
5.630606e-01
5.518697e-01
5.399152e-01
5.277054e-01
5.161333e-01
5.064159e-01
4.998775e-01
4.975764e-01
4.999187e-01
5.064941e-01
5.162346e-01
5.278296e-01
5.400134e-01
5.519357e-01
5.627827e-01
0.000000e+00
1.000000e+00
5.633326e-01
5.525388e-01
5.409741e-01
5.291526e-01
5.179499e-01
5.085439e-01
5.022159e-01
4.999898e-01
5.022581e-01
5.086244e-01
5.180452e-01
5.292855e-01
5.410707e-01
5.526172e-01
5.631058e-01
0.000000e+00
1.000000e+00
5.638418e-01
5.536832e-01
5.427677e-01
5.316061e-01
5.210288e-01
5.121485e-01
5.061751e-01