<?xml version="1.0"?>
<VTKFile type="StructuredGrid" version="0.1">
  <StructuredGrid WholeExtent="0 16 0 16 0 16">
    <Piece Extent="0 16 0 16 0 16">
      <PointData Scalars="temperature" Vectors="velocity">
        <DataArray type="Float32" Name="temperature" format="ascii">
1.000000e+00
5.733378e-01
5.730229e-01
5.730530e-01
5.730670e-01
5.730802e-01
5.730912e-01
5.730985e-01
5.731010e-01
5.730982e-01
5.730908e-01
5.730796e-01
5.730663e-01
5.730508e-01
5.730920e-01
5.724537e-01
0.000000e+00
1.000000e+00
5.733564e-01
5.732267e-01
5.733902e-01
5.735251e-01
5.736530e-01
5.737603e-01
5.738321e-01
5.738569e-01
5.738300e-01
5.737566e-01
5.736481e-01
5.735235e-01
5.733880e-01
5.732447e-01
5.724962e-01
0.000000e+00
1.000000e+00
5.736225e-01
5.736735e-01
5.740931e-01
5.744894e-01
5.748651e-01
5.751805e-01
5.753925e-01
5.754663e-01
5.753886e-01
5.751736e-01
5.748571e-01
5.744894e-01
5.741138e-01
5.737097e-01
5.732356e-01
0.000000e+00
1.000000e+00
5.739916e-01
5.743791e-01
5.752027e-01
5.760090e-01
5.767736e-01
5.774158e-01
5.778479e-01
5.779994e-01
5.778430e-01
5.774066e-01
5.767637e-01
5.760197e-01
5.752593e-01
5.744571e-01
5.734477e-01
0.000000e+00
1.000000e+00
5.744814e-01
5.753431e-01
5.767174e-01
5.780832e-01
5.793785e-01
5.804669e-01
5.811998e-01
5.814581e-01
5.811956e-01
5.804590e-01
5.793741e-01
5.781253e-01
5.768265e-01
5.754526e-01
5.740014e-01
0.000000e+00
1.000000e+00
5.751192e-01
5.765456e-01
5.786103e-01
5.806752e-01
5.826338e-01
5.842800e-01
5.853894e-01
5.857822e-01
5.853890e-01
5.842812e-01
5.826563e-01
5.807747e-01
5.787624e-01
5.766902e-01
5.745629e-01
0.000000e+00
1.000000e+00
5.758827e-01
5.779452e-01
5.808215e-01
5.837033e-01
5.864370e-01
5.887352e-01
5.902852e-01
5.908365e-01
5.902930e-01
5.887574e-01
5.865112e-01
5.838605e-01
5.810085e-01
5.781208e-01
5.752702e-01
0.000000e+00
1.000000e+00
5.767083e-01
5.794864e-01
5.832607e-01
5.870435e-01
5.906323e-01
5.936502e-01
5.956869e-01
5.964142e-01
5.957073e-01
5.937048e-01
5.907672e-01
5.872432e-01
5.834744e-01
5.797019e-01
5.760024e-01
0.000000e+00
1.000000e+00
5.775638e-01
5.810997e-01
5.858121e-01
5.905371e-01
5.950203e-01
5.987911e-01
6.013374e-01
6.022497e-01
6.013742e-01
5.988840e-01
5.952136e-01
5.907671e-01
5.860535e-01
5.813498e-01
5.766719e-01
0.000000e+00
1.000000e+00
5.783991e-01
5.827016e-01
5.883457e-01
5.940059e-01
5.993767e-01
6.038949e-01
6.069476e-01
6.080446e-01
6.070036e-01
6.040326e-01
5.996241e-01
5.942657e-01
5.886049e-01
5.829815e-01
5.772972e-01
0.000000e+00
1.000000e+00
5.791873e-01
5.842073e-01
5.907299e-01
5.972696e-01
6.034753e-01
6.086969e-01
6.122266e-01
6.134990e-01
6.123055e-01
6.088832e-01
6.037690e-01
5.975557e-01
5.910079e-01
5.845064e-01
5.780038e-01
0.000000e+00
1.000000e+00
5.799158e-01
5.855367e-01
5.928459e-01
6.001664e-01
6.071133e-01
6.129593e-01
6.169136e-01
6.183441e-01
6.170182e-01
6.131938e-01
6.074459e-01
6.004799e-01
5.931330e-01
5.858651e-01
5.786378e-01
0.000000e+00
1.000000e+00
5.805177e-01
5.866343e-01
5.946013e-01
6.025688e-01
6.101301e-01
6.164950e-01
6.208031e-01
6.223680e-01
6.209333e-01
6.167714e-01
6.104955e-01
6.029044e-01
5.948956e-01
5.869884e-01
5.791151e-01
0.000000e+00
1.000000e+00
5.809944e-01
5.874583e-01
5.959335e-01
6.043921e-01
6.124209e-01
6.191812e-01
6.237604e-01
6.254298e-01
6.239114e-01
6.194884e-01
6.128089e-01
6.047451e-01
5.962240e-01
5.878419e-01
5.794522e-01
0.000000e+00
1.000000e+00
5.813802e-01
5.879776e-01
5.968125e-01
6.055981e-01
6.139385e-01
6.209626e-01
6.257230e-01
6.274623e-01
6.258849e-01
6.212852e-01
6.143423e-01
6.059646e-01
5.971028e-01
5.883983e-01
5.797617e-01
0.000000e+00
1.000000e+00
5.816176e-01
5.881969e-01
5.972446e-01
6.061930e-01
6.146887e-01
6.218442e-01
6.266953e-01
6.284684e-01
6.268560e-01
6.221668e-01
6.151002e-01
6.065708e-01
5.975344e-01
5.886800e-01
5.798636e-01
0.000000e+00
1.000000e+00
5.816798e-01
5.881677e-01
5.972624e-01
6.062175e-01
6.147182e-01
6.218775e-01
6.267322e-01
6.285089e-01
6.268840e-01
6.221736e-01
6.151215e-01
6.065927e-01
5.975459e-01
5.887039e-01
5.796012e-01
0.000000e+00
1.000000e+00
5.732868e-01
5.730131e-01
5.730417e-01
5.730505e-01
5.730588e-01
5.730656e-01
5.730700e-01
5.730712e-01
5.730691e-01
5.730642e-01
5.730567e-01
5.730530e-01
5.730446e-01
5.730763e-01
5.723720e-01
0.000000e+00
1.000000e+00
5.734782e-01
5.734521e-01
5.737376e-01
5.740013e-01
5.742512e-01
5.744609e-01
5.746017e-01
5.746506e-01
5.745987e-01
5.744554e-01
5.742428e-01
5.739960e-01
5.737481e-01
5.735182e-01
5.725012e-01
0.000000e+00
1.000000e+00
5.738809e-01
5.741538e-01
5.748444e-01
5.755182e-01
5.761570e-01
5.766936e-01
5.770545e-01
5.771810e-01
5.770505e-01
5.766859e-01
5.761457e-01
5.755155e-01
5.748827e-01
5.742252e-01
5.733152e-01
0.000000e+00
1.000000e+00
5.743936e-01
5.751343e-01
5.763898e-01
5.776345e-01
5.788149e-01
5.798066e-01
5.804742e-01
5.807096e-01
5.804705e-01
5.797986e-01
5.788040e-01
5.776599e-01
5.764809e-01
5.752396e-01
5.736924e-01
0.000000e+00
1.000000e+00
5.750459e-01
5.763867e-01
5.783617e-01
5.803346e-01
5.822057e-01
5.837781e-01
5.848378e-01
5.852131e-01
5.848375e-01
5.837772e-01
5.822160e-01
5.804186e-01
5.785055e-01
5.765192e-01
5.744028e-01
0.000000e+00
1.000000e+00
5.758415e-01
5.778790e-01
5.807158e-01
5.835583e-01
5.862544e-01
5.885209e-01
5.900495e-01
5.905937e-01
5.900578e-01
5.885400e-01
5.863155e-01
5.837039e-01
5.808884e-01
5.780457e-01
5.750819e-01
0.000000e+00
1.000000e+00
5.767414e-01
5.795586e-01
5.833713e-01
5.871948e-01
5.908219e-01
5.938717e-01
5.959301e-01
5.966655e-01
5.959506e-01
5.939206e-01
5.909461e-01
5.873841e-01
5.835740e-01
5.797641e-01
5.758817e-01
0.000000e+00
1.000000e+00
5.776906e-01
5.813556e-01
5.862113e-01
5.910836e-01
5.957061e-01
5.995941e-01
6.022197e-01
6.031612e-01
6.022565e-01
5.996826e-01
5.958982e-01
5.913116e-01
5.864431e-01
5.815999e-01
5.766765e-01
0.000000e+00
1.000000e+00
5.786447e-01
5.831784e-01
5.890938e-01
5.950301e-01
6.006625e-01
6.054009e-01
6.086029e-01
6.097548e-01
6.086596e-01
6.055386e-01
6.009210e-01
5.952949e-01
5.893540e-01
5.834556e-01
5.774905e-01
0.000000e+00
1.000000e+00
5.795676e-01
5.849275e-01
5.918649e-01
5.988238e-01
6.054268e-01
6.109828e-01
6.147395e-01
6.160954e-01
6.148202e-01
6.111771e-01
6.057459e-01
5.991292e-01
5.921464e-01
5.852341e-01
5.782898e-01
0.000000e+00
1.000000e+00
5.804220e-01
5.865068e-01
5.943762e-01
6.022616e-01
6.097440e-01
6.160412e-01
6.203019e-01
6.218460e-01
6.204114e-01
6.162950e-01
6.101176e-01
6.026036e-01
5.946799e-01
5.868437e-01
5.790506e-01
0.000000e+00
1.000000e+00
5.811722e-01
5.878330e-01
5.965013e-01
6.051709e-01
6.133978e-01
6.203234e-01
6.250133e-01
6.267206e-01
6.251538e-01
6.206336e-01
6.138178e-01
6.055482e-01
5.968188e-01
5.882089e-01
5.796808e-01
0.000000e+00
1.000000e+00
5.817639e-01
5.888510e-01
5.981502e-01
6.074277e-01
6.162329e-01
6.236481e-01
6.286741e-01
6.305115e-01
6.288420e-01
6.240019e-01
6.166917e-01
6.078321e-01
5.984757e-01
5.892671e-01
5.801096e-01
0.000000e+00
1.000000e+00
5.822043e-01
5.895225e-01
5.992712e-01
6.089636e-01
6.181648e-01
6.259160e-01
6.311738e-01
6.331013e-01
6.313585e-01
6.262960e-01
6.186494e-01
6.093898e-01
5.995919e-01
5.899848e-01
5.804136e-01
0.000000e+00
1.000000e+00
5.825103e-01
5.898279e-01
5.998542e-01
6.097670e-01
6.191785e-01
6.271082e-01
6.324888e-01
6.344626e-01
6.326772e-01
6.274956e-01
6.196747e-01
6.102055e-01
6.001749e-01
5.903522e-01
5.806391e-01
0.000000e+00
1.000000e+00
5.826343e-01
5.897862e-01
5.999284e-01
6.098742e-01
6.193165e-01
6.272724e-01
6.326710e-01
6.346488e-01
6.328502e-01
6.276472e-01
6.197999e-01
6.103063e-01
6.002505e-01
5.904005e-01
5.806338e-01
0.000000e+00
1.000000e+00
5.825823e-01
5.894671e-01
5.995467e-01
6.093536e-01
6.186621e-01
6.265049e-01
6.318269e-01
6.337768e-01
6.319821e-01
6.268286e-01
6.191031e-01
6.097477e-01
5.998189e-01
5.901191e-01
5.805110e-01
0.000000e+00
1.000000e+00
5.731701e-01
5.727709e-01
5.726519e-01
5.725181e-01
5.723911e-01
5.722844e-01
5.722122e-01
5.721863e-01
5.722110e-01
5.722822e-01
5.723875e-01
5.725292e-01
5.726685e-01
5.728560e-01
5.725247e-01
0.000000e+00
1.000000e+00
5.734851e-01
5.734490e-01
5.737216e-01
5.739795e-01
5.742238e-01
5.744288e-01
5.745663e-01
5.746136e-01
5.745620e-01
5.744205e-01
5.742100e-01
5.739742e-01
5.737513e-01
5.735500e-01
5.728591e-01
0.000000e+00
1.000000e+00
5.739941e-01
5.744121e-01
5.752446e-01
5.760652e-01
5.768433e-01
5.774968e-01
5.779362e-01
5.780900e-01
5.779301e-01
5.774839e-01
5.768211e-01
5.760578e-01
5.753044e-01
5.745206e-01
5.731727e-01
0.000000e+00
1.000000e+00
5.746416e-01
5.756790e-01
5.772421e-01
5.788011e-01
5.802794e-01
5.815214e-01
5.823577e-01
5.826524e-01
5.823525e-01
5.815091e-01
5.802608e-01
5.788445e-01
5.773692e-01
5.758070e-01
5.737079e-01
0.000000e+00
1.000000e+00
5.754616e-01
5.772338e-01
5.796913e-01
5.821548e-01
5.844910e-01
5.864545e-01
5.877779e-01
5.882473e-01
5.877792e-01
5.864570e-01
5.845198e-01
5.822771e-01
5.798484e-01
5.773832e-01
5.744876e-01
0.000000e+00
1.000000e+00
5.764433e-01
5.790286e-01
5.825273e-01
5.860385e-01
5.893690e-01
5.921690e-01
5.940580e-01
5.947317e-01
5.940717e-01
5.922012e-01
5.894672e-01
5.862102e-01
5.827079e-01
5.792138e-01
5.753714e-01
0.000000e+00
1.000000e+00
5.774974e-01
5.809984e-01
5.856438e-01
5.903062e-01
5.947293e-01
5.984491e-01
6.009607e-01
6.018599e-01
6.009901e-01
5.985206e-01
5.949001e-01
5.905174e-01
5.858558e-01
5.812263e-01
5.763323e-01
0.000000e+00
1.000000e+00
5.785691e-01
5.830560e-01
5.888953e-01
5.947578e-01
6.003200e-01
6.049995e-01
6.081618e-01
6.092981e-01
6.082113e-01
6.051233e-01
6.005668e-01
5.950157e-01
5.891346e-01
5.833181e-01
5.773112e-01
0.000000e+00
1.000000e+00
5.796377e-01
5.850874e-01
5.921097e-01
5.991584e-01
6.058469e-01
6.114755e-01
6.152823e-01
6.166550e-01
6.153574e-01
6.116638e-01
6.061677e-01
5.994681e-01
5.923743e-01
5.853803e-01
5.782897e-01
0.000000e+00
1.000000e+00
5.806669e-01
5.869732e-01
5.951077e-01
6.032636e-01
6.110031e-01
6.175180e-01
6.219274e-01
6.235237e-01
6.220350e-01
6.177777e-01
6.113924e-01
6.036273e-01
5.953988e-01
5.873001e-01
5.792001e-01
0.000000e+00
1.000000e+00
5.815745e-01
5.886106e-01
5.977258e-01
6.068489e-01
6.155065e-01
6.227954e-01
6.277332e-01
6.295295e-01
6.278783e-01
6.231255e-01
6.159576e-01
6.072598e-01
5.980426e-01
5.889762e-01
5.799873e-01
0.000000e+00
1.000000e+00
5.823213e-01
5.899152e-01
5.998326e-01
6.097331e-01
6.191285e-01
6.270420e-01
6.324094e-01
6.343717e-01
6.325905e-01
6.274328e-01
6.196349e-01
6.101826e-01
6.001685e-01
5.903234e-01
5.806002e-01
0.000000e+00
1.000000e+00
5.828812e-01
5.908307e-01
6.013412e-01
6.117982e-01
6.217244e-01
6.300893e-01
6.357683e-01
6.378520e-01
6.359744e-01
6.305199e-01
6.222758e-01
6.122789e-01
6.016825e-01
5.912910e-01
5.809894e-01
0.000000e+00
1.000000e+00
5.832598e-01
5.913238e-01
6.022155e-01
6.129991e-01
6.232382e-01
6.318691e-01
6.377313e-01
6.398847e-01
6.379461e-01
6.323145e-01
6.238155e-01
6.135072e-01
6.025516e-01
5.918480e-01
5.812196e-01
0.000000e+00
1.000000e+00
5.834701e-01
5.913866e-01
6.024704e-01
6.133568e-01
6.236923e-01
6.324044e-01
6.383209e-01
6.404922e-01
6.385304e-01
6.328435e-01
6.242709e-01
6.138681e-01
6.028045e-01
5.920079e-01
5.813502e-01
0.000000e+00
1.000000e+00
5.834715e-01
5.910541e-01
6.021619e-01
6.129408e-01
6.231703e-01
6.317919e-01
6.376450e-01
6.397871e-01
6.378382e-01
6.322052e-01
6.237170e-01
6.134232e-01
6.024850e-01
5.918047e-01
5.812525e-01
0.000000e+00
1.000000e+00
5.832002e-01
5.904378e-01
6.013658e-01
6.118502e-01
6.217972e-01
6.301799e-01
6.358698e-01
6.379471e-01
6.360283e-01
6.305386e-01
6.222839e-01
6.122757e-01
6.016358e-01
5.912570e-01
5.810948e-01
0.000000e+00
1.000000e+00
5.728850e-01
5.722627e-01
5.718540e-01
5.714251e-01
5.710184e-01
5.706766e-01
5.704462e-01
5.703642e-01
5.704451e-01
5.706755e-01
5.710159e-01
5.714541e-01
5.718924e-01
5.723252e-01
5.724066e-01
0.000000e+00
1.000000e+00
5.733583e-01
5.731768e-01
5.732887e-01
5.733878e-01
5.734817e-01
5.735602e-01
5.736124e-01
5.736294e-01
5.736075e-01
5.735508e-01
5.734650e-01
5.733970e-01
5.733367e-01
5.732556e-01
5.730591e-01
0.000000e+00
1.000000e+00
5.739755e-01
5.744075e-01
5.752270e-01
5.760412e-01
5.768131e-01
5.774613e-01
5.778970e-01
5.780489e-01
5.778888e-01
5.774435e-01
5.767804e-01
5.760356e-01
5.753223e-01
5.745334e-01
5.734714e-01
0.000000e+00
1.000000e+00
5.747667e-01
5.759642e-01
5.776787e-01
5.793986e-01
5.810294e-01
5.823995e-01
5.833220e-01
5.836466e-01
5.833142e-01
5.823806e-01
5.809982e-01
5.794483e-01
5.778487e-01
5.761113e-01
5.741456e-01
0.000000e+00
1.000000e+00
5.757535e-01
5.778216e-01
5.806071e-01
5.834081e-01
5.860644e-01
5.882968e-01
5.898014e-01
5.903345e-01
5.898013e-01
5.882983e-01
5.861045e-01
5.835590e-01
5.807925e-01
5.779812e-01
5.750680e-01
0.000000e+00
1.000000e+00
5.769118e-01
5.799172e-01
5.839261e-01
5.879533e-01
5.917731e-01
5.949845e-01
5.971514e-01
5.979244e-01
5.971681e-01
5.950270e-01
5.918993e-01
5.881525e-01
5.841303e-01
5.801170e-01
5.760269e-01
0.000000e+00
1.000000e+00
5.781208e-01
5.821739e-01
5.875023e-01
5.928503e-01
5.979237e-01
6.021909e-01
6.050730e-01
6.061061e-01
6.051107e-01
6.022841e-01
5.981301e-01
5.930962e-01
5.877314e-01
5.824195e-01
5.770794e-01
0.000000e+00
1.000000e+00
5.793256e-01
5.844845e-01
5.911602e-01
5.978581e-01
6.042129e-01
6.095599e-01
6.131745e-01
6.144751e-01
6.132380e-01
6.097178e-01
6.044989e-01
5.981633e-01
5.914124e-01
5.847656e-01
5.781303e-01
0.000000e+00
1.000000e+00
5.805122e-01
5.867147e-01
5.946962e-01
6.026990e-01
6.102927e-01
6.166840e-01
6.210081e-01
6.225702e-01
6.211069e-01
6.169202e-01
6.106559e-01
6.030673e-01
5.949792e-01
5.870296e-01
5.791713e-01
0.000000e+00
1.000000e+00
5.816237e-01
5.887272e-01
5.979048e-01
6.070924e-01
6.158111e-01
6.231514e-01
6.281225e-01
6.299275e-01
6.282666e-01
6.234722e-01
6.162465e-01
6.075272e-01
5.982231e-01
5.890847e-01
5.801172e-01
0.000000e+00
1.000000e+00
5.825716e-01
5.904077e-01
6.006066e-01
6.107917e-01
6.204578e-01
6.285989e-01
6.341192e-01
6.361351e-01
6.343112e-01
6.289991e-01
6.209627e-01
6.112823e-01
6.009660e-01
5.908094e-01
5.809032e-01
0.000000e+00
1.000000e+00
5.833137e-01
5.916703e-01
6.026656e-01
6.136103e-01
6.239992e-01
6.327547e-01
6.386993e-01
6.408804e-01
6.389294e-01
6.332164e-01
6.245728e-01
6.141414e-01
6.030568e-01
5.921246e-01
5.814909e-01
0.000000e+00
1.000000e+00
5.838384e-01
5.924585e-01
6.040033e-01
6.154438e-01
6.263078e-01
6.354684e-01
6.416921e-01
6.439803e-01
6.419405e-01
6.359607e-01
6.269356e-01
6.160147e-01
6.043940e-01
5.929817e-01
5.818478e-01
0.000000e+00
1.000000e+00
5.841638e-01
5.927421e-01
6.046036e-01
6.162754e-01
6.273605e-01
6.367073e-01
6.430570e-01
6.453901e-01
6.433040e-01
6.371995e-01
6.280104e-01
6.168776e-01
6.049826e-01
5.933563e-01
5.819983e-01
0.000000e+00
1.000000e+00
5.842638e-01
5.925446e-01
6.045114e-01
6.161610e-01
6.272195e-01
6.365412e-01
6.428711e-01
6.451920e-01
6.431038e-01
6.370132e-01
6.278587e-01
6.167535e-01
6.048795e-01
5.932823e-01
5.819920e-01
0.000000e+00
1.000000e+00
5.840857e-01
5.919669e-01
6.038080e-01
6.152019e-01
6.260120e-01
6.351228e-01
6.413066e-01
6.435661e-01
6.415156e-01
6.355604e-01
6.266099e-01
6.157453e-01
6.041542e-01
5.928290e-01
5.817859e-01
0.000000e+00
1.000000e+00
5.837249e-01
5.911243e-01
6.025920e-01
6.135324e-01
6.239103e-01
6.326561e-01
6.385904e-01
6.407488e-01
6.387603e-01
6.330397e-01
6.244386e-01
6.139939e-01
6.028679e-01
5.919971e-01
5.814916e-01
0.000000e+00
1.000000e+00
5.724821e-01
5.714814e-01
5.706284e-01
5.697465e-01
5.689105e-01
5.682083e-01
5.677355e-01
5.675685e-01
5.677372e-01
5.682138e-01
5.689170e-01
5.698067e-01
5.706992e-01
5.715699e-01
5.718920e-01
0.000000e+00
1.000000e+00
5.730920e-01
5.726173e-01
5.724106e-01
5.721864e-01
5.719738e-01
5.717950e-01
5.716739e-01
5.716298e-01
5.716700e-01
5.717881e-01
5.719597e-01
5.722323e-01
5.724776e-01
5.727022e-01
5.726608e-01
0.000000e+00
1.000000e+00
5.738148e-01
5.741033e-01
5.747445e-01
5.753809e-01
5.759842e-01
5.764908e-01
5.768312e-01
5.769493e-01
5.768228e-01
5.764725e-01
5.759491e-01
5.753915e-01
5.748619e-01
5.742499e-01
5.732003e-01
0.000000e+00
1.000000e+00
5.747579e-01
5.759401e-01
5.776320e-01
5.793347e-01
5.809494e-01
5.823059e-01
5.832188e-01
5.835396e-01
5.832097e-01
5.822840e-01
5.809065e-01
5.793817e-01
5.778419e-01
5.761166e-01
5.740022e-01
0.000000e+00
1.000000e+00
5.759019e-01
5.780900e-01
5.810204e-01
5.839739e-01
5.867746e-01
5.891283e-01
5.907142e-01
5.912753e-01
5.907114e-01
5.891238e-01
5.868053e-01
5.841380e-01
5.812506e-01
5.782796e-01
5.750484e-01
0.000000e+00
1.000000e+00
5.772000e-01
5.804800e-01
5.848025e-01
5.891526e-01
5.932785e-01
5.967470e-01
5.990867e-01
5.999203e-01
5.991026e-01
5.967895e-01
5.934128e-01
5.893754e-01
5.850396e-01
5.807038e-01
5.761927e-01
0.000000e+00
1.000000e+00
5.785547e-01
5.830127e-01
5.888167e-01
5.946490e-01
6.001816e-01
6.048346e-01
6.079769e-01
6.091028e-01
6.080183e-01
6.049368e-01
6.004052e-01
5.949317e-01
5.890693e-01
5.832749e-01
5.774069e-01
0.000000e+00
1.000000e+00
5.799097e-01
5.855577e-01
5.928551e-01
6.001778e-01
6.071250e-01
6.129699e-01
6.169214e-01
6.183441e-01
6.169967e-01
6.131505e-01
6.074358e-01
6.005349e-01
5.931286e-01
5.858573e-01
5.786240e-01
0.000000e+00
1.000000e+00
5.812083e-01
5.879648e-01
5.966839e-01
6.054192e-01
6.137071e-01
6.206831e-01
6.254043e-01
6.271144e-01
6.255289e-01
6.209599e-01
6.140999e-01
6.058510e-01
5.969921e-01
5.883052e-01
5.797813e-01
0.000000e+00
1.000000e+00
5.823865e-01
5.900815e-01
6.000727e-01
6.100581e-01
6.195336e-01
6.275132e-01
6.329214e-01
6.348949e-01
6.331079e-01
6.278916e-01
6.200000e-01
6.105606e-01
6.004374e-01
5.904644e-01
5.807880e-01
0.000000e+00
1.000000e+00
5.833866e-01
5.917783e-01
6.028258e-01
6.138277e-01
6.242705e-01
6.330707e-01
6.390445e-01
6.412401e-01
6.392895e-01
6.335382e-01
6.248145e-01
6.143693e-01
6.032757e-01
5.922194e-01
5.815571e-01
0.000000e+00
1.000000e+00
5.841251e-01
5.929735e-01
6.048083e-01
6.165432e-01
6.276871e-01
6.370848e-01
6.434719e-01
6.458286e-01
6.437528e-01
6.376090e-01
6.283100e-01
6.171136e-01
6.053122e-01
5.935055e-01
5.821027e-01
0.000000e+00
1.000000e+00
5.846127e-01
5.936155e-01
6.059527e-01
6.181181e-01
6.296759e-01
6.394252e-01
6.460519e-01
6.484977e-01
6.463410e-01
6.399632e-01
6.303525e-01
6.187658e-01
6.064341e-01
5.942558e-01
5.824190e-01
0.000000e+00
1.000000e+00
5.848682e-01
5.936946e-01
6.062673e-01
6.185651e-01
6.302466e-01
6.400963e-01
6.467875e-01
6.492516e-01
6.470638e-01
6.406167e-01
6.309358e-01
6.192550e-01
6.067230e-01
5.944108e-01
5.825271e-01
0.000000e+00
1.000000e+00
5.847708e-01
5.933125e-01
6.058288e-01
6.179737e-01
6.295030e-01
6.392209e-01
6.458185e-01
6.482397e-01
6.460692e-01
6.397087e-01
6.301763e-01
6.186424e-01
6.062544e-01
5.940333e-01
5.823925e-01
0.000000e+00
1.000000e+00
5.843148e-01
5.926271e-01
6.047404e-01
6.164797e-01
6.276206e-01
6.370096e-01
6.433822e-01
6.457130e-01
6.435996e-01
6.374580e-01
6.282543e-01
6.170846e-01
6.051214e-01
5.933628e-01
5.820373e-01
0.000000e+00
1.000000e+00
5.838031e-01
5.916201e-01
6.031148e-01
6.142487e-01
6.248150e-01
6.337194e-01
6.397615e-01
6.419630e-01
6.399382e-01
6.341187e-01
6.253814e-01
6.147531e-01
6.034107e-01
5.923257e-01
5.816433e-01
0.000000e+00
1.000000e+00
5.719409e-01
5.704372e-01
5.689881e-01
5.675005e-01
5.660906e-01
5.649068e-01
5.641105e-01
5.638307e-01
5.641183e-01
5.649247e-01
5.661124e-01
5.675960e-01
5.690961e-01
5.705644e-01
5.713010e-01
0.000000e+00
1.000000e+00
5.726628e-01
5.717731e-01
5.710859e-01
5.703730e-01
5.696977e-01
5.691308e-01
5.687491e-01
5.686138e-01
5.687490e-01
5.691324e-01
5.696936e-01
5.704744e-01
5.711910e-01
5.718892e-01
5.721632e-01
0.000000e+00
1.000000e+00
5.735081e-01
5.734897e-01
5.737791e-01
5.740595e-01
5.743255e-01
5.745489e-01
5.746990e-01
5.747504e-01
5.746931e-01
5.745359e-01
5.742964e-01
5.741108e-01
5.739094e-01
5.736564e-01
5.728404e-01
0.000000e+00
1.000000e+00
5.745779e-01
5.755806e-01
5.770625e-01
5.785554e-01
5.799711e-01
5.811603e-01
5.819605e-01
5.822412e-01
5.819516e-01
5.811404e-01
5.799285e-01
5.785982e-01
5.772884e-01
5.757872e-01
5.737914e-01
0.000000e+00
1.000000e+00
5.758407e-01
5.779994e-01
5.808688e-01
5.837666e-01
5.865147e-01
5.888244e-01
5.903805e-01
5.909305e-01
5.903760e-01
5.888139e-01
5.865196e-01
5.839331e-01
5.811422e-01
5.782214e-01
5.749848e-01
0.000000e+00
1.000000e+00
5.772563e-01
5.806598e-01
5.850691e-01
5.895168e-01
5.937352e-01
5.972811e-01
5.996721e-01
6.005225e-01
5.996839e-01
5.973141e-01
5.938563e-01
5.897675e-01
5.853497e-01
5.809072e-01
5.762376e-01
0.000000e+00
1.000000e+00
5.787438e-01
5.834429e-01
5.894745e-01
5.955481e-01
6.013094e-01
6.061538e-01
6.094243e-01
6.105946e-01
6.094639e-01
6.062525e-01
6.015349e-01
5.958548e-01
5.897646e-01
5.837215e-01
5.775956e-01
0.000000e+00
1.000000e+00
5.802236e-01
5.861974e-01
5.938463e-01
6.015333e-01
6.088253e-01
6.149595e-01
6.191055e-01
6.205981e-01
6.191850e-01
6.151476e-01
6.091466e-01
6.019159e-01
5.941518e-01
5.865114e-01
5.789174e-01
0.000000e+00
1.000000e+00
5.816251e-01
5.887558e-01
5.979224e-01
6.071128e-01
6.158319e-01
6.231700e-01
6.281369e-01
6.299385e-01
6.282762e-01
6.234712e-01
6.162410e-01
6.075791e-01
5.982658e-01
5.891077e-01
5.801428e-01
0.000000e+00
1.000000e+00
5.828784e-01
5.909514e-01
6.014498e-01
6.119413e-01
6.218969e-01
6.302813e-01
6.359667e-01
6.380484e-01
6.361809e-01
6.307005e-01
6.223852e-01
6.124659e-01
6.018674e-01
5.913529e-01
5.811730e-01
0.000000e+00
1.000000e+00
5.839166e-01
5.926483e-01
6.042218e-01
6.157377e-01
6.266689e-01
6.358829e-01
6.421432e-01
6.444540e-01
6.424226e-01
6.363975e-01
6.272445e-01
6.162609e-01
6.047558e-01
5.931320e-01
5.819284e-01
0.000000e+00
1.000000e+00
5.846292e-01
5.937740e-01
6.061072e-01
6.183213e-01
6.299217e-01
6.397082e-01
6.463654e-01
6.488315e-01
6.466779e-01
6.402703e-01
6.305739e-01
6.188698e-01
6.066505e-01
5.943909e-01
5.824331e-01
0.000000e+00
1.000000e+00
5.850387e-01
5.942924e-01
6.070522e-01
6.196243e-01
6.315710e-01
6.416512e-01
6.485075e-01
6.510449e-01
6.488192e-01
6.422108e-01
6.322578e-01
6.202730e-01
6.075381e-01
5.950243e-01
5.827205e-01
0.000000e+00
1.000000e+00
5.851554e-01
5.942298e-01
6.070893e-01
6.196905e-01
6.316622e-01
6.417587e-01
6.486207e-01
6.511514e-01
6.489093e-01
6.422869e-01
6.323519e-01
6.203988e-01
6.075910e-01
5.949598e-01
5.827940e-01
0.000000e+00
1.000000e+00
5.848489e-01
5.937258e-01
6.063219e-01
6.186434e-01
6.303429e-01
6.402065e-01
6.469071e-01
6.493686e-01
6.471601e-01
6.406947e-01
6.310255e-01
6.193496e-01
6.067824e-01
5.943214e-01
5.826715e-01
0.000000e+00
1.000000e+00
5.842129e-01
5.928778e-01
6.048741e-01
6.166520e-01
6.278335e-01
6.372597e-01
6.436631e-01
6.460123e-01
6.438797e-01
6.377068e-01
6.284877e-01
6.172947e-01
6.052759e-01
5.934612e-01
5.821962e-01
0.000000e+00
1.000000e+00
5.835548e-01
5.916385e-01
6.028744e-01
6.139111e-01
6.243918e-01
6.332260e-01
6.392242e-01
6.414200e-01
6.394061e-01
6.336273e-01
6.249767e-01
6.144293e-01
6.031753e-01
5.922236e-01
5.816095e-01
0.000000e+00
1.000000e+00
5.712859e-01
5.691591e-01
5.669799e-01
5.647513e-01
5.626392e-01
5.608664e-01
5.596748e-01
5.592579e-01
5.596915e-01
5.609005e-01
5.626805e-01
5.648814e-01
5.671213e-01
5.693088e-01
5.706905e-01
0.000000e+00
1.000000e+00
5.720847e-01
5.706658e-01
5.693477e-01
5.679936e-01
5.667110e-01
5.656353e-01
5.649129e-01
5.646598e-01
5.649217e-01
5.656539e-01
5.667277e-01
5.681447e-01
5.695025e-01
5.708223e-01
5.716179e-01
0.000000e+00
1.000000e+00
5.730437e-01
5.725803e-01
5.723501e-01
5.721036e-01
5.718705e-01
5.716752e-01
5.715439e-01
5.714973e-01
5.715434e-01
5.716739e-01
5.718549e-01
5.722260e-01
5.725045e-01
5.727622e-01
5.724091e-01
0.000000e+00
1.000000e+00
5.742132e-01
5.748875e-01
5.759703e-01
5.770602e-01
5.780938e-01
5.789624e-01
5.795470e-01
5.797521e-01
5.795400e-01
5.789472e-01
5.780604e-01
5.771172e-01
5.761986e-01
5.751163e-01
5.734846e-01
0.000000e+00
1.000000e+00
5.755814e-01
5.775341e-01
5.801299e-01
5.827555e-01
5.852459e-01
5.873388e-01
5.887485e-01
5.892464e-01
5.887439e-01
5.873280e-01
5.852251e-01
5.829011e-01
5.804387e-01
5.777840e-01
5.747811e-01
0.000000e+00
1.000000e+00
5.771054e-01
5.804202e-01
5.846786e-01
5.889822e-01
5.930640e-01
5.964951e-01
5.988084e-01
5.996297e-01
5.988155e-01
5.965156e-01
5.931557e-01
5.892556e-01
5.849974e-01
5.806851e-01
5.761490e-01
0.000000e+00
1.000000e+00
5.786962e-01
5.834094e-01
5.894037e-01
5.954507e-01
6.011863e-01
6.060084e-01
6.092621e-01
6.104242e-01
6.092952e-01
6.060931e-01
6.014038e-01
5.957777e-01
5.897320e-01
5.837019e-01
5.775760e-01
0.000000e+00
1.000000e+00
5.802507e-01
5.863362e-01
5.940410e-01
6.017984e-01
6.091566e-01
6.153452e-01
6.195262e-01
6.210290e-01
6.195996e-01
6.155217e-01
6.094812e-01
6.021768e-01
5.943878e-01
5.866578e-01
5.789602e-01
0.000000e+00
1.000000e+00
5.817195e-01
5.890148e-01
5.983030e-01
6.076319e-01
6.164815e-01
6.239282e-01
6.289669e-01
6.307932e-01
6.291025e-01
6.242271e-01
6.169022e-01
6.080651e-01
5.986930e-01
5.893681e-01
5.801870e-01
0.000000e+00
1.000000e+00
5.830149e-01
5.912667e-01
6.019194e-01
6.125823e-01
6.226993e-01
6.312186e-01
6.369949e-01
6.391099e-01
6.372099e-01
6.316457e-01
6.232121e-01
6.130413e-01
6.023997e-01
5.916700e-01
5.812167e-01
0.000000e+00
1.000000e+00
5.840361e-01
5.929600e-01
6.046783e-01
6.163598e-01
6.274472e-01
6.367925e-01
6.431426e-01
6.454879e-01
6.434258e-01
6.373147e-01
6.280459e-01
6.168444e-01
6.052229e-01
5.934540e-01
5.819658e-01
0.000000e+00
1.000000e+00
5.847048e-01
5.940244e-01
6.064515e-01
6.187897e-01
6.305070e-01
6.403920e-01
6.471172e-01
6.496096e-01
6.474320e-01
6.409513e-01
6.311597e-01
6.193763e-01
6.069385e-01
5.946431e-01
5.824621e-01
0.000000e+00
1.000000e+00
5.850242e-01
5.944424e-01
6.072019e-01
6.198251e-01
6.318187e-01
6.419387e-01
6.488231e-01
6.513708e-01
6.491323e-01
6.424855e-01
6.324844e-01
6.204655e-01
6.076498e-01
5.951549e-01
5.827582e-01
0.000000e+00
1.000000e+00
5.849754e-01
5.942694e-01
6.069843e-01
6.195373e-01
6.314631e-01
6.415219e-01
6.483609e-01
6.508811e-01
6.486399e-01
6.420323e-01
6.321356e-01
6.202325e-01
6.075043e-01
5.949509e-01
5.827791e-01
0.000000e+00
1.000000e+00
5.845460e-01
5.936105e-01
6.059188e-01
6.180805e-01
6.296285e-01
6.393652e-01
6.459839e-01
6.484191e-01
6.462261e-01
6.398347e-01
6.303064e-01
6.187944e-01
6.063825e-01
5.941711e-01
5.825455e-01
0.000000e+00
1.000000e+00
5.838640e-01
5.925386e-01
6.041519e-01
6.156516e-01
6.265723e-01
6.357811e-01
6.420406e-01
6.443449e-01
6.422563e-01
6.362108e-01
6.272275e-01
6.162911e-01
6.045413e-01
5.930494e-01
5.820381e-01
0.000000e+00
1.000000e+00
5.831306e-01
5.910791e-01
6.018458e-01
6.124907e-01
6.226013e-01
6.311252e-01
6.369140e-01
6.390396e-01
6.371026e-01
6.315087e-01
6.231773e-01
6.129904e-01
6.021364e-01
5.915675e-01
5.813063e-01
0.000000e+00
1.000000e+00
5.705480e-01
5.676961e-01
5.646835e-01
5.616078e-01
5.586934e-01
5.562480e-01
5.546056e-01
5.540324e-01
5.546324e-01
5.563003e-01
5.587563e-01
5.617711e-01
5.648565e-01
5.678631e-01
5.700077e-01
0.000000e+00
1.000000e+00
5.713982e-01
5.693414e-01
5.672689e-01
5.651480e-01
5.631394e-01
5.614551e-01
5.603252e-01
5.599325e-01
5.603465e-01
5.614953e-01
5.631810e-01
5.653400e-01
5.674697e-01
5.695306e-01
5.709693e-01
0.000000e+00
1.000000e+00
5.724490e-01
5.714135e-01
5.705185e-01
5.695966e-01
5.687237e-01
5.679922e-01
5.675012e-01
5.673297e-01
5.675092e-01
5.680081e-01
5.687283e-01
5.697961e-01
5.707190e-01
5.716221e-01
5.718390e-01
0.000000e+00
1.000000e+00
5.736915e-01
5.738898e-01
5.744017e-01
5.749128e-01
5.753983e-01
5.758073e-01
5.760838e-01
5.761815e-01
5.760820e-01
5.758014e-01
5.753734e-01
5.750261e-01
5.746367e-01
5.741312e-01
5.729935e-01
0.000000e+00
1.000000e+00
5.751458e-01
5.767113e-01
5.788322e-01
5.809792e-01
5.830155e-01
5.847268e-01
5.858793e-01
5.862861e-01
5.858752e-01
5.847187e-01
5.829855e-01
5.810922e-01
5.791698e-01
5.769889e-01
5.743830e-01
0.000000e+00
1.000000e+00
5.767595e-01
5.797647e-01
5.836399e-01
5.875608e-01
5.912803e-01
5.944074e-01
5.965156e-01
5.972635e-01
5.965206e-01
5.944195e-01
5.913300e-01
5.878322e-01
5.839912e-01
5.800498e-01
5.758312e-01
0.000000e+00
1.000000e+00
5.784264e-01
5.829013e-01
5.885928e-01
5.943412e-01
5.997935e-01
6.043769e-01
6.074687e-01
6.085705e-01
6.074939e-01
6.044425e-01
5.999815e-01
5.946872e-01
5.889447e-01
5.832119e-01
5.773414e-01
0.000000e+00
1.000000e+00
5.800211e-01
5.859456e-01
5.934082e-01
6.009323e-01
6.080691e-01
6.140703e-01
6.181224e-01
6.195755e-01
6.181828e-01
6.142175e-01
6.083832e-01
6.013101e-01
5.937681e-01
5.862800e-01
5.787402e-01
0.000000e+00
1.000000e+00
5.815068e-01
5.887006e-01
5.977809e-01
6.069170e-01
6.155833e-01
6.228740e-01
6.278041e-01
6.295858e-01
6.279188e-01
6.231356e-01
6.160093e-01
6.073216e-01
5.981737e-01
5.890554e-01
5.799588e-01
0.000000e+00
1.000000e+00
5.828051e-01
5.909796e-01
6.014291e-01
6.119114e-01
6.218557e-01
6.302271e-01
6.358989e-01
6.379684e-01
6.360859e-01
6.306113e-01
6.223716e-01
6.123348e-01
6.019005e-01
5.913705e-01
5.809694e-01
0.000000e+00
1.000000e+00
5.837791e-01
5.926557e-01
6.041404e-01
6.156231e-01
6.265197e-01
6.357005e-01
6.419337e-01
6.442270e-01
6.421854e-01
6.361734e-01
6.270942e-01
6.161185e-01
6.046575e-01
5.931039e-01
5.817203e-01
0.000000e+00
1.000000e+00
5.843801e-01
5.936604e-01
6.057922e-01
6.178859e-01
6.293675e-01
6.390491e-01
6.456303e-01
6.480607e-01
6.459137e-01
6.395561e-01
6.299774e-01
6.184881e-01
6.063022e-01
5.941817e-01
5.821936e-01
0.000000e+00
1.000000e+00
5.846109e-01
5.939867e-01
6.063616e-01
6.186713e-01
6.303622e-01
6.402232e-01
6.469271e-01
6.493999e-01
6.472052e-01
6.407213e-01
6.309978e-01
6.193321e-01
6.068551e-01
5.945575e-01
5.824847e-01
0.000000e+00
1.000000e+00
5.844514e-01
5.936974e-01
6.059207e-01
6.180732e-01
6.296152e-01
6.393480e-01
6.459644e-01
6.484012e-01
6.462155e-01
6.398180e-01
6.302769e-01
6.187871e-01
6.064030e-01
5.942372e-01
5.825169e-01
0.000000e+00
1.000000e+00
5.839897e-01
5.928790e-01
6.046093e-01
6.162745e-01
6.273503e-01
6.366889e-01
6.430381e-01
6.453790e-01
6.432662e-01
6.371261e-01
6.280159e-01
6.169529e-01
6.050089e-01
5.933367e-01
5.821747e-01
0.000000e+00
1.000000e+00
5.833063e-01
5.916022e-01
6.025869e-01
6.135040e-01
6.238688e-01
6.326062e-01
6.385429e-01