<?xml version="1.0"?>
<VTKFile type="StructuredGrid" version="0.1">
  <StructuredGrid WholeExtent="0 16 0 16 0 16">
    <Piece Extent="0 16 0 16 0 16">
      <PointData Scalars="temperature" Vectors="velocity">
        <DataArray type="Float32" Name="temperature" format="ascii">
1.000000e+00
5.734153e-01
5.736919e-01
5.740887e-01
5.744887e-01
5.748682e-01
5.751872e-01
5.754021e-01
5.754777e-01
5.754002e-01
5.751836e-01
5.748667e-01
5.745182e-01
5.741387e-01
5.737534e-01
5.731784e-01
0.000000e+00
1.000000e+00
5.742077e-01
5.753096e-01
5.766239e-01
5.779601e-01
5.792273e-01
5.802923e-01
5.810098e-01
5.812633e-01
5.810079e-01
5.802892e-01
5.792260e-01
5.779861e-01
5.766919e-01
5.753795e-01
5.739665e-01
0.000000e+00
1.000000e+00
5.751311e-01
5.771822e-01
5.795608e-01
5.819814e-01
5.842772e-01
5.862067e-01
5.875069e-01
5.879673e-01
5.875071e-01
5.862088e-01
5.842886e-01
5.820239e-01
5.796411e-01
5.772586e-01
5.748588e-01
0.000000e+00
1.000000e+00
5.761616e-01
5.792680e-01
5.828345e-01
5.864639e-01
5.899062e-01
5.927995e-01
5.947498e-01
5.954416e-01
5.947541e-01
5.928112e-01
5.899367e-01
5.865264e-01
5.829184e-01
5.793514e-01
5.758491e-01
0.000000e+00
1.000000e+00
5.772561e-01
5.815020e-01
5.863417e-01
5.912658e-01
5.959359e-01
5.998615e-01
6.025081e-01
6.034482e-01
6.025182e-01
5.998859e-01
5.959866e-01
5.913436e-01
5.864263e-01
5.815936e-01
5.769099e-01
0.000000e+00
1.000000e+00
5.783851e-01
5.837942e-01
5.899411e-01
5.961940e-01
6.021246e-01
6.071098e-01
6.104717e-01
6.116673e-01
6.104887e-01
6.071488e-01
6.021948e-01
5.962839e-01
5.900258e-01
5.838943e-01
5.779967e-01
0.000000e+00
1.000000e+00
5.794949e-01
5.860338e-01
5.934621e-01
6.010149e-01
6.081784e-01
6.142006e-01
6.182627e-01
6.197092e-01
6.182884e-01
6.142567e-01
6.082674e-01
6.011136e-01
5.935419e-01
5.861598e-01
5.790271e-01
0.000000e+00
1.000000e+00
5.805227e-01
5.881022e-01
5.967182e-01
6.054728e-01
6.137764e-01
6.207578e-01
6.254685e-01
6.271485e-01
6.255054e-01
6.208341e-01
6.138822e-01
6.055773e-01
5.967868e-01
5.883375e-01
5.795665e-01
0.000000e+00
1.000000e+00
5.814157e-01
5.898816e-01
5.995253e-01
6.093157e-01
6.186022e-01
6.264112e-01
6.316825e-01
6.335660e-01
6.317337e-01
6.265094e-01
6.187219e-01
6.094232e-01
5.995770e-01
5.903431e-01
5.796671e-01
0.000000e+00
1.000000e+00
5.821300e-01
5.912663e-01
6.017214e-01
6.123225e-01
6.223789e-01
6.308371e-01
6.365490e-01
6.385940e-01
6.366149e-01
6.309555e-01
6.225097e-01
6.124325e-01
6.017610e-01
5.918534e-01
5.799726e-01
0.000000e+00
1.000000e+00
5.826140e-01
5.921813e-01
6.031872e-01
6.143295e-01
6.249012e-01
6.337944e-01
6.398020e-01
6.419560e-01
6.398794e-01
6.339280e-01
6.250409e-01
6.144434e-01
6.032217e-01
5.926637e-01
5.805803e-01
0.000000e+00
1.000000e+00
5.828485e-01
5.925833e-01
6.038553e-01
6.152459e-01
6.260548e-01
6.351481e-01
6.412916e-01
6.434960e-01
6.413745e-01
6.352878e-01
6.262000e-01
6.153642e-01
6.038985e-01
5.929096e-01
5.811738e-01
0.000000e+00
1.000000e+00
5.828443e-01
5.924609e-01
6.037160e-01
6.150591e-01
6.258224e-01
6.348762e-01
6.409926e-01
6.431874e-01
6.410754e-01
6.350140e-01
6.259723e-01
6.151872e-01
6.037780e-01
5.927003e-01
5.817109e-01
0.000000e+00
1.000000e+00
5.826032e-01
5.918438e-01
6.028144e-01
6.138272e-01
6.242751e-01
6.330628e-01
6.389989e-01
6.411278e-01
6.390760e-01
6.331952e-01
6.244284e-01
6.139624e-01
6.028940e-01
5.920998e-01
5.818478e-01
0.000000e+00
1.000000e+00
5.821617e-01
5.907909e-01
6.012350e-01
6.116640e-01
6.215574e-01
6.298783e-01
6.354972e-01
6.375096e-01
6.355673e-01
6.300070e-01
6.217108e-01
6.118040e-01
6.013232e-01
5.910833e-01
5.812764e-01
0.000000e+00
1.000000e+00
5.814811e-01
5.894264e-01
5.990864e-01
6.087207e-01
6.178607e-01
6.255483e-01
6.307389e-01
6.325965e-01
6.308062e-01
6.256740e-01
6.180135e-01
6.088678e-01
5.991857e-01
5.896903e-01
5.807371e-01
0.000000e+00
1.000000e+00
5.806085e-01
5.878203e-01
5.964944e-01
6.051707e-01
6.134023e-01
6.203265e-01
6.250019e-01
6.266755e-01
6.250681e-01
6.204515e-01
6.135609e-01
6.053354e-01
5.966224e-01
5.880721e-01
5.803584e-01
0.000000e+00
1.000000e+00
5.740790e-01
5.750377e-01
5.762005e-01
5.773803e-01
5.784992e-01
5.794394e-01
5.800729e-01
5.802967e-01
5.800711e-01
5.794360e-01
5.784970e-01
5.774006e-01
5.762557e-01
5.750991e-01
5.738329e-01
0.000000e+00
1.000000e+00
5.748948e-01
5.767105e-01
5.788226e-01
5.809704e-01
5.830075e-01
5.847194e-01
5.858730e-01
5.862814e-01
5.858728e-01
5.847198e-01
5.830153e-01
5.810075e-01
5.788991e-01
5.767834e-01
5.746291e-01
0.000000e+00
1.000000e+00
5.758484e-01
5.786422e-01
5.818526e-01
5.851193e-01
5.882174e-01
5.908213e-01
5.925765e-01
5.931991e-01
5.925798e-01
5.908303e-01
5.882443e-01
5.851773e-01
5.819331e-01
5.787199e-01
5.755490e-01
0.000000e+00
1.000000e+00
5.769111e-01
5.807868e-01
5.852206e-01
5.897309e-01
5.940085e-01
5.976039e-01
6.000278e-01
6.008886e-01
6.000361e-01
5.976248e-01
5.940562e-01
5.898066e-01
5.853041e-01
5.808745e-01
5.765659e-01
0.000000e+00
1.000000e+00
5.780330e-01
5.830747e-01
5.888134e-01
5.946501e-01
6.001857e-01
6.048389e-01
6.079767e-01
6.090923e-01
6.079915e-01
6.048740e-01
6.002546e-01
5.947431e-01
5.888996e-01
5.831717e-01
5.776569e-01
0.000000e+00
1.000000e+00
5.791798e-01
5.854068e-01
5.924768e-01
5.996656e-01
6.064840e-01
6.122157e-01
6.160818e-01
6.174580e-01
6.161048e-01
6.122678e-01
6.065744e-01
5.997771e-01
5.925663e-01
5.855114e-01
5.787596e-01
0.000000e+00
1.000000e+00
5.803025e-01
5.876614e-01
5.960235e-01
6.045218e-01
6.125821e-01
6.193586e-01
6.239306e-01
6.255603e-01
6.239644e-01
6.194312e-01
6.126927e-01
6.046534e-01
5.961154e-01
5.877761e-01
5.798859e-01
0.000000e+00
1.000000e+00
5.813285e-01
5.897086e-01
5.992508e-01
6.089405e-01
6.181311e-01
6.258588e-01
6.310744e-01
6.329370e-01
6.311229e-01
6.259548e-01
6.182588e-01
6.090891e-01
5.993399e-01
5.898619e-01
5.808522e-01
0.000000e+00
1.000000e+00
5.821910e-01
5.914237e-01
6.019611e-01
6.126509e-01
6.227907e-01
6.313182e-01
6.370765e-01
6.391373e-01
6.371415e-01
6.314384e-01
6.229337e-01
6.128099e-01
6.020416e-01
5.917383e-01
5.810918e-01
0.000000e+00
1.000000e+00
5.828473e-01
5.926965e-01
6.039841e-01
6.154208e-01
6.262705e-01
6.353970e-01
6.415624e-01
6.437730e-01
6.416420e-01
6.355384e-01
6.264301e-01
6.155799e-01
6.040592e-01
5.932783e-01
5.808913e-01
0.000000e+00
1.000000e+00
5.832496e-01
5.934520e-01
6.052000e-01
6.170864e-01
6.283643e-01
6.378527e-01
6.442641e-01
6.465654e-01
6.443532e-01
6.380091e-01
6.285379e-01
6.172376e-01
6.052705e-01
5.940805e-01
5.811747e-01
0.000000e+00
1.000000e+00
5.833661e-01
5.936580e-01
6.055501e-01
6.175675e-01
6.289710e-01
6.385651e-01
6.450481e-01
6.473760e-01
6.451415e-01
6.387284e-01
6.291491e-01
6.177110e-01
6.056163e-01
5.941472e-01
5.813690e-01
0.000000e+00
1.000000e+00
5.832193e-01
5.933163e-01
6.050403e-01
6.168720e-01
6.280988e-01
6.375433e-01
6.439245e-01
6.462158e-01
6.440169e-01
6.377043e-01
6.282752e-01
6.170160e-01
6.051135e-01
5.936317e-01
5.816832e-01
0.000000e+00
1.000000e+00
5.828588e-01
5.924453e-01
6.037324e-01
6.150839e-01
6.258533e-01
6.349119e-01
6.410316e-01
6.432284e-01
6.411187e-01
6.350646e-01
6.260273e-01
6.152359e-01
6.038260e-01
5.927029e-01
5.819702e-01
0.000000e+00
1.000000e+00
5.822846e-01
5.911311e-01
6.017334e-01
6.123472e-01
6.224160e-01
6.308850e-01
6.366054e-01
6.386584e-01
6.366881e-01
6.310325e-01
6.225893e-01
6.125092e-01
6.018456e-01
5.914111e-01
5.814700e-01
0.000000e+00
1.000000e+00
5.814775e-01
5.895244e-01
5.991775e-01
6.088453e-01
6.180174e-01
6.257322e-01
6.309428e-01
6.328127e-01
6.310219e-01
6.258728e-01
6.181858e-01
6.090125e-01
5.993089e-01
5.897716e-01
5.808559e-01
0.000000e+00
1.000000e+00
5.804904e-01
5.876841e-01
5.962051e-01
6.047734e-01
6.129029e-01
6.197413e-01
6.243599e-01
6.260158e-01
6.244295e-01
6.198657e-01
6.130556e-01
6.049337e-01
5.963396e-01
5.879119e-01
5.803789e-01
0.000000e+00
1.000000e+00
5.746329e-01
5.761605e-01
5.779628e-01
5.797933e-01
5.815291e-01
5.829879e-01
5.839709e-01
5.843188e-01
5.839702e-01
5.829868e-01
5.815319e-01
5.798206e-01
5.780206e-01
5.762220e-01
5.743701e-01
0.000000e+00
1.000000e+00
5.754728e-01
5.778720e-01
5.806467e-01
5.834681e-01
5.861437e-01
5.883924e-01
5.899081e-01
5.904453e-01
5.899098e-01
5.883969e-01
5.861616e-01
5.835154e-01
5.807130e-01
5.779402e-01
5.751806e-01
0.000000e+00
1.000000e+00
5.764470e-01
5.798451e-01
5.837436e-01
5.877084e-01
5.914686e-01
5.946289e-01
5.967595e-01
5.975160e-01
5.967658e-01
5.946441e-01
5.915059e-01
5.877761e-01
5.838152e-01
5.799222e-01
5.761195e-01
0.000000e+00
1.000000e+00
5.775269e-01
5.820324e-01
5.871786e-01
5.924116e-01
5.973748e-01
6.015465e-01
6.043596e-01
6.053596e-01
6.043718e-01
6.015746e-01
5.974330e-01
5.924991e-01
5.872556e-01
5.821197e-01
5.771598e-01
0.000000e+00
1.000000e+00
5.786689e-01
5.843565e-01
5.908296e-01
5.974105e-01
6.036521e-01
6.088989e-01
6.124376e-01
6.136970e-01
6.124571e-01
6.089429e-01
6.037329e-01
5.975201e-01
5.909118e-01
5.844538e-01
5.782628e-01
0.000000e+00
1.000000e+00
5.798267e-01
5.867114e-01
5.945300e-01
6.024768e-01
6.100139e-01
6.163503e-01
6.206251e-01
6.221482e-01
6.206545e-01
6.164151e-01
6.101175e-01
6.026111e-01
5.946192e-01
5.868184e-01
5.793884e-01
0.000000e+00
1.000000e+00
5.809509e-01
5.889655e-01
5.980775e-01
6.073339e-01
6.161133e-01
6.234949e-01
6.284763e-01
6.302542e-01
6.285202e-01
6.235856e-01
6.162369e-01
6.074934e-01
5.981764e-01
5.890870e-01
5.804635e-01
0.000000e+00
1.000000e+00
5.819679e-01
5.909778e-01
6.012537e-01
6.116828e-01
6.215747e-01
6.298930e-01
6.355091e-01
6.375182e-01
6.355712e-01
6.300117e-01
6.217159e-01
6.118590e-01
6.013637e-01
5.911263e-01
5.814161e-01
0.000000e+00
1.000000e+00
5.827972e-01
5.926170e-01
6.038487e-01
6.152354e-01
6.260368e-01
6.351219e-01
6.412588e-01
6.434592e-01
6.413381e-01
6.352648e-01
6.261975e-01
6.154110e-01
6.039635e-01
5.928588e-01
5.818745e-01
0.000000e+00
1.000000e+00
5.833931e-01
5.937708e-01
6.056855e-01
6.177508e-01
6.291975e-01
6.388274e-01
6.453349e-01
6.476714e-01
6.454258e-01
6.389873e-01
6.293779e-01
6.179150e-01
6.058034e-01
5.942615e-01
5.818153e-01
0.000000e+00
1.000000e+00
5.837072e-01
5.943672e-01
6.066453e-01
6.190664e-01
6.308522e-01
6.407685e-01
6.474704e-01
6.498776e-01
6.475665e-01
6.409390e-01
6.310530e-01
6.192410e-01
6.067492e-01
5.950557e-01
5.816733e-01
0.000000e+00
1.000000e+00
5.837232e-01
5.943779e-01
6.066802e-01
6.191156e-01
6.309157e-01
6.408439e-01
6.475534e-01
6.499625e-01
6.476495e-01
6.410186e-01
6.311242e-01
6.192857e-01
6.067545e-01
5.949795e-01
5.816713e-01
0.000000e+00
1.000000e+00
5.834784e-01
5.937967e-01
6.058090e-01
6.179254e-01
6.294225e-01
6.390946e-01
6.456299e-01
6.479765e-01
6.457254e-01
6.392665e-01
6.296247e-01
6.180893e-01
6.058868e-01
5.941994e-01
5.818573e-01
0.000000e+00
1.000000e+00
5.829881e-01
5.926835e-01
6.041171e-01
6.156102e-01
6.265150e-01
6.356877e-01
6.418848e-01
6.441102e-01
6.419765e-01
6.358519e-01
6.267065e-01
6.157764e-01
6.042170e-01
5.929760e-01
5.819412e-01
0.000000e+00
1.000000e+00
5.822628e-01
5.911614e-01
6.017335e-01
6.123461e-01
6.224146e-01
6.308835e-01
6.366040e-01
6.386585e-01
6.366920e-01
6.310384e-01
6.225947e-01
6.125153e-01
6.018521e-01
5.914052e-01
5.813823e-01
0.000000e+00
1.000000e+00
5.813084e-01
5.893459e-01
5.988106e-01
6.083413e-01
6.173837e-01
6.249896e-01
6.301266e-01
6.319703e-01
6.302065e-01
6.251302e-01
6.175500e-01
6.085080e-01
5.989445e-01
5.895521e-01
5.808502e-01
0.000000e+00
1.000000e+00
5.802346e-01
5.872743e-01
5.955035e-01
6.038112e-01
6.116934e-01
6.183236e-01
6.228019e-01
6.244068e-01
6.228687e-01
6.184427e-01
6.118379e-01
6.039646e-01
5.956361e-01
5.874790e-01
5.801841e-01
0.000000e+00
1.000000e+00
5.750366e-01
5.769811e-01
5.792506e-01
5.815565e-01
5.837432e-01
5.855809e-01
5.868193e-01
5.872581e-01
5.868199e-01
5.855826e-01
5.837534e-01
5.815926e-01
5.793036e-01
5.770390e-01
5.747569e-01
0.000000e+00
1.000000e+00
5.758926e-01
5.787074e-01
5.819592e-01
5.852652e-01
5.884003e-01
5.910353e-01
5.928115e-01
5.934416e-01
5.928152e-01
5.910440e-01
5.884244e-01
5.853174e-01
5.820196e-01
5.787724e-01
5.755762e-01
0.000000e+00
1.000000e+00
5.768768e-01
5.806970e-01
5.850836e-01
5.895432e-01
5.937726e-01
5.973276e-01
5.997245e-01
6.005761e-01
5.997333e-01
5.973473e-01
5.938149e-01
5.896173e-01
5.851518e-01
5.807724e-01
5.765237e-01
0.000000e+00
1.000000e+00
5.779618e-01
5.829014e-01
5.885455e-01
5.942833e-01
5.997252e-01
6.042996e-01
6.073846e-01
6.084819e-01
6.073997e-01
6.043328e-01
5.997883e-01
5.943804e-01
5.886232e-01
5.829890e-01
5.775729e-01
0.000000e+00
1.000000e+00
5.791117e-01
5.852371e-01
5.922156e-01
5.993084e-01
6.060355e-01
6.116907e-01
6.155054e-01
6.168637e-01
6.155286e-01
6.117423e-01
6.061216e-01
5.994299e-01
5.923027e-01
5.853363e-01
5.786850e-01
0.000000e+00
1.000000e+00
5.802691e-01
5.875921e-01
5.959171e-01
6.043761e-01
6.123990e-01
6.191441e-01
6.236953e-01
6.253180e-01
6.237305e-01
6.192214e-01
6.125087e-01
6.045209e-01
5.960186e-01
5.877019e-01
5.798103e-01
0.000000e+00
1.000000e+00
5.813797e-01
5.898275e-01
5.994348e-01
6.091920e-01
6.184466e-01
6.262282e-01
6.314806e-01
6.333573e-01
6.315334e-01
6.263375e-01
6.185797e-01
6.093515e-01
5.995596e-01
5.899487e-01
5.808660e-01
0.000000e+00
1.000000e+00
5.823740e-01
5.917927e-01
6.025365e-01
6.134390e-01
6.237804e-01
6.324773e-01
6.383504e-01
6.404541e-01
6.384233e-01
6.326180e-01
6.239409e-01
6.135913e-01
6.026919e-01
5.919326e-01
5.818439e-01
0.000000e+00
1.000000e+00
5.831661e-01
5.933495e-01
6.050020e-01
6.168149e-01
6.280209e-01
6.374471e-01
6.438160e-01
6.461021e-01
6.439051e-01
6.376091e-01
6.282050e-01
6.169625e-01
6.051603e-01
5.935476e-01
5.824307e-01
0.000000e+00
1.000000e+00
5.836947e-01
5.943868e-01
6.066500e-01
6.190721e-01
6.308576e-01
6.407732e-01
6.474749e-01
6.498826e-01
6.475718e-01
6.409431e-01
6.310509e-01
6.192332e-01
6.067916e-01
5.947869e-01
5.824062e-01
0.000000e+00
1.000000e+00
5.839281e-01
5.948326e-01
6.073649e-01
6.200517e-01
6.320897e-01
6.422187e-01
6.490656e-01
6.515248e-01
6.491625e-01
6.423917e-01
6.322981e-01
6.202450e-01
6.074897e-01
5.955621e-01
5.820107e-01
0.000000e+00
1.000000e+00
5.838765e-01
5.946451e-01
6.071041e-01
6.196965e-01
6.316463e-01
6.417011e-01
6.484973e-01
6.509381e-01
6.485936e-01
6.418767e-01
6.318702e-01
6.198993e-01
6.072035e-01
5.954355e-01
5.817779e-01
0.000000e+00
1.000000e+00
5.835425e-01
5.938514e-01
6.059081e-01
6.180609e-01
6.295934e-01
6.392960e-01
6.458529e-01
6.482090e-01
6.459515e-01
6.394712e-01
6.298100e-01
6.182432e-01
6.059973e-01
5.944325e-01
5.817879e-01
0.000000e+00
1.000000e+00
5.829130e-01
5.925499e-01
6.038823e-01
6.152869e-01
6.261086e-01
6.352119e-01
6.413627e-01
6.435732e-01
6.414585e-01
6.353816e-01
6.263064e-01
6.154595e-01
6.039869e-01
5.929032e-01
5.816752e-01
0.000000e+00
1.000000e+00
5.820392e-01
5.908512e-01
6.011726e-01
6.115755e-01
6.214455e-01
6.297478e-01
6.353556e-01
6.373697e-01
6.354438e-01
6.299025e-01
6.216245e-01
6.117425e-01
6.012910e-01
5.910781e-01
5.810854e-01
0.000000e+00
1.000000e+00
5.809964e-01
5.888330e-01
5.979465e-01
6.071566e-01
6.158945e-01
6.232441e-01
6.282075e-01
6.299876e-01
6.282833e-01
6.233787e-01
6.160531e-01
6.073158e-01
5.980811e-01
5.890137e-01
5.806162e-01
0.000000e+00
1.000000e+00
5.798575e-01
5.865744e-01
5.943730e-01
6.022627e-01
6.097476e-01
6.160428e-01
6.202943e-01
6.218165e-01
6.203545e-01
6.161530e-01
6.098808e-01
6.024058e-01
5.945021e-01
5.867419e-01
5.798988e-01
0.000000e+00
1.000000e+00
5.752542e-01
5.774241e-01
5.799458e-01
5.825082e-01
5.849382e-01
5.869804e-01
5.883568e-01
5.888448e-01
5.883585e-01
5.869846e-01
5.849527e-01
5.825491e-01
5.799983e-01
5.774791e-01
5.749656e-01
0.000000e+00
1.000000e+00
5.761048e-01
5.791347e-01
5.826296e-01
5.861831e-01
5.895531e-01
5.923854e-01
5.942947e-01
5.949724e-01
5.942996e-01
5.923966e-01
5.895789e-01
5.862363e-01
5.826907e-01
5.791981e-01
5.757797e-01
0.000000e+00
1.000000e+00
5.770815e-01
5.811088e-01
5.857297e-01
5.904278e-01
5.948835e-01
5.986287e-01
6.011540e-01
6.020516e-01
6.011641e-01
5.986505e-01
5.949256e-01
5.905030e-01
5.858011e-01
5.811840e-01
5.767224e-01
0.000000e+00
1.000000e+00
5.781584e-01
5.832971e-01
5.891663e-01
5.951332e-01
6.007924e-01
6.055496e-01
6.087581e-01
6.098996e-01
6.087745e-01
6.055854e-01
6.008553e-01
5.952310e-01
5.892488e-01
5.833847e-01
5.777627e-01
0.000000e+00
1.000000e+00
5.793001e-01
5.856130e-01
5.928053e-01
6.001158e-01
6.070494e-01
6.128783e-01
6.168105e-01
6.182110e-01
6.168354e-01
6.129346e-01
6.071377e-01
6.002338e-01
5.929021e-01
5.857124e-01
5.788658e-01
0.000000e+00
1.000000e+00
5.804447e-01
5.879401e-01
5.964629e-01
6.051236e-01
6.133378e-01
6.202439e-01
6.249039e-01
6.265660e-01
6.249417e-01
6.203296e-01
6.134557e-01
6.052521e-01
5.965812e-01
5.880499e-01
5.799764e-01
0.000000e+00
1.000000e+00
5.815286e-01
5.901352e-01
5.999152e-01
6.098498e-01
6.192727e-01
6.271959e-01
6.325444e-01
6.344560e-01
6.326003e-01
6.273172e-01
6.194258e-01
6.099727e-01
6.000642e-01
5.902567e-01
5.810213e-01
0.000000e+00
1.000000e+00
5.824875e-01
5.920408e-01
6.029197e-01
6.139638e-01
6.244395e-01
6.332495e-01
6.391994e-01
6.413313e-01
6.392751e-01
6.334017e-01
6.246247e-01
6.140802e-01
6.030956e-01
5.921790e-01
5.819514e-01
0.000000e+00
1.000000e+00
5.832363e-01
5.935133e-01
6.052485e-01
6.171530e-01
6.284459e-01
6.379451e-01
6.443636e-01
6.466675e-01
6.444533e-01
6.381122e-01
6.286404e-01
6.172935e-01
6.054274e-01
5.936782e-01
5.826498e-01
0.000000e+00
1.000000e+00
5.837103e-01
5.944407e-01
6.067189e-01
6.191666e-01
6.309760e-01
6.409117e-01
6.476274e-01
6.500402e-01
6.477219e-01
6.410785e-01
6.311679e-01
6.193466e-01
6.068674e-01
5.947313e-01
5.828447e-01
0.000000e+00
1.000000e+00
5.838799e-01
5.947445e-01
6.072160e-01
6.198467e-01
6.318317e-01
6.419169e-01
6.487356e-01
6.511861e-01
6.488308e-01
6.420828e-01
6.320409e-01
6.200586e-01
6.073480e-01
5.953302e-01
5.823663e-01
0.000000e+00
1.000000e+00
5.837619e-01
5.943965e-01
6.067084e-01
6.191528e-01
6.309625e-01
6.409004e-01
6.476189e-01
6.500352e-01
6.477187e-01
6.410692e-01
6.311913e-01
6.193733e-01
6.068254e-01
5.951122e-01
5.818258e-01
0.000000e+00
1.000000e+00
5.833377e-01
5.934468e-01
6.052516e-01
6.171598e-01
6.284603e-01
6.379683e-01
6.443946e-01
6.467062e-01
6.444950e-01
6.381403e-01
6.286792e-01
6.173529e-01
6.053492e-01
5.939836e-01
5.816893e-01
0.000000e+00
1.000000e+00
5.825999e-01
5.919998e-01
6.029671e-01
6.140312e-01
6.245296e-01
6.333612e-01
6.393284e-01
6.414732e-01
6.394233e-01
6.335288e-01
6.247224e-01
6.142035e-01
6.030723e-01
5.923163e-01
5.813945e-01
0.000000e+00
1.000000e+00
5.816293e-01
5.901504e-01
6.000150e-01
6.099880e-01
6.194499e-01
6.274085e-01
6.327834e-01
6.347127e-01
6.328664e-01
6.275552e-01
6.196191e-01
6.101468e-01
6.001287e-01
5.903645e-01
5.807756e-01
0.000000e+00
1.000000e+00
5.805256e-01
5.879836e-01
5.965743e-01
6.052766e-01
6.135323e-01
6.204754e-01
6.251633e-01
6.268423e-01
6.252300e-01
6.205982e-01
6.136773e-01
6.054230e-01
5.967011e-01
5.881350e-01
5.802379e-01
0.000000e+00
1.000000e+00
5.793496e-01
5.856017e-01
5.928238e-01
6.001412e-01
6.070827e-01
6.129199e-01
6.168610e-01
6.182700e-01
6.169106e-01
6.130164e-01
6.072008e-01
6.002708e-01
5.929434e-01
5.857283e-01
5.791702e-01
0.000000e+00
1.000000e+00
5.752589e-01
5.774273e-01
5.799508e-01
5.825151e-01
5.849469e-01
5.869906e-01
5.883679e-01
5.888561e-01
5.883694e-01
5.869945e-01
5.849590e-01
5.825527e-01
5.800074e-01
5.774780e-01
5.749632e-01
0.000000e+00
1.000000e+00
5.760760e-01
5.790852e-01
5.825509e-01
5.860753e-01
5.894176e-01
5.922268e-01
5.941203e-01
5.947924e-01
5.941249e-01
5.922373e-01
5.894411e-01
5.861245e-01
5.826173e-01
5.791456e-01
5.757544e-01
0.000000e+00
1.000000e+00
5.770218e-01
5.810055e-01
5.855648e-01
5.902019e-01
5.945996e-01
5.982962e-01
6.007886e-01
6.016744e-01
6.007983e-01
5.983171e-01
5.946400e-01
5.902708e-01
5.856413e-01
5.810758e-01
5.766705e-01
0.000000e+00
1.000000e+00
5.780748e-01
5.831385e-01
5.889138e-01
5.947874e-01
6.003581e-01
6.050409e-01
6.081991e-01
6.093227e-01
6.082149e-01
6.050758e-01
6.004220e-01
5.948761e-01
5.890028e-01
5.832201e-01
5.776846e-01
0.000000e+00
1.000000e+00
5.791884e-01
5.853980e-01
5.924631e-01
5.996473e-01
6.064610e-01
6.121891e-01
6.160533e-01
6.174294e-01
6.160770e-01
6.122449e-01
6.065567e-01
5.997484e-01
5.925676e-01
5.854904e-01
5.787601e-01
0.000000e+00
1.000000e+00
5.803008e-01
5.876661e-01
5.960264e-01
6.045258e-01
6.125871e-01
6.193647e-01
6.239378e-01
6.255686e-01
6.239732e-01
6.194494e-01
6.127180e-01
6.046343e-01
5.961502e-01
5.877677e-01
5.798412e-01
0.000000e+00
1.000000e+00
5.813478e-01
5.897968e-01
5.993752e-01
6.091106e-01
6.183444e-01
6.261086e-01
6.313493e-01
6.332217e-01
6.314008e-01
6.262259e-01
6.185077e-01
6.092289e-01
5.995187e-01
5.899058e-01
5.808580e-01
0.000000e+00
1.000000e+00
5.822651e-01
5.916304e-01
6.022625e-01
6.130642e-01
6.233100e-01
6.319263e-01
6.377446e-01
6.398277e-01
6.378133e-01
6.320696e-01
6.234945e-01
6.132034e-01
6.024277e-01
5.917476e-01
5.817383e-01
0.000000e+00
1.000000e+00
5.829755e-01
5.930195e-01
6.044566e-01
6.160690e-01
6.270845e-01
6.363498e-01
6.426094e-01
6.448549e-01
6.426906e-01
6.365044e-01
6.272738e-01
6.162311e-01
6.046403e-01
5.931401e-01
5.824268e-01
0.000000e+00
1.000000e+00
5.834001e-01
5.938506e-01
6.057748e-01
6.178727e-01
6.293496e-01
6.390051e-01
6.455318e-01
6.478773e-01
6.456211e-01
6.391591e-01
6.295409e-01
6.180713e-01
6.059374e-01
5.939591e-01
5.826835e-01
0.000000e+00
1.000000e+00
5.835275e-01
5.940446e-01
6.061039e-01
6.183222e-01
6.299147e-01
6.396693e-01
6.462647e-01
6.486385e-01
6.463627e-01
6.398220e-01
6.301233e-01
6.185542e-01
6.062449e-01
5.943201e-01
5.822302e-01
0.000000e+00
1.000000e+00
5.833464e-01
5.935919e-01
6.054217e-01
6.173889e-01
6.287444e-01
6.382995e-01
6.447595e-01
6.470854e-01
6.448614e-01
6.384574e-01
6.289650e-01
6.176113e-01
6.055377e-01
5.940139e-01
5.817945e-01
0.000000e+00
1.000000e+00
5.828513e-01
5.925453e-01
6.037934e-01
6.151608e-01
6.259468e-01
6.350213e-01
6.411543e-01
6.433607e-01
6.412522e-01
6.351855e-01
6.261527e-01
6.153510e-01
6.038954e-01
5.929008e-01
5.816328e-01
0.000000e+00
1.000000e+00
5.820586e-01
5.910005e-01
6.013504e-01
6.118159e-01
6.217451e-01
6.300970e-01
6.357390e-01
6.377654e-01
6.358268e-01
6.302526e-01
6.219228e-01
6.119796e-01
6.014538e-01
5.912612e-01
5.810649e-01
0.000000e+00
1.000000e+00
5.810453e-01
5.890575e-01
5.982631e-01
6.075884e-01
6.164348e-01
6.238748e-01
6.288981e-01
6.306983e-01
6.289700e-01
6.240061e-01
6.165876e-01
6.077325e-01
5.983709e-01
5.892466e-01
5.803197e-01
0.000000e+00
1.000000e+00
5.799122e-01
5.868157e-01
5.947179e-01
6.027342e-01
6.103385e-01
6.167331e-01
6.210494e-01
6.225926e-01
6.211032e-01
6.168385e-01
6.104659e-01
6.028633e-01
5.948352e-01
5.869489e-01
5.796157e-01
0.000000e+00
1.000000e+00
5.787251e-01
5.843839e-01
5.908967e-01
5.975025e-01
6.037687e-01
6.090374e-01
6.125933e-01
6.138627e-01
6.126306e-01
6.091161e-01
6.038694e-01
5.976152e-01
5.910039e-01
5.844925e-01
5.783531e-01
0.000000e+00
1.000000e+00
5.750265e-01
5.769523e-01
5.792045e-01
5.814933e-01
5.836638e-01
5.854879e-01
5.867170e-01
5.871524e-01
5.867172e-01
5.854886e-01
5.836677e-01
5.815200e-01
5.792671e-01
5.769996e-01
5.747581e-01
0.000000e+00
1.000000e+00
5.757988e-01
5.785160e-01
5.816566e-01
5.848509e-01
5.878801e-01
5.904260e-01
5.921420e-01
5.927505e-01
5.921448e-01
5.904328e-01
5.878966e-01
5.848969e-01
5.817275e-01
5.785715e-01
5.754854e-01
0.000000e+00
1.000000e+00
5.766939e-01
5.803391e-01
5.845173e-01
5.887678e-01
5.927988e-01
5.961869e-01
5.984712e-01
5.992825e-01
5.984788e-01
5.962038e-01
5.928356e-01
5.888375e-01
5.845987e-01
5.804036e-01
5.763538e-01
0.000000e+00
1.000000e+00
5.776947e-01
5.823753e-01
5.877125e-01
5.931426e-01
5.982927e-01
6.026217e-01
6.055410e-01
6.065792e-01
6.055544e-01
6.026516e-01
5.983567e-01
5.932308e-01
5.878058e-01
5.824504e-01
5.773199e-01
0.000000e+00
1.000000e+00
5.787552e-01
5.845400e-01
5.911106e-01
5.977952e-01
6.041352e-01
6.094650e-01
6.130600e-01
6.143398e-01
6.130803e-01
6.095129e-01
6.042331e-01
5.978942e-01
5.912166e-01
5.846242e-01
5.783481e-01
0.000000e+00
1.000000e+00
5.798208e-01
5.867157e-01
5.945274e-01
6.024735e-01
6.100100e-01
6.163461e-01
6.206209e-01
6.221445e-01
6.206504e-01
6.164169e-01
6.101383e-01
6.025900e-01
5.946437e-01
5.868081e-01
5.793842e-01
0.000000e+00
1.000000e+00
5.808258e-01
5.887581e-01
5.977367e-01
6.068675e-01
6.155280e-01
6.228097e-01
6.277240e-01
6.294780e-01
6.277657e-01
6.229053e-01
6.156776e-01
6.070144e-01
5.978622e-01
5.888558e-01
5.803559e-01
0.000000e+00
1.000000e+00
5.816998e-01
5.905098e-01
6.004926e-01
6.106411e-01
6.202673e-01
6.283621e-01
6.338273e-01
6.357817e-01
6.338829e-01
6.284796e-01
6.204345e-01
6.108132e-01
6.006370e-01
5.906095e-01
5.811929e-01
0.000000e+00
1.000000e+00
5.823642e-01
5.918262e-01
6.025661e-01
6.134796e-01
6.238313e-01
6.325372e-01
6.384175e-01
6.405256e-01
6.384872e-01
6.326674e-01
6.240112e-01
6.136604e-01
6.027314e-01
5.919279e-01
5.818200e-01
0.000000e+00
1.000000e+00
5.827630e-01
5.925837e-01
6.037709e-01
6.151281e-01
6.259011e-01
6.349625e-01
6.410857e-01
6.432863e-01
6.411709e-01
6.350971e-01
6.260888e-01
6.153330e-01
6.039251e-01
5.926776e-01
5.821823e-01
0.000000e+00
1.000000e+00
5.828608e-01
5.927169e-01
6.040002e-01
6.154415e-01
6.262949e-01
6.354252e-01
6.415962e-01
6.438170e-01
6.416915e-01
6.355624e-01
6.264926e-01
6.156679e-01
6.041285e-01
5.928701e-01
5.821126e-01
0.000000e+00
1.000000e+00
5.826383e-01
5.922195e-01
6.032359e-01
6.143953e-01
6.249821e-01
6.338882e-01
6.399072e-01
6.420730e-01
6.400020e-01
6.340335e-01
6.251806e-01
6.146013e-01
6.033436e-01
5.924269e-01
5.817380e-01
0.000000e+00
1.000000e+00
5.821079e-01
5.911403e-01
6.015461e-01
6.120825e-01
6.220782e-01
6.304862e-01
6.361664e-01
6.382074e-01
6.362536e-01
6.306352e-01
6.222586e-01
6.122569e-01
6.016471e-01
5.913447e-01
5.813069e-01
0.000000e+00
1.000000e+00
5.813106e-01
5.895671e-01
5.990651e-01
6.086863e-01
6.178131e-01
6.254888e-01
6.306719e-01
6.325302e-01
6.307459e-01
6.256236e-01
6.179682e-01
6.088341e-01
5.991640e-01
5.897547e-01
5.805447e-01
0.000000e+00
1.000000e+00
5.803095e-01
5.876078e-01
5.959673e-01
6.044450e-01
6.124866e-01
6.192488e-01
6.238130e-01
6.254452e-01
6.238696e-01
6.193594e-01
6.126198e-01
6.045715e-01
5.960680e-01
5.877671e-01
5.796740e-01
0.000000e+00
1.000000e+00
5.791899e-01
5.853719e-01
5.924406e-01
5.996163e-01
6.064228e-01
6.121458e-01
6.160076e-01
6.173859e-01
6.160474e-01
6.122309e-01
6.065302e-01
5.997270e-01
5.925455e-01
5.854969e-01
5.788067e-01
0.000000e+00
1.000000e+00
5.780164e-01
5.829681e-01
5.886651e-01
5.944471e-01
5.999315e-01
6.045424e-01
6.076534e-01
6.087625e-01
6.076795e-01
6.046022e-01
6.000141e-01
5.945427e-01
5.887575e-01
5.830689e-01
5.776123e-01
0.000000e+00
1.000000e+00
5.745510e-01
5.759905e-01
5.776942e-01
5.794254e-01
5.810671e-01
5.824468e-01
5.833763e-01
5.837050e-01
5.833748e-01
5.824438e-01
5.810618e-01
5.794361e-01
5.777568e-01
5.760415e-01
5.743344e-01
0.000000e+00
1.000000e+00
5.752628e-01
5.774206e-01
5.799363e-01
5.824956e-01
5.849226e-01
5.869625e-01
5.883373e-01
5.888245e-01
5.883379e-01
5.869637e-01
5.849255e-01
5.825343e-01
5.800135e-01
5.774798e-01
5.749435e-01
0.000000e+00
1.000000e+00
5.760883e-01
5.791058e-01
5.825798e-01
5.861150e-01
5.894677e-01
5.922857e-01
5.941853e-01
5.948595e-01
5.941897e-01
5.922953e-01
5.894909e-01
5.861889e-01
5.826681e-01
5.791727e-01
5.757452e-01
0.000000e+00
1.000000e+00
5.770157e-01
5.810042e-01
5.855582e-01
5.901930e-01
5.945887e-01
5.982836e-01
6.007749e-01
6.016602e-01
6.007844e-01
5.983042e-01
5.946401e-01
5.902888e-01
5.856565e-01
5.810820e-01
5.766509e-01
0.000000e+00
1.000000e+00
5.780108e-01
5.830366e-01
5.887474e-01
5.945596e-01
6.000722e-01
6.047062e-01
6.078315e-01
6.089434e-01
6.078470e-01
6.047404e-01
6.001562e-01
5.946690e-01
5.888544e-01
5.831229e-01
5.776205e-01
0.000000e+00
1.000000e+00
5.790234e-01
5.850892e-01
5.919714e-01
5.989741e-01
6.056160e-01
6.111998e-01
6.149665e-01
6.163080e-01
6.149890e-01
6.112497e-01
6.057264e-01
5.991039e-01
5.920841e-01
5.851832e-01
5.786006e-01
0.000000e+00
1.000000e+00
5.799760e-01
5.870247e-01
5.950125e-01
6.031382e-01
6.108455e-01
6.173254e-01
6.216977e-01
6.232567e-01
6.217287e-01
6.173926e-01
6.109770e-01
6.032952e-01
5.951311e-01
5.871243e-01
5.795229e-01
0.000000e+00
1.000000e+00
5.808000e-01
5.886943e-01
5.976340e-01
6.067272e-01
6.153519e-01
6.226035e-01
6.274974e-01
6.292452e-01
6.275394e-01
6.226881e-01
6.155005e-01
6.069024e-01
5.977611e-01
5.887951e-01
5.803154e-01
0.000000e+00
1.000000e+00
5.814273e-01
5.899482e-01
5.996074e-01
6.094282e-01
6.187428e-01
6.265750e-01
6.318625e-01
6.337551e-01
6.319200e-01
6.266764e-01
6.189086e-01
6.096092e-01
5.997461e-01
5.900550e-01
5.809113e-01
0.000000e+00
1.000000e+00
5.818052e-01
5.906710e-01
6.007529e-01
6.109959e-01
6.207110e-01
6.288803e-01
6.343969e-01
6.363752e-01
6.344688e-01
6.289915e-01
6.208822e-01
6.111844e-01
6.008862e-01
5.907710e-01
5.812732e-01
0.000000e+00
1.000000e+00
5.818875e-01
5.907977e-01
6.009642e-01
6.112847e-01
6.210736e-01
6.293057e-01
6.348657e-01
6.368616e-01
6.349442e-01
6.294249e-01
6.212466e-01
6.114839e-01
6.010769e-01
5.909137e-01
5.813355e-01
0.000000e+00
1.000000e+00
5.816585e-01
5.903195e-01
6.002225e-01
6.102691e-01
6.197987e-01
6.278130e-01
6.332257e-01
6.351682e-01
6.333026e-01
6.279395e-01
6.199652e-01
6.104482e-01
6.003215e-01
5.904538e-01
5.810481e-01
0.000000e+00
1.000000e+00
5.811439e-01
5.892787e-01
5.985922e-01
6.080376e-01
6.169972e-01
6.245317e-01
6.296190e-01
6.314422e-01
6.296881e-01
6.246572e-01
6.171461e-01
6.081889e-01
5.986870e-01
5.894190e-01
5.805320e-01
0.000000e+00
1.000000e+00
5.803904e-01
5.877590e-01
5.962037e-01
6.047684e-01
6.128923e-01
6.197234e-01
6.243342e-01
6.259831e-01
6.243899e-01
6.198320e-01
6.130215e-01
6.048962e-01
5.962955e-01
5.879005e-01
5.797898e-01
0.000000e+00
1.000000e+00
5.794451e-01
5.858700e-01
5.932272e-01
6.006935e-01
6.077754e-01
6.137298e-01
6.177475e-01
6.191814e-01
6.177882e-01
6.138169e-01
6.078877e-01
6.008009e-01
5.933195e-01
5.860004e-01
5.789189e-01
0.000000e+00
1.000000e+00
5.783763e-01
5.837229e-01
5.898454e-01
5.960633e-01
6.019609e-01
6.069191e-01
6.102639e-01