<?xml version="1.0"?>
<VTKFile type="StructuredGrid" version="0.1">
  <StructuredGrid WholeExtent="0 16 0 16 0 16">
    <Piece Extent="0 16 0 16 0 16">
      <PointData Scalars="temperature" Vectors="velocity">
        <DataArray type="Float32" Name="temperature" format="ascii">
1.000000e+00
5.730767e-01
5.730040e-01
5.730086e-01
5.730103e-01
5.730118e-01
5.730129e-01
5.730138e-01
5.730141e-01
5.730138e-01
5.730127e-01
5.730114e-01
5.730092e-01
5.730075e-01
5.730193e-01
5.727516e-01
0.000000e+00
1.000000e+00
5.731340e-01
5.730133e-01
5.730459e-01
5.730594e-01
5.730722e-01
5.730828e-01
5.730900e-01
5.730924e-01
5.730895e-01
5.730814e-01
5.730700e-01
5.730572e-01
5.730428e-01
5.730902e-01
5.728611e-01
0.000000e+00
1.000000e+00
5.731712e-01
5.730468e-01
5.731151e-01
5.731549e-01
5.731925e-01
5.732242e-01
5.732457e-01
5.732532e-01
5.732449e-01
5.732223e-01
5.731894e-01
5.731517e-01
5.731125e-01
5.731135e-01
5.730267e-01
0.000000e+00
1.000000e+00
5.731888e-01
5.731231e-01
5.732263e-01
5.733077e-01
5.733851e-01
5.734496e-01
5.734926e-01
5.735070e-01
5.734906e-01
5.734479e-01
5.733846e-01
5.733083e-01
5.732273e-01
5.731584e-01
5.729820e-01
0.000000e+00
1.000000e+00
5.732205e-01
5.732242e-01
5.733787e-01
5.735142e-01
5.736423e-01
5.737513e-01
5.738261e-01
5.738533e-01
5.738284e-01
5.737570e-01
5.736490e-01
5.735192e-01
5.733815e-01
5.732512e-01
5.730704e-01
0.000000e+00
1.000000e+00
5.732751e-01
5.733426e-01
5.735641e-01
5.737696e-01
5.739655e-01
5.741304e-01
5.742425e-01
5.742836e-01
5.742453e-01
5.741386e-01
5.739767e-01
5.737806e-01
5.735729e-01
5.733743e-01
5.731184e-01
0.000000e+00
1.000000e+00
5.733358e-01
5.734798e-01
5.737787e-01
5.740631e-01
5.743371e-01
5.745695e-01
5.747278e-01
5.747880e-01
5.747355e-01
5.745918e-01
5.743682e-01
5.740939e-01
5.738009e-01
5.735184e-01
5.731942e-01
0.000000e+00
1.000000e+00
5.734018e-01
5.736359e-01
5.740169e-01
5.743884e-01
5.747446e-01
5.750485e-01
5.752596e-01
5.753463e-01
5.752856e-01
5.750997e-01
5.748054e-01
5.744439e-01
5.740559e-01
5.736807e-01
5.732679e-01
0.000000e+00
1.000000e+00
5.734750e-01
5.737977e-01
5.742685e-01
5.747336e-01
5.751759e-01
5.755519e-01
5.758135e-01
5.759207e-01
5.758659e-01
5.756352e-01
5.752653e-01
5.748117e-01
5.743235e-01
5.738490e-01
5.733164e-01
0.000000e+00
1.000000e+00
5.735426e-01
5.739551e-01
5.745110e-01
5.750657e-01
5.755935e-01
5.760403e-01
5.763442e-01
5.764711e-01
5.764367e-01
5.761846e-01
5.757342e-01
5.751840e-01
5.745930e-01
5.740130e-01
5.733443e-01
0.000000e+00
1.000000e+00
5.736085e-01
5.740956e-01
5.747285e-01
5.753624e-01
5.759653e-01
5.764759e-01
5.768322e-01
5.770112e-01
5.769537e-01
5.766935e-01
5.761801e-01
5.755382e-01
5.748495e-01
5.741671e-01
5.734059e-01
0.000000e+00
1.000000e+00
5.736706e-01
5.742196e-01
5.749237e-01
5.756264e-01
5.762954e-01
5.768658e-01
5.772823e-01
5.775059e-01
5.774181e-01
5.771306e-01
5.765737e-01
5.758543e-01
5.750792e-01
5.743092e-01
5.734682e-01
0.000000e+00
1.000000e+00
5.737141e-01
5.743333e-01
5.750877e-01
5.758520e-01
5.765791e-01
5.772037e-01
5.776661e-01
5.779081e-01
5.778193e-01
5.774932e-01
5.768959e-01
5.761163e-01
5.752705e-01
5.744315e-01
5.735156e-01
0.000000e+00
1.000000e+00
5.737504e-01
5.744179e-01
5.752174e-01
5.760311e-01
5.768078e-01
5.774758e-01
5.779667e-01
5.782151e-01
5.781326e-01
5.777672e-01
5.771221e-01
5.762993e-01
5.754078e-01
5.745231e-01
5.735289e-01
0.000000e+00
1.000000e+00
5.737759e-01
5.744744e-01
5.753085e-01
5.761560e-01
5.769693e-01
5.776682e-01
5.781732e-01
5.784160e-01
5.783374e-01
5.779455e-01
5.772623e-01
5.764086e-01
5.754893e-01
5.745846e-01
5.735684e-01
0.000000e+00
1.000000e+00
5.737800e-01
5.745094e-01
5.753573e-01
5.762225e-01
5.770558e-01
5.777738e-01
5.782872e-01
5.785193e-01
5.784400e-01
5.780214e-01
5.773125e-01
5.764427e-01
5.755110e-01
5.746059e-01
5.735657e-01
0.000000e+00
1.000000e+00
5.737491e-01
5.745084e-01
5.753464e-01
5.762111e-01
5.770478e-01
5.777726e-01
5.782954e-01
5.785325e-01
5.784397e-01
5.780125e-01
5.772997e-01
5.764315e-01
5.755089e-01
5.745975e-01
5.734734e-01
0.000000e+00
1.000000e+00
5.731152e-01
5.729953e-01
5.730088e-01
5.730102e-01
5.730114e-01
5.730122e-01
5.730128e-01
5.730129e-01
5.730126e-01
5.730121e-01
5.730117e-01
5.730110e-01
5.730104e-01
5.730400e-01
5.727324e-01
0.000000e+00
1.000000e+00
5.731797e-01
5.730285e-01
5.730810e-01
5.731074e-01
5.731320e-01
5.731528e-01
5.731668e-01
5.731717e-01
5.731663e-01
5.731514e-01
5.731296e-01
5.731034e-01
5.730768e-01
5.731067e-01
5.727186e-01
0.000000e+00
1.000000e+00
5.732057e-01
5.731010e-01
5.731896e-01
5.732580e-01
5.733221e-01
5.733754e-01
5.734111e-01
5.734231e-01
5.734092e-01
5.733714e-01
5.733155e-01
5.732500e-01
5.731854e-01
5.731749e-01
5.729409e-01
0.000000e+00
1.000000e+00
5.732289e-01
5.732177e-01
5.733444e-01
5.734695e-01
5.735884e-01
5.736876e-01
5.737534e-01
5.737760e-01
5.737510e-01
5.736826e-01
5.735832e-01
5.734661e-01
5.733445e-01
5.732615e-01
5.729338e-01
0.000000e+00
1.000000e+00
5.732792e-01
5.733368e-01
5.735431e-01
5.737402e-01
5.739263e-01
5.740828e-01
5.741880e-01
5.742255e-01
5.741873e-01
5.740825e-01
5.739298e-01
5.737444e-01
5.735465e-01
5.733721e-01
5.730481e-01
0.000000e+00
1.000000e+00
5.733388e-01
5.734824e-01
5.737755e-01
5.740582e-01
5.743259e-01
5.745518e-01
5.747053e-01
5.747628e-01
5.747084e-01
5.745639e-01
5.743444e-01
5.740731e-01
5.737842e-01
5.735211e-01
5.731125e-01
0.000000e+00
1.000000e+00
5.734148e-01
5.736478e-01
5.740342e-01
5.744111e-01
5.747701e-01
5.750759e-01
5.752864e-01
5.753701e-01
5.753005e-01
5.751135e-01
5.748137e-01
5.744448e-01
5.740541e-01
5.736916e-01
5.731937e-01
0.000000e+00
1.000000e+00
5.734941e-01
5.738262e-01
5.743109e-01
5.747882e-01
5.752434e-01
5.756328e-01
5.759040e-01
5.760190e-01
5.759472e-01
5.757043e-01
5.753171e-01
5.748450e-01
5.743436e-01
5.738766e-01
5.732533e-01
0.000000e+00
1.000000e+00
5.735726e-01
5.740099e-01
5.745921e-01
5.751720e-01
5.757256e-01
5.761994e-01
5.765285e-01
5.766702e-01
5.766100e-01
5.763047e-01
5.758296e-01
5.752513e-01
5.746366e-01
5.740629e-01
5.733254e-01
0.000000e+00
1.000000e+00
5.736497e-01
5.741843e-01
5.748591e-01
5.755370e-01
5.761843e-01
5.767359e-01
5.771172e-01
5.772925e-01
5.772327e-01
5.768948e-01
5.763272e-01
5.756419e-01
5.749171e-01
5.742389e-01
5.734057e-01
0.000000e+00
1.000000e+00
5.737212e-01
5.743390e-01
5.750963e-01
5.758573e-01
5.765801e-01
5.771984e-01
5.776468e-01
5.778812e-01
5.777800e-01
5.774312e-01
5.767840e-01
5.759972e-01
5.751702e-01
5.743965e-01
5.734846e-01
0.000000e+00
1.000000e+00
5.737822e-01
5.744690e-01
5.752980e-01
5.761271e-01
5.769135e-01
5.775947e-01
5.781087e-01
5.783736e-01
5.782509e-01
5.778746e-01
5.771733e-01
5.762989e-01
5.753839e-01
5.745307e-01
5.735296e-01
0.000000e+00
1.000000e+00
5.738246e-01
5.745742e-01
5.754558e-01
5.763393e-01
5.771767e-01
5.779105e-01
5.784706e-01
5.787496e-01
5.786269e-01
5.782144e-01
5.774709e-01
5.765311e-01
5.755475e-01
5.746346e-01
5.735598e-01
0.000000e+00
1.000000e+00
5.738543e-01
5.746485e-01
5.755668e-01
5.764889e-01
5.773649e-01
5.781336e-01
5.787165e-01
5.790027e-01
5.788917e-01
5.784456e-01
5.776639e-01
5.766832e-01
5.756564e-01
5.747046e-01
5.735838e-01
0.000000e+00
1.000000e+00
5.738691e-01
5.746939e-01
5.756320e-01
5.765757e-01
5.774746e-01
5.782592e-01
5.788462e-01
5.791317e-01
5.790292e-01
5.785653e-01
5.777567e-01
5.767539e-01
5.757079e-01
5.747481e-01
5.736158e-01
0.000000e+00
1.000000e+00
5.738625e-01
5.746927e-01
5.756288e-01
5.765783e-01
5.774879e-01
5.782827e-01
5.788697e-01
5.791456e-01
5.790453e-01
5.785833e-01
5.777730e-01
5.767709e-01
5.757075e-01
5.747396e-01
5.735977e-01
0.000000e+00
1.000000e+00
5.738500e-01
5.746453e-01
5.755600e-01
5.764936e-01
5.773972e-01
5.781911e-01
5.787813e-01
5.790547e-01
5.789408e-01
5.785105e-01
5.777495e-01
5.767948e-01
5.757670e-01
5.747434e-01
5.736211e-01
0.000000e+00
1.000000e+00
5.731073e-01
5.729690e-01
5.729690e-01
5.729562e-01
5.729439e-01
5.729337e-01
5.729268e-01
5.729246e-01
5.729274e-01
5.729348e-01
5.729451e-01
5.729572e-01
5.729698e-01
5.729976e-01
5.728391e-01
0.000000e+00
1.000000e+00
5.732032e-01
5.730270e-01
5.730803e-01
5.731062e-01
5.731304e-01
5.731509e-01
5.731648e-01
5.731696e-01
5.731644e-01
5.731497e-01
5.731282e-01
5.731027e-01
5.730767e-01
5.730867e-01
5.728969e-01
0.000000e+00
1.000000e+00
5.732041e-01
5.731295e-01
5.732296e-01
5.733133e-01
5.733915e-01
5.734567e-01
5.735002e-01
5.735151e-01
5.734987e-01
5.734535e-01
5.733865e-01
5.733072e-01
5.732268e-01
5.732188e-01
5.728742e-01
0.000000e+00
1.000000e+00
5.732397e-01
5.732820e-01
5.734298e-01
5.735866e-01
5.737355e-01
5.738592e-01
5.739412e-01
5.739695e-01
5.739385e-01
5.738531e-01
5.737290e-01
5.735836e-01
5.734318e-01
5.733356e-01
5.729068e-01
0.000000e+00
1.000000e+00
5.733164e-01
5.734301e-01
5.736762e-01
5.739229e-01
5.741559e-01
5.743508e-01
5.744809e-01
5.745275e-01
5.744786e-01
5.743474e-01
5.741580e-01
5.739288e-01
5.736823e-01
5.734716e-01
5.729917e-01
0.000000e+00
1.000000e+00
5.733972e-01
5.736000e-01
5.739538e-01
5.743040e-01
5.746356e-01
5.749151e-01
5.751049e-01
5.751769e-01
5.751071e-01
5.749319e-01
5.746631e-01
5.743282e-01
5.739709e-01
5.736478e-01
5.730947e-01
0.000000e+00
1.000000e+00
5.734828e-01
5.737933e-01
5.742569e-01
5.747167e-01
5.751541e-01
5.755269e-01
5.757854e-01
5.758919e-01
5.758075e-01
5.755845e-01
5.752175e-01
5.747659e-01
5.742889e-01
5.738467e-01
5.731906e-01
0.000000e+00
1.000000e+00
5.735737e-01
5.739971e-01
5.745730e-01
5.751474e-01
5.756948e-01
5.761631e-01
5.764897e-01
5.766285e-01
5.765656e-01
5.762596e-01
5.757910e-01
5.752221e-01
5.746205e-01
5.740561e-01
5.732854e-01
0.000000e+00
1.000000e+00
5.736669e-01
5.741988e-01
5.748857e-01
5.755739e-01
5.762311e-01
5.767951e-01
5.771857e-01
5.773503e-01
5.772926e-01
5.769297e-01
5.763605e-01
5.756728e-01
5.749475e-01
5.742624e-01
5.733823e-01
0.000000e+00
1.000000e+00
5.737578e-01
5.743872e-01
5.751804e-01
5.759734e-01
5.767285e-01
5.773724e-01
5.778247e-01
5.780370e-01
5.779619e-01
5.775692e-01
5.768994e-01
5.760945e-01
5.752518e-01
5.744553e-01
5.734819e-01
0.000000e+00
1.000000e+00
5.738304e-01
5.745579e-01
5.754388e-01
5.763181e-01
5.771478e-01
5.778606e-01
5.783884e-01
5.786530e-01
5.785243e-01
5.781259e-01
5.773775e-01
5.764642e-01
5.755160e-01
5.746215e-01
5.735663e-01
0.000000e+00
1.000000e+00
5.738897e-01
5.746944e-01
5.756481e-01
5.765909e-01
5.774794e-01
5.782596e-01
5.788557e-01
5.791401e-01
5.789820e-01
5.785572e-01
5.777659e-01
5.767641e-01
5.757286e-01
5.747553e-01
5.736183e-01
0.000000e+00
1.000000e+00
5.739289e-01
5.747954e-01
5.757995e-01
5.767854e-01
5.777195e-01
5.785547e-01
5.791914e-01
5.794849e-01
5.793222e-01
5.788589e-01
5.780391e-01
5.769787e-01
5.758790e-01
5.748477e-01
5.736384e-01
0.000000e+00
1.000000e+00
5.739489e-01
5.748574e-01
5.758905e-01
5.769019e-01
5.778654e-01
5.787279e-01
5.793808e-01
5.796810e-01
5.795363e-01
5.790404e-01
5.781899e-01
5.770977e-01
5.759649e-01
5.749002e-01
5.736561e-01
0.000000e+00
1.000000e+00
5.739526e-01
5.748840e-01
5.759235e-01
5.769433e-01
5.779130e-01
5.787781e-01
5.794299e-01
5.797323e-01
5.796076e-01
5.791046e-01
5.782310e-01
5.771256e-01
5.759879e-01
5.749248e-01
5.736923e-01
0.000000e+00
1.000000e+00
5.739339e-01
5.748451e-01
5.758560e-01
5.768648e-01
5.778356e-01
5.787030e-01
5.793540e-01
5.796546e-01
5.795430e-01
5.790546e-01
5.781882e-01
5.770977e-01
5.759545e-01
5.748919e-01
5.736572e-01
0.000000e+00
1.000000e+00
5.739085e-01
5.747492e-01
5.757136e-01
5.766976e-01
5.776558e-01
5.785137e-01
5.791656e-01
5.794642e-01
5.793364e-01
5.788971e-01
5.781189e-01
5.771097e-01
5.760045e-01
5.748780e-01
5.736890e-01
0.000000e+00
1.000000e+00
5.730836e-01
5.729161e-01
5.728900e-01
5.728477e-01
5.728075e-01
5.727737e-01
5.727512e-01
5.727436e-01
5.727521e-01
5.727752e-01
5.728087e-01
5.728482e-01
5.728907e-01
5.729405e-01
5.728723e-01
0.000000e+00
1.000000e+00
5.731901e-01
5.729991e-01
5.730370e-01
5.730476e-01
5.730574e-01
5.730655e-01
5.730711e-01
5.730731e-01
5.730710e-01
5.730647e-01
5.730560e-01
5.730457e-01
5.730358e-01
5.730385e-01
5.729802e-01
0.000000e+00
1.000000e+00
5.732001e-01
5.731241e-01
5.732301e-01
5.733122e-01
5.733899e-01
5.734551e-01
5.734992e-01
5.735152e-01
5.734997e-01
5.734536e-01
5.733885e-01
5.733108e-01
5.732288e-01
5.731958e-01
5.729880e-01
0.000000e+00
1.000000e+00
5.732461e-01
5.733025e-01
5.734776e-01
5.736513e-01
5.738149e-01
5.739505e-01
5.740399e-01
5.740703e-01
5.740359e-01
5.739413e-01
5.738054e-01
5.736468e-01
5.734778e-01
5.733483e-01
5.730093e-01
0.000000e+00
1.000000e+00
5.733450e-01
5.734849e-01
5.737671e-01
5.740498e-01
5.743164e-01
5.745380e-01
5.746851e-01
5.747379e-01
5.746808e-01
5.745320e-01
5.743191e-01
5.740592e-01
5.737767e-01
5.735255e-01
5.731194e-01
0.000000e+00
1.000000e+00
5.734421e-01
5.736847e-01
5.740884e-01
5.744896e-01
5.748715e-01
5.751943e-01
5.754144e-01
5.755003e-01
5.754177e-01
5.752230e-01
5.749162e-01
5.745302e-01
5.741168e-01
5.737354e-01
5.732092e-01
0.000000e+00
1.000000e+00
5.735391e-01
5.739072e-01
5.744350e-01
5.749608e-01
5.754626e-01
5.758918e-01
5.761921e-01
5.763209e-01
5.762314e-01
5.759765e-01
5.755534e-01
5.750340e-01
5.744827e-01
5.739638e-01
5.733128e-01
0.000000e+00
1.000000e+00
5.736415e-01
5.741368e-01
5.747898e-01
5.754447e-01
5.760698e-01
5.766052e-01
5.769777e-01
5.771410e-01
5.770878e-01
5.767366e-01
5.761991e-01
5.755476e-01
5.748557e-01
5.741988e-01
5.734019e-01
0.000000e+00
1.000000e+00
5.737479e-01
5.743584e-01
5.751338e-01
5.759142e-01
5.766580e-01
5.772947e-01
5.777364e-01
5.779292e-01
5.778796e-01
5.774825e-01
5.768300e-01
5.760455e-01
5.752158e-01
5.744250e-01
5.734943e-01
0.000000e+00
1.000000e+00
5.738433e-01
5.745608e-01
5.754482e-01
5.763378e-01
5.771811e-01
5.779039e-01
5.784281e-01
5.786871e-01
5.785809e-01
5.781643e-01
5.774093e-01
5.764973e-01
5.755402e-01
5.746295e-01
5.735847e-01
0.000000e+00
1.000000e+00
5.739176e-01
5.747365e-01
5.757154e-01
5.766927e-01
5.776137e-01
5.784177e-01
5.790248e-01
5.793157e-01
5.791635e-01
5.787259e-01
5.779071e-01
5.768827e-01
5.758124e-01
5.747989e-01
5.736668e-01
0.000000e+00
1.000000e+00
5.739764e-01
5.748681e-01
5.759198e-01
5.769579e-01
5.779411e-01
5.788203e-01
5.794870e-01
5.797883e-01
5.796111e-01
5.791314e-01
5.782890e-01
5.771858e-01
5.760226e-01
5.749271e-01
5.737155e-01
0.000000e+00
1.000000e+00
5.740084e-01
5.749532e-01
5.760478e-01
5.771238e-01
5.781588e-01
5.790919e-01
5.797855e-01
5.800936e-01
5.799096e-01
5.793833e-01
5.785255e-01
5.773860e-01
5.761598e-01
5.750048e-01
5.737314e-01
0.000000e+00
1.000000e+00
5.740230e-01
5.749910e-01
5.761063e-01
5.772000e-01
5.782627e-01
5.792130e-01
5.799130e-01
5.802272e-01
5.800637e-01
5.795070e-01
5.786238e-01
5.774708e-01
5.762210e-01
5.750395e-01
5.737339e-01
0.000000e+00
1.000000e+00
5.740159e-01
5.749946e-01
5.761065e-01
5.771954e-01
5.782454e-01
5.791847e-01
5.798807e-01
5.801971e-01
5.800594e-01
5.795127e-01
5.786123e-01
5.774459e-01
5.762040e-01
5.750418e-01
5.737603e-01
0.000000e+00
1.000000e+00
5.739822e-01
5.749278e-01
5.759917e-01
5.770554e-01
5.780864e-01
5.790151e-01
5.797085e-01
5.800262e-01
5.799089e-01
5.793955e-01
5.785032e-01
5.773549e-01
5.761292e-01
5.749830e-01
5.737134e-01
0.000000e+00
1.000000e+00
5.739536e-01
5.748135e-01
5.758108e-01
5.768267e-01
5.778298e-01
5.787378e-01
5.794257e-01
5.797372e-01
5.796098e-01
5.791489e-01
5.783603e-01
5.773247e-01
5.761666e-01
5.749647e-01
5.737386e-01
0.000000e+00
1.000000e+00
5.730518e-01
5.728341e-01
5.727687e-01
5.726812e-01
5.725982e-01
5.725284e-01
5.724817e-01
5.724656e-01
5.724828e-01
5.725302e-01
5.725995e-01
5.726826e-01
5.727704e-01
5.728672e-01
5.727894e-01
0.000000e+00
1.000000e+00
5.731622e-01
5.729439e-01
5.729486e-01
5.729275e-01
5.729073e-01
5.728903e-01
5.728788e-01
5.728748e-01
5.728788e-01
5.728899e-01
5.729057e-01
5.729263e-01
5.729486e-01
5.729730e-01
5.728662e-01
0.000000e+00
1.000000e+00
5.732009e-01
5.730941e-01
5.731846e-01
5.732491e-01
5.733101e-01
5.733616e-01
5.733965e-01
5.734090e-01
5.733965e-01
5.733602e-01
5.733075e-01
5.732459e-01
5.731809e-01
5.731421e-01
5.729145e-01
0.000000e+00
1.000000e+00
5.732431e-01
5.732838e-01
5.734737e-01
5.736484e-01
5.738112e-01
5.739454e-01
5.740335e-01
5.740631e-01
5.740279e-01
5.739328e-01
5.737993e-01
5.736438e-01
5.734747e-01
5.733469e-01
5.729522e-01
0.000000e+00
1.000000e+00
5.733624e-01
5.735056e-01
5.738055e-01
5.741040e-01
5.743869e-01
5.746224e-01
5.747792e-01
5.748360e-01
5.747744e-01
5.746195e-01
5.743972e-01
5.741223e-01
5.738223e-01
5.735578e-01
5.730681e-01
0.000000e+00
1.000000e+00
5.734707e-01
5.737383e-01
5.741723e-01
5.746027e-01
5.750145e-01
5.753655e-01
5.756074e-01
5.757058e-01
5.756152e-01
5.754101e-01
5.750780e-01
5.746585e-01
5.742097e-01
5.737946e-01
5.731925e-01
0.000000e+00
1.000000e+00
5.735827e-01
5.739874e-01
5.745612e-01
5.751326e-01
5.756785e-01
5.761463e-01
5.764755e-01
5.766192e-01
5.765407e-01
5.762553e-01
5.757908e-01
5.752228e-01
5.746197e-01
5.740488e-01
5.733190e-01
0.000000e+00
1.000000e+00
5.737019e-01
5.742380e-01
5.749536e-01
5.756683e-01
5.763501e-01
5.769327e-01
5.773339e-01
5.775189e-01
5.774694e-01
5.771018e-01
5.765085e-01
5.757916e-01
5.750320e-01
5.743070e-01
5.734466e-01
0.000000e+00
1.000000e+00
5.738106e-01
5.744800e-01
5.753255e-01
5.761742e-01
5.769793e-01
5.776657e-01
5.781522e-01
5.783937e-01
5.783210e-01
5.779175e-01
5.771988e-01
5.763330e-01
5.754217e-01
5.745514e-01
5.735598e-01
0.000000e+00
1.000000e+00
5.739092e-01
5.746957e-01
5.756566e-01
5.766161e-01
5.775202e-01
5.783047e-01
5.788978e-01
5.791940e-01
5.790489e-01
5.786306e-01
5.778186e-01
5.768145e-01
5.757650e-01
5.747669e-01
5.736511e-01
0.000000e+00
1.000000e+00
5.739904e-01
5.748725e-01
5.759299e-01
5.769737e-01
5.779618e-01
5.788439e-01
5.795186e-01
5.798259e-01
5.796528e-01
5.791851e-01
5.783279e-01
5.772159e-01
5.760451e-01
5.749392e-01
5.737244e-01
0.000000e+00
1.000000e+00
5.740448e-01
5.750000e-01
5.761221e-01
5.772254e-01
5.782890e-01
5.792485e-01
5.799636e-01
5.802777e-01
5.800961e-01
5.795608e-01
5.786787e-01
5.775128e-01
5.762528e-01
5.750602e-01
5.737689e-01
0.000000e+00
1.000000e+00
5.740748e-01
5.750664e-01
5.762270e-01
5.773711e-01
5.784916e-01
5.794892e-01
5.802160e-01
5.805386e-01
5.803591e-01
5.797687e-01
5.788577e-01
5.776857e-01
5.763824e-01
5.751237e-01
5.737897e-01
0.000000e+00
1.000000e+00
5.740835e-01
5.750779e-01
5.762553e-01
5.774165e-01
5.785554e-01
5.795532e-01
5.802790e-01
5.806072e-01
5.804473e-01
5.798331e-01
5.788886e-01
5.777188e-01
5.764245e-01
5.751395e-01
5.737957e-01
0.000000e+00
1.000000e+00
5.740583e-01
5.750638e-01
5.762259e-01
5.773630e-01
5.784704e-01
5.794496e-01
5.801690e-01
5.804970e-01
5.803568e-01
5.797665e-01
5.788264e-01
5.776497e-01
5.763662e-01
5.751131e-01
5.738172e-01
0.000000e+00
1.000000e+00
5.740132e-01
5.749701e-01
5.760732e-01
5.771664e-01
5.782349e-01
5.791949e-01
5.799072e-01
5.802361e-01
5.801148e-01
5.795773e-01
5.786738e-01
5.775104e-01
5.762408e-01
5.750311e-01
5.737401e-01
0.000000e+00
1.000000e+00
5.739831e-01
5.748330e-01
5.758523e-01
5.768793e-01
5.779072e-01
5.788375e-01
5.795346e-01
5.798526e-01
5.797271e-01
5.792534e-01
5.784658e-01
5.774268e-01
5.762479e-01
5.750072e-01
5.737666e-01
0.000000e+00
1.000000e+00
5.729919e-01
5.727319e-01
5.726062e-01
5.724585e-01
5.723184e-01
5.722007e-01
5.721214e-01
5.720937e-01
5.721224e-01
5.722025e-01
5.723200e-01
5.724605e-01
5.726072e-01
5.727665e-01
5.727488e-01
0.000000e+00
1.000000e+00
5.731158e-01
5.728604e-01
5.728169e-01
5.727470e-01
5.726808e-01
5.726252e-01
5.725880e-01
5.725751e-01
5.725887e-01
5.726261e-01
5.726805e-01
5.727480e-01
5.728180e-01
5.728966e-01
5.728274e-01
0.000000e+00
1.000000e+00
5.732114e-01
5.730275e-01
5.730889e-01
5.731187e-01
5.731467e-01
5.731702e-01
5.731863e-01
5.731923e-01
5.731868e-01
5.731704e-01
5.731462e-01
5.731191e-01
5.730898e-01
5.730892e-01
5.728292e-01
0.000000e+00
1.000000e+00
5.732294e-01
5.732391e-01
5.734131e-01
5.735632e-01
5.737079e-01
5.738293e-01
5.739101e-01
5.739385e-01
5.739088e-01
5.738269e-01
5.737105e-01
5.735709e-01
5.734181e-01
5.733147e-01
5.729180e-01
0.000000e+00
1.000000e+00
5.733429e-01
5.734984e-01
5.737909e-01
5.740787e-01
5.743553e-01
5.745896e-01
5.747474e-01
5.748059e-01
5.747458e-01
5.745942e-01
5.743749e-01
5.741030e-01
5.738074e-01
5.735516e-01
5.730447e-01
0.000000e+00
1.000000e+00
5.734771e-01
5.737580e-01
5.741999e-01
5.746387e-01
5.750584e-01
5.754178e-01
5.756672e-01
5.757700e-01
5.756764e-01
5.754660e-01
5.751262e-01
5.746971e-01
5.742379e-01
5.738125e-01
5.731876e-01
0.000000e+00
1.000000e+00
5.736018e-01
5.740291e-01
5.746261e-01
5.752216e-01
5.757895e-01
5.762756e-01
5.766179e-01
5.767675e-01
5.766956e-01
5.763935e-01
5.759083e-01
5.753166e-01
5.746880e-01
5.740918e-01
5.733358e-01
0.000000e+00
1.000000e+00
5.737316e-01
5.743006e-01
5.750510e-01
5.758017e-01
5.765154e-01
5.771224e-01
5.775373e-01
5.777393e-01
5.776902e-01
5.773195e-01
5.766894e-01
5.759335e-01
5.751339e-01
5.743706e-01
5.734718e-01
0.000000e+00
1.000000e+00
5.738507e-01
5.745555e-01
5.754455e-01
5.763356e-01
5.771744e-01
5.778891e-01
5.784112e-01
5.786896e-01
5.785818e-01
5.781942e-01
5.774340e-01
5.765141e-01
5.755497e-01
5.746303e-01
5.735920e-01
0.000000e+00
1.000000e+00
5.739596e-01
5.747770e-01
5.757910e-01
5.767895e-01
5.777281e-01
5.785553e-01
5.792008e-01
5.795168e-01
5.793383e-01
5.789259e-01
5.780893e-01
5.770231e-01
5.759088e-01
5.748531e-01
5.736855e-01
0.000000e+00
1.000000e+00
5.740433e-01
5.749537e-01
5.760646e-01
5.771410e-01
5.781719e-01
5.791101e-01
5.798307e-01
5.801473e-01
5.799515e-01
5.794639e-01
5.785961e-01
5.774351e-01
5.761943e-01
5.750229e-01
5.737496e-01
0.000000e+00
1.000000e+00
5.740892e-01
5.750765e-01
5.762421e-01
5.773788e-01
5.784969e-01
5.795067e-01
5.802506e-01
5.805740e-01
5.803851e-01
5.798140e-01
5.789079e-01
5.777194e-01
5.764020e-01
5.751341e-01
5.737823e-01
0.000000e+00
1.000000e+00
5.741143e-01
5.751257e-01
5.763283e-01
5.775142e-01
5.786825e-01
5.797104e-01
5.804557e-01
5.807892e-01
5.806176e-01
5.799947e-01
5.790303e-01
5.778385e-01
5.765171e-01
5.751863e-01
5.738079e-01
0.000000e+00
1.000000e+00
5.741130e-01
5.751114e-01
5.763403e-01
5.775409e-01
5.787066e-01
5.797200e-01
5.804584e-01
5.807946e-01
5.806453e-01
5.800178e-01
5.790158e-01
5.778050e-01
5.765107e-01
5.751747e-01
5.738140e-01
0.000000e+00
1.000000e+00
5.740752e-01
5.750790e-01
5.762825e-01
5.774397e-01
5.785629e-01
5.795499e-01
5.802762e-01
5.806089e-01
5.804711e-01
5.798677e-01
5.788896e-01
5.776928e-01
5.764088e-01
5.751156e-01
5.738213e-01
0.000000e+00
1.000000e+00
5.740167e-01
5.749733e-01
5.760854e-01
5.771815e-01
5.782581e-01
5.792193e-01
5.799325e-01
5.802649e-01
5.801418e-01
5.795937e-01
5.786867e-01
5.775331e-01
5.762669e-01
5.750287e-01
5.737456e-01
0.000000e+00
1.000000e+00
5.739750e-01
5.748205e-01
5.758253e-01
5.768456e-01
5.778669e-01
5.787885e-01
5.794767e-01
5.797952e-01
5.796731e-01
5.792018e-01
5.784266e-01
5.773998e-01
5.762269e-01
5.749867e-01
5.737655e-01
0.000000e+00
1.000000e+00
5.729119e-01
5.726098e-01
5.724068e-01
5.721855e-01
5.719756e-01
5.717992e-01
5.716805e-01
5.716385e-01
5.716809e-01
5.718010e-01
5.719774e-01
5.721872e-01
5.724073e-01
5.726420e-01
5.726546e-01
0.000000e+00
1.000000e+00
5.730371e-01
5.727530e-01
5.726446e-01
5.725110e-01
5.723842e-01
5.722778e-01
5.722062e-01
5.721813e-01
5.722073e-01
5.722792e-01
5.723847e-01
5.725130e-01
5.726457e-01
5.727923e-01
5.727884e-01
0.000000e+00
1.000000e+00
5.731779e-01
5.729364e-01
5.729466e-01
5.729242e-01
5.729028e-01
5.728850e-01
5.728733e-01
5.728694e-01
5.728739e-01
5.728853e-01
5.729013e-01
5.729241e-01
5.729467e-01
5.729844e-01
5.727783e-01
0.000000e+00
1.000000e+00
5.732230e-01
5.731707e-01
5.733086e-01
5.734187e-01
5.735243e-01
5.736139e-01
5.736745e-01
5.736962e-01
5.736747e-01
5.736135e-01
5.735242e-01
5.734190e-01
5.733076e-01
5.732262e-01
5.728963e-01
0.000000e+00
1.000000e+00
5.733083e-01
5.734478e-01
5.737242e-01
5.739887e-01
5.742398e-01
5.744500e-01
5.745901e-01
5.746399e-01
5.745840e-01
5.744410e-01
5.742400e-01
5.739962e-01
5.737315e-01
5.735047e-01
5.730299e-01
0.000000e+00
1.000000e+00
5.734589e-01
5.737364e-01
5.741655e-01
5.745935e-01
5.750025e-01
5.753501e-01
5.755883e-01
5.756818e-01
5.755881e-01
5.753773e-01
5.750522e-01
5.746419e-01
5.741992e-01
5.737919e-01
5.731758e-01
0.000000e+00
1.000000e+00
5.735940e-01
5.740294e-01
5.746246e-01
5.752196e-01
5.757870e-01
5.762724e-01
5.766128e-01
5.767590e-01
5.766677e-01
5.763723e-01
5.758936e-01
5.753052e-01
5.746800e-01
5.740896e-01
5.733333e-01
0.000000e+00
1.000000e+00
5.737331e-01
5.743161e-01
5.750735e-01
5.758342e-01
5.765547e-01
5.771644e-01
5.775822e-01
5.777883e-01
5.777359e-01
5.773649e-01
5.767258e-01
5.759611e-01
5.751538e-01
5.743866e-01
5.734715e-01
0.000000e+00
1.000000e+00
5.738634e-01
5.745784e-01
5.754834e-01
5.763872e-01
5.772348e-01
5.779563e-01
5.784895e-01
5.787761e-01
5.786604e-01
5.782818e-01
5.775100e-01
5.765711e-01
5.755893e-01
5.746577e-01
5.735778e-01
0.000000e+00
1.000000e+00
5.739736e-01
5.748069e-01
5.758352e-01
5.768458e-01
5.777946e-01
5.786376e-01
5.793035e-01
5.796277e-01
5.794323e-01
5.790256e-01
5.781859e-01
5.770970e-01
5.759584e-01
5.748841e-01
5.736654e-01
0.000000e+00
1.000000e+00
5.740564e-01
5.749835e-01
5.761065e-01
5.771935e-01
5.782371e-01
5.791935e-01
5.799303e-01
5.802525e-01
5.800471e-01
5.795534e-01
5.786872e-01
5.775104e-01
5.762445e-01
5.750506e-01
5.737277e-01
0.000000e+00
1.000000e+00
5.741039e-01
5.750975e-01
5.762741e-01
5.774181e-01
5.785466e-01
5.795690e-01
5.803238e-01
5.806521e-01
5.804589e-01
5.798796e-01
5.789718e-01
5.777755e-01
5.764415e-01
5.751539e-01
5.737697e-01
0.000000e+00
1.000000e+00
5.741246e-01
5.751398e-01
5.763432e-01
5.775299e-01
5.787011e-01
5.797357e-01
5.804870e-01
5.808224e-01
5.806502e-01
5.800282e-01
5.790605e-01
5.778603e-01
5.765287e-01
5.751973e-01
5.738109e-01
0.000000e+00
1.000000e+00
5.741119e-01
5.751220e-01
5.763283e-01
5.775206e-01
5.786822e-01
5.796968e-01
5.804355e-01
5.807707e-01
5.806140e-01
5.799931e-01
5.790053e-01
5.778036e-01
5.764990e-01
5.751870e-01
5.738415e-01
0.000000e+00
1.000000e+00
5.740689e-01
5.750576e-01
5.762271e-01
5.773726e-01
5.784884e-01
5.794697e-01
5.801896e-01
5.805189e-01
5.803728e-01
5.797711e-01
5.788163e-01
5.776475e-01
5.763743e-01
5.751205e-01
5.738333e-01
0.000000e+00
1.000000e+00
5.739983e-01
5.749308e-01
5.760142e-01
5.770870e-01
5.781398e-01
5.790807e-01
5.797777e-01
5.801034e-01
5.799797e-01
5.794412e-01
5.785629e-01
5.774382e-01
5.761942e-01
5.749966e-01
5.737604e-01
0.000000e+00
1.000000e+00
5.739401e-01
5.747729e-01
5.757400e-01
5.767254e-01
5.777051e-01
5.785894e-01
5.792511e-01
5.795616e-01
5.794424e-01
5.789908e-01
5.782441e-01
5.772422e-01
5.760999e-01
5.749103e-01
5.737317e-01
0.000000e+00
1.000000e+00
5.728268e-01
5.724691e-01
5.721785e-01
5.718729e-01
5.715831e-01
5.713397e-01
5.711758e-01
5.711179e-01
5.711759e-01
5.713415e-01
5.715852e-01
5.718745e-01
5.721792e-01
5.724975e-01
5.725728e-01
0.000000e+00
1.000000e+00
5.729480e-01
5.726266e-01
5.724383e-01
5.722284e-01
5.720294e-01
5.718623e-01
5.717498e-01
5.717102e-01
5.717505e-01
5.718639e-01
5.720312e-01
5.722308e-01
5.724391e-01
5.726606e-01
5.727273e-01
0.000000e+00
1.000000e+00
5.730977e-01
5.728243e-01
5.727640e-01
5.726744e-01
5.725895e-01
5.725182e-01
5.724705e-01
5.724539e-01
5.724717e-01
5.725197e-01
5.725897e-01
5.726769e-01
5.727657e-01
5.728707e-01
5.727801e-01
0.000000e+00
1.000000e+00
5.731983e-01
5.730755e-01
5.731543e-01
5.732082e-01
5.732593e-01
5.733025e-01
5.733320e-01
5.733430e-01
5.733330e-01
5.733032e-01
5.732589e-01
5.732089e-01
5.731553e-01
5.731334e-01
5.728049e-01
0.000000e+00
1.000000e+00
5.732687e-01
5.733658e-01
5.735953e-01
5.738138e-01
5.740207e-01
5.741933e-01
5.743080e-01
5.743484e-01
5.743041e-01
5.741844e-01
5.740164e-01
5.738167e-01
5.736001e-01
5.734332e-01
5.729890e-01
0.000000e+00
1.000000e+00
5.734217e-01
5.736785e-01
5.740705e-01
5.744645e-01
5.748397e-01
5.751546e-01
5.753660e-01
5.754431e-01
5.753573e-01
5.751504e-01
5.748542e-01
5.744898e-01
5.740920e-01
5.737323e-01
5.731241e-01
0.000000e+00
1.000000e+00
5.735716e-01
5.739841e-01
5.745558e-01
5.751267e-01
5.756710e-01
5.761341e-01
5.764532e-01
5.765806e-01
5.764621e-01
5.761861e-01
5.757462e-01
5.751924e-01
5.745981e-01
5.740423e-01
5.733071e-01
0.000000e+00
1.000000e+00
5.737091e-01
5.742798e-01
5.750167e-01
5.757572e-01
5.764580e-01
5.770511e-01
5.774626e-01
5.776513e-01
5.775937e-01
5.772328e-01
5.766155e-01
5.758740e-01
5.750903e-01
5.743520e-01
5.734316e-01
0.000000e+00
1.000000e+00
5.738441e-01
5.745479e-01
5.754337e-01
5.763212e-01
5.771541e-01
5.778607e-01
5.783734e-01
5.786417e-01
5.785551e-01
5.781711e-01
5.774147e-01
5.764974e-01
5.755366e-01
5.746294e-01
5.735369e-01
0.000000e+00
1.000000e+00
5.739574e-01
5.747766e-01
5.757870e-01
5.767837e-01
5.777194e-01
5.785432e-01
5.791876e-01
5.795144e-01
5.793265e-01
5.789258e-01
5.780931e-01
5.770250e-01
5.759084e-01
5.748569e-01
5.736100e-01
0.000000e+00
1.000000e+00
5.740353e-01
5.749536e-01
5.760541e-01
5.771307e-01
5.781547e-01
5.790824e-01
5.798025e-01
5.801295e-01
5.799358e-01
5.794551e-01
5.785864e-01
5.774235e-01
5.761860e-01
5.750205e-01
5.736847e-01
0.000000e+00
1.000000e+00
5.740816e-01
5.750624e-01
5.762174e-01
5.773473e-01
5.784397e-01
5.794296e-01
5.801733e-01
5.805014e-01
5.803198e-01
5.797715e-01
5.788658e-01
5.776667e-01
5.763607e-01
5.751203e-01
5.737314e-01
0.000000e+00
1.000000e+00
5.740977e-01
5.750963e-01
5.762712e-01
5.774256e-01
5.785510e-01
5.795592e-01
5.803020e-01
5.806304e-01
5.804546e-01
5.798752e-01
5.789427e-01
5.777417e-01
5.764213e-01
5.751546e-01
5.737867e-01
0.000000e+00
1.000000e+00
5.740761e-01
5.750707e-01
5.762267e-01
5.773641e-01
5.784806e-01
5.794761e-01
5.802057e-01
5.805295e-01
5.803480e-01
5.797651e-01
5.788501e-01
5.776752e-01
5.763752e-01
5.751254e-01
5.738195e-01
0.000000e+00
1.000000e+00
5.740286e-01
5.749880e-01
5.760960e-01
5.771814e-01
5.782504e-01
5.792070e-01
5.799102e-01
5.802255e-01
5.800535e-01
5.794904e-01
5.786200e-01
5.774883e-01
5.762331e-01
5.750428e-01
5.738013e-01
0.000000e+00
1.000000e+00
5.739586e-01
5.748374e-01
5.758679e-01
5.768769e-01
5.778725e-01
5.787732e-01
5.794438e-01