<?xml version="1.0"?>
<VTKFile type="StructuredGrid" version="0.1">
  <StructuredGrid WholeExtent="0 16 0 16 0 16">
    <Piece Extent="0 16 0 16 0 16">
      <PointData Scalars="temperature" Vectors="velocity">
        <DataArray type="Float32" Name="temperature" format="ascii">
1.000000e+00
5.734742e-01
5.736682e-01
5.740410e-01
5.744222e-01
5.747843e-01
5.750895e-01
5.752955e-01
5.753674e-01
5.752909e-01
5.750784e-01
5.747757e-01
5.745327e-01
5.742247e-01
5.738468e-01
5.728205e-01
0.000000e+00
1.000000e+00
5.726311e-01
5.721462e-01
5.716427e-01
5.711385e-01
5.706619e-01
5.702633e-01
5.699963e-01
5.699025e-01
5.699980e-01
5.702657e-01
5.706889e-01
5.713514e-01
5.718479e-01
5.723330e-01
5.721000e-01
0.000000e+00
1.000000e+00
5.716706e-01
5.703401e-01
5.688049e-01
5.672540e-01
5.657857e-01
5.645554e-01
5.637302e-01
5.634428e-01
5.637457e-01
5.645868e-01
5.658708e-01
5.675303e-01
5.690529e-01
5.705463e-01
5.712394e-01
0.000000e+00
1.000000e+00
5.706050e-01
5.682858e-01
5.655833e-01
5.628440e-01
5.602498e-01
5.580755e-01
5.566179e-01
5.561128e-01
5.566526e-01
5.581436e-01
5.603910e-01
5.631377e-01
5.658507e-01
5.684918e-01
5.702582e-01
0.000000e+00
1.000000e+00
5.694827e-01
5.660453e-01
5.620734e-01
5.580389e-01
5.542177e-01
5.510146e-01
5.488683e-01
5.481274e-01
5.489250e-01
5.511212e-01
5.544071e-01
5.583500e-01
5.623467e-01
5.662481e-01
5.691945e-01
0.000000e+00
1.000000e+00
5.683346e-01
5.637065e-01
5.584099e-01
5.530222e-01
5.479198e-01
5.436432e-01
5.407788e-01
5.397929e-01
5.408591e-01
5.437910e-01
5.481551e-01
5.533614e-01
5.586841e-01
5.639061e-01
5.680760e-01
0.000000e+00
1.000000e+00
5.671834e-01
5.613744e-01
5.547588e-01
5.480223e-01
5.416431e-01
5.362978e-01
5.327196e-01
5.314896e-01
5.328239e-01
5.364886e-01
5.419241e-01
5.483979e-01
5.550351e-01
5.615729e-01
5.669635e-01
0.000000e+00
1.000000e+00
5.660876e-01
5.591646e-01
5.513060e-01
5.432946e-01
5.357093e-01
5.293557e-01
5.251042e-01
5.236444e-01
5.252325e-01
5.295891e-01
5.360341e-01
5.437183e-01
5.515863e-01
5.593625e-01
5.659091e-01
0.000000e+00
1.000000e+00
5.651309e-01
5.571984e-01
5.482406e-01
5.390981e-01
5.304444e-01
5.231980e-01
5.183505e-01
5.166873e-01
5.184992e-01
5.234694e-01
5.308081e-01
5.395734e-01
5.485411e-01
5.573945e-01
5.650046e-01
0.000000e+00
1.000000e+00
5.643861e-01
5.555892e-01
5.457341e-01
5.356677e-01
5.261426e-01
5.181684e-01
5.128346e-01
5.110041e-01
5.129973e-01
5.184688e-01
5.265354e-01
5.361779e-01
5.460820e-01
5.557677e-01
5.643097e-01
0.000000e+00
1.000000e+00
5.638787e-01
5.544226e-01
5.439195e-01
5.331866e-01
5.230334e-01
5.145338e-01
5.088477e-01
5.068948e-01
5.090180e-01
5.148519e-01
5.234529e-01
5.336814e-01
5.443454e-01
5.545966e-01
5.636995e-01
0.000000e+00
1.000000e+00
5.636271e-01
5.537516e-01
5.428803e-01
5.317688e-01
5.212576e-01
5.124573e-01
5.065684e-01
5.045437e-01
5.067397e-01
5.127805e-01
5.217019e-01
5.321933e-01
5.433530e-01
5.539974e-01
5.629564e-01
0.000000e+00
1.000000e+00
5.636391e-01
5.536014e-01
5.426450e-01
5.314489e-01
5.208566e-01
5.119871e-01
5.060503e-01
5.040072e-01
5.062180e-01
5.123051e-01
5.213104e-01
5.318021e-01
5.431352e-01
5.539672e-01
5.623426e-01
0.000000e+00
1.000000e+00
5.638450e-01
5.539488e-01
5.431834e-01
5.321852e-01
5.217790e-01
5.130642e-01
5.072298e-01
5.052203e-01
5.073900e-01
5.133677e-01
5.222038e-01
5.325361e-01
5.436879e-01
5.546122e-01
5.613894e-01
0.000000e+00
1.000000e+00
5.641891e-01
5.547397e-01
5.444193e-01
5.338762e-01
5.238990e-01
5.155425e-01
5.099473e-01
5.080190e-01
5.100974e-01
5.158254e-01
5.242757e-01
5.342678e-01
5.448750e-01
5.555677e-01
5.615657e-01
0.000000e+00
1.000000e+00
5.646930e-01
5.559081e-01
5.462470e-01
5.363781e-01
5.270379e-01
5.192143e-01
5.139755e-01
5.121695e-01
5.141142e-01
5.194731e-01
5.273685e-01
5.367933e-01
5.466768e-01
5.569063e-01
5.625520e-01
0.000000e+00
1.000000e+00
5.652062e-01
5.573858e-01
5.485413e-01
5.395192e-01
5.309807e-01
5.238295e-01
5.190428e-01
5.173955e-01
5.191767e-01
5.240762e-01
5.312926e-01
5.399480e-01
5.489353e-01
5.587406e-01
5.608633e-01
0.000000e+00
1.000000e+00
5.726989e-01
5.722184e-01
5.717644e-01
5.713047e-01
5.708694e-01
5.705049e-01
5.702599e-01
5.701732e-01
5.702592e-01
5.705044e-01
5.708916e-01
5.714579e-01
5.719158e-01
5.723841e-01
5.721006e-01
0.000000e+00
1.000000e+00
5.718629e-01
5.706317e-01
5.692709e-01
5.678912e-01
5.665844e-01
5.654887e-01
5.647529e-01
5.644958e-01
5.647644e-01
5.655144e-01
5.666598e-01
5.681046e-01
5.694598e-01
5.708072e-01
5.713598e-01
0.000000e+00
1.000000e+00
5.708916e-01
5.687579e-01
5.663303e-01
5.638657e-01
5.615313e-01
5.595740e-01
5.582608e-01
5.578044e-01
5.582884e-01
5.596308e-01
5.616546e-01
5.641065e-01
5.665655e-01
5.689547e-01
5.704721e-01
0.000000e+00
1.000000e+00
5.698033e-01
5.666348e-01
5.630033e-01
5.593113e-01
5.558143e-01
5.528823e-01
5.509165e-01
5.502362e-01
5.509638e-01
5.529740e-01
5.559811e-01
5.595722e-01
5.632476e-01
5.668302e-01
5.694398e-01
0.000000e+00
1.000000e+00
5.686541e-01
5.643297e-01
5.593943e-01
5.543704e-01
5.496122e-01
5.456236e-01
5.429508e-01
5.420288e-01
5.430204e-01
5.457538e-01
5.498237e-01
5.546602e-01
5.596501e-01
5.645341e-01
5.683343e-01
0.000000e+00
1.000000e+00
5.674692e-01
5.619372e-01
5.556507e-01
5.492447e-01
5.431783e-01
5.380947e-01
5.346903e-01
5.335181e-01
5.347835e-01
5.382670e-01
5.434376e-01
5.495733e-01
5.559149e-01
5.621479e-01
5.671894e-01
0.000000e+00
1.000000e+00
5.663054e-01
5.595721e-01
5.519550e-01
5.441847e-01
5.368278e-01
5.306650e-01
5.265402e-01
5.251217e-01
5.266579e-01
5.308808e-01
5.371378e-01
5.445594e-01
5.522284e-01
5.597925e-01
5.660562e-01
0.000000e+00
1.000000e+00
5.652463e-01
5.573648e-01
5.485113e-01
5.394698e-01
5.309122e-01
5.237462e-01
5.189515e-01
5.173041e-01
5.190916e-01
5.240032e-01
5.312713e-01
5.398990e-01
5.487966e-01
5.575921e-01
5.649942e-01
0.000000e+00
1.000000e+00
5.643483e-01
5.554467e-01
5.455231e-01
5.353800e-01
5.257832e-01
5.177490e-01
5.123743e-01
5.105279e-01
5.125320e-01
5.180411e-01
5.261853e-01
5.358569e-01
5.458346e-01
5.556834e-01
5.640755e-01
0.000000e+00
1.000000e+00
5.636552e-01
5.539343e-01
5.431705e-01
5.321630e-01
5.217515e-01
5.130359e-01
5.072046e-01
5.052002e-01
5.073739e-01
5.133527e-01
5.221850e-01
5.326633e-01
5.435291e-01
5.541718e-01
5.633665e-01
0.000000e+00
1.000000e+00
5.632232e-01
5.529188e-01
5.415911e-01
5.300061e-01
5.190493e-01
5.098764e-01
5.037378e-01
5.016260e-01
5.039126e-01
5.102068e-01
5.195034e-01
5.304786e-01
5.420168e-01
5.531575e-01
5.630071e-01
0.000000e+00
1.000000e+00
5.630586e-01
5.524521e-01
5.408634e-01
5.290130e-01
5.178044e-01
5.084193e-01
5.021373e-01
4.999749e-01
5.023131e-01
5.087528e-01
5.182703e-01
5.294270e-01
5.413102e-01
5.527206e-01
5.628432e-01
0.000000e+00
1.000000e+00
5.630733e-01
5.525444e-01
5.409990e-01
5.291969e-01
5.180328e-01
5.086843e-01
5.024263e-01
5.002714e-01
5.025992e-01
5.090118e-01
5.184950e-01
5.295704e-01
5.414459e-01
5.527934e-01
5.630439e-01
0.000000e+00
1.000000e+00
5.632852e-01
5.531630e-01
5.419471e-01
5.304900e-01
5.196512e-01
5.105750e-01
5.044993e-01
5.024067e-01
5.046656e-01
5.108887e-01
5.200810e-01
5.308863e-01
5.423901e-01
5.534492e-01
5.627368e-01
0.000000e+00
1.000000e+00
5.637148e-01
5.542384e-01
5.436090e-01
5.327622e-01
5.224984e-01
5.139032e-01
5.081495e-01
5.061678e-01
5.083064e-01
5.141961e-01
5.228840e-01
5.331936e-01
5.439714e-01
5.545754e-01
5.629835e-01
0.000000e+00
1.000000e+00
5.643560e-01
5.556861e-01
5.458584e-01
5.358421e-01
5.263616e-01
5.184211e-01
5.131053e-01
5.112744e-01
5.132498e-01
5.186882e-01
5.267047e-01
5.362740e-01
5.462160e-01
5.561957e-01
5.638450e-01
0.000000e+00
1.000000e+00
5.652281e-01
5.574146e-01
5.485619e-01
5.395444e-01
5.310081e-01
5.238571e-01
5.190688e-01
5.174188e-01
5.191971e-01
5.240931e-01
5.313133e-01
5.399718e-01
5.489394e-01
5.584754e-01
5.616865e-01
0.000000e+00
1.000000e+00
5.720565e-01
5.709622e-01
5.697956e-01
5.686089e-01
5.674844e-01
5.665408e-01
5.659063e-01
5.656835e-01
5.659128e-01
5.665578e-01
5.675398e-01
5.687590e-01
5.699349e-01
5.711149e-01
5.714828e-01
0.000000e+00
1.000000e+00
5.712170e-01
5.693274e-01
5.672290e-01
5.650953e-01
5.630737e-01
5.613777e-01
5.602387e-01
5.598414e-01
5.602589e-01
5.614223e-01
5.631730e-01
5.652707e-01
5.673947e-01
5.694810e-01
5.707363e-01
0.000000e+00
1.000000e+00
5.702370e-01
5.674021e-01
5.642098e-01
5.609619e-01
5.578851e-01
5.553046e-01
5.535731e-01
5.529718e-01
5.536097e-01
5.553794e-01
5.580249e-01
5.611665e-01
5.644115e-01
5.675751e-01
5.698434e-01
0.000000e+00
1.000000e+00
5.691374e-01
5.652272e-01
5.608031e-01
5.562982e-01
5.520309e-01
5.484529e-01
5.460537e-01
5.452232e-01
5.461097e-01
5.485620e-01
5.522123e-01
5.565320e-01
5.610199e-01
5.654086e-01
5.687958e-01
0.000000e+00
1.000000e+00
5.679691e-01
5.628746e-01
5.571218e-01
5.512581e-01
5.457047e-01
5.410499e-01
5.379307e-01
5.368537e-01
5.380088e-01
5.411983e-01
5.459345e-01
5.515288e-01
5.573538e-01
5.630710e-01
5.676805e-01
0.000000e+00
1.000000e+00
5.667666e-01
5.604455e-01
5.533250e-01
5.460602e-01
5.391815e-01
5.334177e-01
5.295578e-01
5.282272e-01
5.296598e-01
5.336090e-01
5.394662e-01
5.463768e-01
5.535708e-01
5.606550e-01
5.665260e-01
0.000000e+00
1.000000e+00
5.656080e-01
5.580661e-01
5.496113e-01
5.409765e-01
5.328029e-01
5.259568e-01
5.213741e-01
5.197962e-01
5.214998e-01
5.261913e-01
5.331466e-01
5.413455e-01
5.498720e-01
5.582916e-01
5.653956e-01
0.000000e+00
1.000000e+00
5.645771e-01
5.558801e-01
5.462011e-01
5.363089e-01
5.269487e-01
5.191112e-01
5.138659e-01
5.120609e-01
5.140122e-01
5.193852e-01
5.273485e-01
5.367310e-01
5.464793e-01
5.561167e-01
5.643507e-01
0.000000e+00
1.000000e+00
5.637248e-01
5.540255e-01
5.433114e-01
5.323565e-01
5.219945e-01
5.133193e-01
5.075131e-01
5.055147e-01
5.076748e-01
5.136246e-01
5.224393e-01
5.328172e-01
5.436165e-01
5.542709e-01
5.634726e-01
0.000000e+00
1.000000e+00
5.631144e-01
5.526228e-01
5.411309e-01
5.293790e-01
5.182647e-01
5.089587e-01
5.027292e-01
5.005839e-01
5.029007e-01
5.092853e-01
5.187334e-01
5.298690e-01
5.414659e-01
5.528742e-01
5.628066e-01
0.000000e+00
1.000000e+00
5.628034e-01
5.517677e-01
5.397990e-01
5.275636e-01
5.159908e-01
5.062989e-01
4.998098e-01
4.975739e-01
4.999863e-01
5.066364e-01
5.164624e-01
5.280629e-01
5.401915e-01
5.520135e-01
5.624093e-01
0.000000e+00
1.000000e+00
5.627234e-01
5.515023e-01
5.393862e-01
5.270006e-01
5.152843e-01
5.054713e-01
4.989004e-01
4.966358e-01
4.990777e-01
5.058103e-01
5.157497e-01
5.274596e-01
5.398363e-01
5.517928e-01
5.622663e-01
0.000000e+00
1.000000e+00
5.627551e-01
5.518225e-01
5.398867e-01
5.276808e-01
5.161347e-01
5.064648e-01
4.999899e-01
4.977584e-01
5.001642e-01
5.067963e-01
5.165846e-01
5.281097e-01
5.403445e-01
5.521107e-01
5.625388e-01
0.000000e+00
1.000000e+00
5.630450e-01
5.526951e-01
5.412297e-01
5.295112e-01
5.184260e-01
5.091432e-01
5.029283e-01
5.007868e-01
5.030960e-01
5.094592e-01
5.188395e-01
5.299681e-01
5.416731e-01
5.529699e-01
5.626189e-01
0.000000e+00
1.000000e+00
5.636085e-01
5.540310e-01
5.432939e-01
5.323327e-01
5.219611e-01
5.132758e-01
5.074616e-01
5.054586e-01
5.076189e-01
5.135690e-01
5.223344e-01
5.328094e-01
5.436428e-01
5.542970e-01
5.631599e-01
0.000000e+00
1.000000e+00
5.643889e-01
5.557310e-01
5.459340e-01
5.359458e-01
5.264919e-01
5.185738e-01
5.132735e-01
5.114479e-01
5.134175e-01
5.188391e-01
5.268285e-01
5.363978e-01
5.462659e-01
5.561139e-01
5.641319e-01
0.000000e+00
1.000000e+00
5.653692e-01
5.576923e-01
5.489970e-01
5.401404e-01
5.317561e-01
5.247318e-01
5.200287e-01
5.184091e-01
5.201569e-01
5.249658e-01
5.320586e-01
5.405680e-01
5.493445e-01
5.584877e-01
5.626232e-01
0.000000e+00
1.000000e+00
5.715632e-01
5.699821e-01
5.682613e-01
5.665080e-01
5.648464e-01
5.634516e-01
5.625139e-01
5.621856e-01
5.625268e-01
5.634829e-01
5.649181e-01
5.666290e-01
5.683757e-01
5.700939e-01
5.709615e-01
0.000000e+00
1.000000e+00
5.707206e-01
5.683218e-01
5.656561e-01
5.629413e-01
5.603688e-01
5.582104e-01
5.567608e-01
5.562556e-01
5.567868e-01
5.582668e-01
5.604741e-01
5.630843e-01
5.657886e-01
5.684567e-01
5.702760e-01
0.000000e+00
1.000000e+00
5.697430e-01
5.663696e-01
5.625950e-01
5.587503e-01
5.551079e-01
5.520527e-01
5.500027e-01
5.492906e-01
5.500447e-01
5.521383e-01
5.552507e-01
5.589265e-01
5.627663e-01
5.665294e-01
5.693778e-01
0.000000e+00
1.000000e+00
5.686336e-01
5.641679e-01
5.591467e-01
5.540295e-01
5.491822e-01
5.451180e-01
5.423928e-01
5.414489e-01
5.424541e-01
5.452383e-01
5.493701e-01
5.542389e-01
5.593366e-01
5.643430e-01
5.682993e-01
0.000000e+00
1.000000e+00
5.674543e-01
5.617917e-01
5.554308e-01
5.489423e-01
5.427979e-01
5.376478e-01
5.341968e-01
5.330042e-01
5.342804e-01
5.378084e-01
5.430409e-01
5.491930e-01
5.556423e-01
5.619865e-01
5.671643e-01
0.000000e+00
1.000000e+00
5.662596e-01
5.593497e-01
5.516175e-01
5.437225e-01
5.362485e-01
5.299862e-01
5.257922e-01
5.243451e-01
5.258995e-01
5.301899e-01
5.365551e-01
5.440200e-01
5.518480e-01
5.595648e-01
5.660002e-01
0.000000e+00
1.000000e+00
5.651269e-01
5.569779e-01
5.479187e-01
5.386607e-01
5.298994e-01
5.225607e-01
5.176472e-01
5.159536e-01
5.177771e-01
5.228064e-01
5.302724e-01
5.390069e-01
5.481702e-01
5.572146e-01
5.648773e-01
0.000000e+00
1.000000e+00
5.641260e-01
5.548283e-01
5.445686e-01
5.340787e-01
5.241543e-01
5.158432e-01
5.102790e-01
5.083614e-01
5.104276e-01
5.161256e-01
5.245857e-01
5.344708e-01
5.448371e-01
5.550836e-01
5.638606e-01
0.000000e+00
1.000000e+00
5.633315e-01
5.530484e-01
5.417969e-01
5.302917e-01
5.194090e-01
5.102950e-01
5.041923e-01
5.020883e-01
5.043543e-01
5.106047e-01
5.198771e-01
5.307385e-01
5.420840e-01
5.533154e-01
5.630160e-01
0.000000e+00
1.000000e+00
5.628259e-01
5.517709e-01
5.398006e-01
5.275695e-01
5.159984e-01
5.063057e-01
4.998139e-01
4.975750e-01
4.999847e-01
5.066327e-01
5.164751e-01
5.280788e-01
5.401172e-01
5.520427e-01
5.624024e-01
0.000000e+00
1.000000e+00
5.626966e-01
5.510926e-01
5.387187e-01
5.260950e-01
5.141490e-01
5.041406e-01
4.974367e-01
4.951241e-01
4.976119e-01
5.044759e-01
5.146122e-01
5.266414e-01
5.390954e-01
5.513281e-01
5.620836e-01
0.000000e+00
1.000000e+00
5.626212e-01
5.510130e-01
5.386068e-01
5.259411e-01
5.139548e-01
5.039124e-01
4.971858e-01
4.948654e-01
4.973615e-01
5.042471e-01
5.144009e-01
5.264630e-01
5.390614e-01
5.512527e-01
5.620307e-01
0.000000e+00
1.000000e+00
5.626240e-01
5.515360e-01
5.394430e-01
5.270781e-01
5.153793e-01
5.055790e-01
4.990154e-01
4.967516e-01
4.991875e-01
5.059048e-01
5.158078e-01
5.275655e-01
5.398980e-01
5.517826e-01
5.623690e-01
0.000000e+00
1.000000e+00
5.630320e-01
5.526362e-01
5.411397e-01
5.293904e-01
5.182753e-01
5.089664e-01
5.027330e-01
5.005834e-01
5.028973e-01
5.092749e-01
5.186700e-01
5.298823e-01
5.415615e-01
5.528777e-01
5.627268e-01
0.000000e+00
1.000000e+00
5.637108e-01
5.541926e-01
5.435535e-01
5.326898e-01
5.224108e-01
5.138026e-01
5.080392e-01
5.060528e-01
5.081926e-01
5.140874e-01
5.227691e-01
5.331804e-01
5.438941e-01
5.544148e-01
5.634304e-01
0.000000e+00
1.000000e+00
5.645782e-01
5.561035e-01
5.465221e-01
5.367511e-01
5.275044e-01
5.197612e-01
5.145774e-01
5.127918e-01
5.147183e-01
5.200195e-01
5.278326e-01
5.372015e-01
5.468393e-01
5.563871e-01
5.645481e-01
0.000000e+00
1.000000e+00
5.656580e-01
5.582568e-01
5.498818e-01
5.413505e-01
5.332746e-01
5.265101e-01
5.219823e-01
5.204229e-01
5.221075e-01
5.267402e-01
5.335721e-01
5.417646e-01
5.502036e-01
5.588029e-01
5.637895e-01
0.000000e+00
1.000000e+00
5.712656e-01
5.693572e-01
5.672848e-01
5.651707e-01
5.631671e-01
5.614851e-01
5.603546e-01
5.599591e-01
5.603711e-01
5.615240e-01
5.632405e-01
5.652651e-01
5.673777e-01
5.693556e-01
5.706857e-01
0.000000e+00
1.000000e+00
5.704301e-01
5.677030e-01
5.646879e-01
5.616152e-01
5.587035e-01
5.562602e-01
5.546193e-01
5.540475e-01
5.546481e-01
5.563220e-01
5.588063e-01
5.617319e-01
5.647964e-01
5.677926e-01
5.698062e-01
0.000000e+00
1.000000e+00
5.694413e-01
5.657553e-01
5.616346e-01
5.574347e-01
5.534559e-01
5.501186e-01
5.478792e-01
5.471010e-01
5.479234e-01
5.502090e-01
5.535974e-01
5.575870e-01
5.617836e-01
5.659007e-01
5.689990e-01
0.000000e+00
1.000000e+00
5.683286e-01
5.635573e-01
5.581957e-01
5.527268e-01
5.475468e-01
5.432041e-01
5.402919e-01
5.392827e-01
5.403553e-01
5.433296e-01
5.477382e-01
5.529135e-01
5.583696e-01
5.637304e-01
5.679718e-01
0.000000e+00
1.000000e+00
5.671641e-01
5.611882e-01
5.544956e-01
5.476618e-01
5.411907e-01
5.357681e-01
5.321341e-01
5.308772e-01
5.322194e-01
5.359343e-01
5.414439e-01
5.478875e-01
5.546960e-01
5.613890e-01
5.668618e-01
0.000000e+00
1.000000e+00
5.660043e-01
5.587641e-01
5.507124e-01
5.424841e-01
5.346951e-01
5.281706e-01
5.237999e-01
5.222904e-01
5.239081e-01
5.283790e-01
5.350180e-01
5.427494e-01
5.509375e-01
5.589928e-01
5.657191e-01
0.000000e+00
1.000000e+00
5.649168e-01
5.564279e-01
5.470680e-01
5.374986e-01
5.284429e-01
5.208591e-01
5.157793e-01
5.140263e-01
5.159086e-01
5.211070e-01
5.288342e-01
5.378096e-01
5.473107e-01
5.566807e-01
5.646080e-01
0.000000e+00
1.000000e+00
5.639737e-01
5.543361e-01
5.438073e-01
5.330417e-01
5.228564e-01
5.143264e-01
5.086118e-01
5.066401e-01
5.087583e-01
5.146065e-01
5.233003e-01
5.334149e-01
5.440668e-01
5.546089e-01
5.636171e-01
0.000000e+00
1.000000e+00
5.632481e-01
5.526475e-01
5.411699e-01
5.294421e-01
5.183457e-01
5.090491e-01
5.028205e-01
5.006710e-01
5.029793e-01
5.093523e-01
5.188153e-01
5.298871e-01
5.414390e-01
5.529296e-01
5.628146e-01
0.000000e+00
1.000000e+00
5.629185e-01
5.515194e-01
5.393617e-01
5.269742e-01
5.152490e-01
5.054235e-01
4.988410e-01
4.965687e-01
4.990076e-01
5.057414e-01
5.157182e-01
5.274936e-01
5.396462e-01
5.517600e-01
5.622646e-01
0.000000e+00
1.000000e+00
5.631456e-01
5.510324e-01
5.385122e-01
5.258112e-01
5.137869e-01
5.037110e-01
4.969606e-01
4.946301e-01
4.971310e-01
5.040345e-01
5.142373e-01
5.263751e-01
5.388433e-01
5.511871e-01
5.620020e-01
0.000000e+00
1.000000e+00
5.628791e-01
5.510867e-01
5.386588e-01
5.260117e-01
5.140386e-01
5.040055e-01
4.972844e-01
4.949642e-01
4.974545e-01
5.043266e-01
5.144692e-01
5.265674e-01
5.390419e-01
5.512786e-01
5.620421e-01
0.000000e+00
1.000000e+00
5.627670e-01
5.517486e-01
5.397714e-01
5.275308e-01
5.159453e-01
5.062380e-01
4.997360e-01
4.974913e-01
4.999010e-01
5.065482e-01
5.163573e-01
5.280505e-01
5.401423e-01
5.519917e-01
5.624275e-01
0.000000e+00
1.000000e+00
5.632599e-01
5.530187e-01
5.417489e-01
5.302295e-01
5.193307e-01
5.102009e-01
5.040851e-01
5.019739e-01
5.042403e-01
5.104913e-01
5.197099e-01
5.307319e-01
5.421069e-01
5.532654e-01
5.630069e-01
0.000000e+00
1.000000e+00
5.640111e-01
5.547489e-01
5.444341e-01
5.338967e-01
5.239290e-01
5.155828e-01
5.099932e-01
5.080648e-01
5.101378e-01
5.158515e-01
5.242760e-01
5.343820e-01
5.447395e-01
5.549552e-01
5.639546e-01
0.000000e+00
1.000000e+00
5.649475e-01
5.568221e-01
5.476514e-01
5.382955e-01
5.294431e-01
5.220316e-01
5.170717e-01
5.153630e-01
5.172062e-01
5.222790e-01
5.297606e-01
5.387276e-01
5.479395e-01
5.570411e-01
5.651978e-01
0.000000e+00
1.000000e+00
5.660913e-01
5.591121e-01
5.512216e-01
5.431824e-01
5.355726e-01
5.292001e-01
5.249368e-01
5.234700e-01
5.250568e-01
5.294225e-01
5.358600e-01
5.435716e-01
5.515169e-01
5.594885e-01
5.649061e-01
0.000000e+00
1.000000e+00
5.711829e-01
5.691570e-01
5.669715e-01
5.647416e-01
5.626282e-01
5.608542e-01
5.596617e-01
5.592448e-01
5.596791e-01
5.608949e-01
5.626960e-01
5.648139e-01
5.670480e-01
5.689825e-01
5.715309e-01
0.000000e+00
1.000000e+00
5.703442e-01
5.675442e-01
5.644403e-01
5.612760e-01
5.582773e-01
5.557613e-01
5.540716e-01
5.534827e-01
5.541007e-01
5.558240e-01
5.583744e-01
5.613708e-01
5.645338e-01
5.675043e-01
5.697335e-01
0.000000e+00
1.000000e+00
5.693683e-01
5.656372e-01
5.614553e-01
5.571893e-01
5.531479e-01
5.497582e-01
5.474840e-01
5.466934e-01
5.475281e-01
5.498495e-01
5.532856e-01
5.573183e-01
5.615908e-01
5.657147e-01
5.688500e-01
0.000000e+00
1.000000e+00
5.683016e-01
5.634819e-01
5.580878e-01
5.525789e-01
5.473620e-01
5.429886e-01
5.400567e-01
5.390399e-01
5.401194e-01
5.431154e-01
5.475530e-01
5.527397e-01
5.582539e-01
5.636235e-01
5.678699e-01
0.000000e+00
1.000000e+00
5.671902e-01
5.611601e-01
5.544637e-01
5.476177e-01
5.411371e-01
5.357079e-01
5.320694e-01
5.308100e-01
5.321531e-01
5.358745e-01
5.413932e-01
5.478149e-01
5.546590e-01
5.613602e-01
5.668170e-01
0.000000e+00
1.000000e+00
5.660922e-01
5.587914e-01
5.507650e-01
5.425555e-01
5.347874e-01
5.282833e-01
5.239241e-01
5.224170e-01
5.240289e-01
5.284892e-01
5.351136e-01
5.427985e-01
5.509931e-01
5.590312e-01
5.657171e-01
0.000000e+00
1.000000e+00
5.650533e-01
5.565211e-01
5.472174e-01
5.377042e-01
5.287057e-01
5.211720e-01
5.161213e-01
5.143763e-01
5.162451e-01
5.214126e-01
5.290977e-01
5.379991e-01
5.474682e-01
5.567927e-01
5.646441e-01
0.000000e+00
1.000000e+00
5.641533e-01
5.545078e-01
5.440718e-01
5.334095e-01
5.233245e-01
5.148766e-01
5.092121e-01
5.072553e-01
5.093514e-01
5.151443e-01
5.237639e-01
5.337689e-01
5.443296e-01
5.547943e-01
5.636861e-01
0.000000e+00
1.000000e+00
5.635541e-01
5.529290e-01
5.415790e-01
5.300092e-01
5.190595e-01
5.098805e-01
5.037290e-01
5.016034e-01
5.038796e-01
5.101680e-01
5.195190e-01
5.304357e-01
5.418355e-01
5.531977e-01
5.629203e-01
0.000000e+00
1.000000e+00
5.635740e-01
5.519694e-01
5.399470e-01
5.277717e-01
5.162445e-01
5.065830e-01
5.001099e-01
4.978733e-01
5.002683e-01
5.068830e-01
5.167033e-01
5.282623e-01
5.401985e-01
5.521258e-01
5.623978e-01
0.000000e+00
1.000000e+00
5.642685e-01
5.516391e-01
5.392859e-01
5.268605e-01
5.150970e-01
5.052405e-01
4.986366e-01
4.963553e-01
4.987987e-01
5.055447e-01
5.155400e-01
5.273975e-01
5.395569e-01
5.516737e-01
5.621786e-01
0.000000e+00
1.000000e+00
5.637487e-01
5.517838e-01
5.396289e-01
5.273336e-01
5.156903e-01
5.059345e-01
4.993991e-01
4.971410e-01
4.995591e-01
5.062335e-01
5.161104e-01
5.278692e-01
5.399337e-01
5.518887e-01
5.622540e-01
0.000000e+00
1.000000e+00
5.633000e-01
5.525115e-01
5.409353e-01
5.291273e-01
5.179462e-01
5.085763e-01
5.022969e-01
5.001264e-01
5.024484e-01
5.088581e-01
5.183410e-01
5.296232e-01
5.412399e-01
5.527322e-01
5.626620e-01
0.000000e+00
1.000000e+00
5.637357e-01
5.538710e-01
5.430947e-01
5.320777e-01
5.216549e-01
5.129233e-01
5.070700e-01
5.050459e-01
5.072097e-01
5.131854e-01
5.220196e-01
5.325538e-01
5.434104e-01
5.541244e-01
5.632851e-01
0.000000e+00
1.000000e+00
5.644987e-01
5.557131e-01
5.459513e-01
5.359737e-01
5.265385e-01
5.186403e-01
5.133515e-01
5.115243e-01
5.134829e-01
5.188875e-01
5.268741e-01
5.364269e-01
5.462329e-01
5.559236e-01
5.642920e-01
0.000000e+00
1.000000e+00
5.654830e-01
5.578821e-01
5.493127e-01
5.405668e-01
5.322923e-01
5.253667e-01
5.207350e-01
5.191406e-01
5.208613e-01
5.255980e-01
5.325972e-01
5.409620e-01
5.495791e-01
5.580749e-01
5.656581e-01
0.000000e+00
1.000000e+00
5.666594e-01
5.602396e-01
5.529888e-01
5.455997e-01
5.386049e-01
5.327473e-01
5.288301e-01
5.274859e-01
5.289449e-01
5.329554e-01
5.388771e-01
5.459508e-01
5.532628e-01
5.605127e-01
5.659952e-01
0.000000e+00
1.000000e+00
5.713091e-01
5.694260e-01
5.673938e-01
5.653198e-01
5.633542e-01
5.617044e-01
5.605958e-01
5.602082e-01
5.606119e-01
5.617435e-01
5.634140e-01
5.653762e-01
5.674682e-01
5.692718e-01
5.737370e-01
0.000000e+00
1.000000e+00
5.705175e-01
5.678926e-01
5.649918e-01
5.620313e-01
5.592258e-01
5.568721e-01
5.552919e-01
5.547413e-01
5.553197e-01
5.569334e-01
5.593155e-01
5.621069e-01
5.650764e-01
5.677236e-01
5.711403e-01
0.000000e+00
1.000000e+00
5.696350e-01
5.660708e-01
5.621431e-01
5.581308e-01
5.543299e-01
5.511430e-01
5.490054e-01
5.482628e-01
5.490480e-01
5.512329e-01
5.544607e-01
5.582399e-01
5.622691e-01
5.660210e-01
5.697309e-01
0.000000e+00
1.000000e+00
5.686432e-01
5.640072e-01
5.589162e-01
5.537124e-01
5.487847e-01
5.446553e-01
5.418883e-01
5.409290e-01
5.419486e-01
5.447804e-01
5.489677e-01
5.538580e-01
5.590860e-01
5.640519e-01
5.684565e-01
0.000000e+00
1.000000e+00
5.675740e-01
5.617782e-01
5.554340e-01
5.489454e-01
5.428038e-01
5.376600e-01
5.342152e-01
5.330222e-01
5.342941e-01
5.378231e-01
5.430490e-01
5.491292e-01
5.556446e-01
5.619442e-01
5.670817e-01
0.000000e+00
1.000000e+00
5.665181e-01
5.595014e-01
5.518762e-01
5.440765e-01
5.366979e-01
5.305208e-01
5.263834e-01
5.249510e-01
5.264802e-01
5.307198e-01
5.370108e-01
5.443035e-01
5.521140e-01
5.597478e-01
5.660455e-01
0.000000e+00
1.000000e+00
5.655312e-01
5.573226e-01
5.484681e-01
5.394171e-01
5.308584e-01
5.236930e-01
5.188912e-01
5.172285e-01
5.190035e-01
5.239213e-01
5.312353e-01
5.396937e-01
5.487237e-01
5.576039e-01
5.650516e-01
0.000000e+00
1.000000e+00
5.646988e-01
5.554030e-01
5.454613e-01
5.353141e-01
5.257174e-01
5.176779e-01
5.122884e-01
5.104215e-01
5.124130e-01
5.179271e-01
5.261408e-01
5.356453e-01
5.457246e-01
5.556918e-01
5.641371e-01
0.000000e+00
1.000000e+00
5.641846e-01
5.539247e-01
5.431079e-01
5.321038e-01
5.216881e-01
5.129574e-01
5.071049e-01
5.050779e-01
5.072398e-01
5.132204e-01
5.221327e-01
5.324876e-01
5.433630e-01
5.541735e-01
5.634093e-01
0.000000e+00
1.000000e+00
5.642889e-01
5.530648e-01
5.416120e-01
5.300492e-01
5.191013e-01
5.099258e-01
5.037751e-01
5.016477e-01
5.039193e-01
5.101979e-01
5.195467e-01
5.304851e-01
5.418464e-01
5.531662e-01
5.630005e-01
0.000000e+00
1.000000e+00
5.651179e-01
5.528072e-01
5.410769e-01
5.293092e-01
5.181675e-01
5.088338e-01
5.025770e-01
5.004149e-01
5.027262e-01
5.091096e-01
5.186009e-01
5.297861e-01
5.413107e-01
5.527696e-01
5.628706e-01
0.000000e+00
1.000000e+00
5.648213e-01
5.530564e-01
5.415384e-01
5.299429e-01
5.189610e-01
5.097611e-01
5.035939e-01
5.014615e-01
5.037390e-01
5.100277e-01
5.193673e-01
5.304209e-01
5.417862e-01
5.530310e-01
5.629817e-01
0.000000e+00
1.000000e+00
5.641083e-01
5.538191e-01
5.429373e-01
5.318692e-01
5.213883e-01
5.126039e-01
5.067118e-01
5.046713e-01
5.068439e-01
5.128490e-01
5.217637e-01
5.323100e-01
5.431930e-01
5.539141e-01
5.634414e-01
0.000000e+00
1.000000e+00
5.644280e-01
5.551962e-01
5.451665e-01
5.349157e-01
5.252195e-01
5.170974e-01
5.116522e-01
5.097640e-01
5.117717e-01
5.173275e-01
5.255676e-01
5.353420e-01
5.454456e-01
5.553408e-01
5.640987e-01
0.000000e+00
1.000000e+00
5.651812e-01
5.570677e-01
5.480740e-01
5.388775e-01
5.301825e-01
5.229054e-01
5.180354e-01
5.163524e-01
5.181525e-01
5.231263e-01
5.305021e-01
5.392792e-01
5.483262e-01
5.571837e-01
5.650593e-01
0.000000e+00
1.000000e+00
5.661710e-01
5.592494e-01
5.514556e-01
5.434982e-01
5.359695e-01
5.296690e-01
5.254570e-01
5.240097e-01
5.255742e-01
5.298758e-01
5.362581e-01
5.438440e-01
5.516974e-01
5.593597e-01
5.662917e-01
0.000000e+00
1.000000e+00
5.673335e-01
5.615998e-01
5.551213e-01
5.485178e-01
5.422659e-01
5.370303e-01
5.335295e-01
5.323301e-01
5.336367e-01
5.372153e-01
5.425235e-01
5.488253e-01
5.553753e-01
5.617732e-01
5.669450e-01
0.000000e+00
1.000000e+00
5.717237e-01
5.701801e-01
5.685778e-01
5.669412e-01
5.653904e-01
5.640890e-01
5.632149e-01
5.629096e-01
5.632280e-01
5.641232e-01
5.654399e-01
5.669926e-01
5.686744e-01
5.703841e-01
5.749277e-01
0.000000e+00
1.000000e+00
5.710009e-01
5.687704e-01
5.663689e-01
5.639172e-01
5.615942e-01
5.596456e-01
5.583379e-01
5.578830e-01
5.583628e-01
5.597030e-01
5.616762e-01
5.639947e-01
5.664822e-01
5.687052e-01
5.730770e-01
0.000000e+00
1.000000e+00
5.701842e-01
5.670808e-01
5.637238e-01
5.602951e-01
5.570471e-01
5.543244e-01
5.524994e-01
5.518668e-01
5.525391e-01
5.544107e-01
5.571680e-01
5.604029e-01
5.638715e-01
5.669849e-01
5.711559e-01
0.000000e+00
1.000000e+00
5.692348e-01
5.651528e-01
5.607047e-01
5.561607e-01
5.518577e-01
5.482528e-01
5.458388e-01
5.450041e-01
5.458956e-01
5.483728e-01
5.520263e-01
5.563003e-01
5.608855e-01
5.650950e-01
5.697748e-01
0.000000e+00
1.000000e+00
5.682012e-01
5.630558e-01
5.574272e-01
5.516734e-01
5.462272e-01
5.416671e-01
5.386160e-01
5.375614e-01
5.386895e-01
5.418228e-01
5.464531e-01
5.518502e-01
5.576476e-01
5.631218e-01
5.678276e-01
0.000000e+00
1.000000e+00
5.671685e-01
5.609019e-01
5.540636e-01
5.470698e-01
5.404534e-01
5.349159e-01
5.312119e-01
5.299306e-01
5.313001e-01
5.351050e-01
5.407428e-01
5.472847e-01
5.543169e-01
5.611085e-01
5.664991e-01
0.000000e+00
1.000000e+00
5.662149e-01
5.588346e-01
5.508326e-01
5.426512e-01
5.349148e-01
5.284408e-01
5.241085e-01
5.226079e-01
5.242083e-01
5.286555e-01
5.352655e-01
5.429049e-01
5.511042e-01
5.591069e-01
5.656109e-01
0.000000e+00
1.000000e+00
5.653968e-01
5.570107e-01
5.479788e-01
5.387544e-01
5.300326e-01
5.227308e-01
5.178406e-01
5.161448e-01
5.179489e-01
5.229608e-01
5.304313e-01
5.390492e-01
5.482549e-01
5.572959e-01
5.648158e-01
0.000000e+00
1.000000e+00
5.647970e-01
5.555910e-01
5.457453e-01
5.357084e-01
5.262125e-01
5.182578e-01
5.129260e-01
5.110769e-01
5.130418e-01
5.184942e-01
5.266355e-01
5.360416e-01
5.460094e-01
5.558423e-01
5.642803e-01
0.000000e+00
1.000000e+00
5.645604e-01
5.547241e-01
5.443329e-01
5.337755e-01
5.237818e-01
5.154059e-01
5.097904e-01
5.078451e-01
5.099139e-01
5.156451e-01
5.242060e-01
5.341426e-01
5.445674e-01
5.548757e-01
5.641232e-01
0.000000e+00
1.000000e+00
5.649680e-01
5.544712e-01
5.438501e-01
5.331115e-01
5.229438e-01
5.144207e-01
5.087069e-01
5.067289e-01
5.088352e-01
5.146601e-01
5.233543e-01
5.335052e-01
5.440659e-01
5.544909e-01
5.642789e-01
0.000000e+00
1.000000e+00
5.652977e-01
5.548016e-01
5.443299e-01
5.337675e-01
5.237656e-01
5.153822e-01
5.097588e-01
5.078113e-01
5.098827e-01
5.156100e-01
5.241497e-01
5.341596e-01
5.445410e-01
5.547446e-01
5.646052e-01
0.000000e+00
1.000000e+00
5.649773e-01
5.555992e-01
5.457124e-01
5.356651e-01
5.261540e-01
5.181830e-01
5.128350e-01
5.109779e-01
5.129446e-01
5.183929e-01
5.265096e-01
5.360256e-01
5.459289e-01
5.556042e-01
5.652053e-01
0.000000e+00
1.000000e+00
5.653211e-01
5.569471e-01
5.478925e-01
5.386429e-01
5.298948e-01
5.225677e-01
5.176577e-01
5.159520e-01
5.177569e-01
5.227653e-01
5.302207e-01
5.389894e-01
5.481301e-01
5.569947e-01
5.659893e-01
0.000000e+00
1.000000e+00
5.660384e-01
5.587566e-01
5.507159e-01
5.424921e-01
5.347166e-01
5.282098e-01
5.238563e-01
5.223523e-01
5.239579e-01
5.283977e-01
5.350158e-01
5.428197e-01
5.509376e-01
5.587953e-01
5.668639e-01
0.000000e+00
1.000000e+00
5.669749e-01
5.608653e-01
5.539884e-01
5.469643e-01
5.403184e-01
5.347564e-01
5.310391e-01