<?xml version="1.0"?>
<VTKFile type="StructuredGrid" version="0.1">
  <StructuredGrid WholeExtent="0 16 0 16 0 16">
    <Piece Extent="0 16 0 16 0 16">
      <PointData Scalars="temperature" Vectors="velocity">
        <DataArray type="Float32" Name="temperature" format="ascii">
1.000000e+00
5.653624e-01
5.578909e-01
5.493188e-01
5.405886e-01
5.323262e-01
5.254056e-01
5.207732e-01
5.191801e-01
5.209074e-01
5.256474e-01
5.326330e-01
5.410306e-01
5.496968e-01
5.583264e-01
5.649106e-01
0.000000e+00
1.000000e+00
5.662295e-01
5.597420e-01
5.521917e-01
5.445175e-01
5.372537e-01
5.311695e-01
5.270974e-01
5.256986e-01
5.272199e-01
5.313896e-01
5.375359e-01
5.449636e-01
5.525430e-01
5.602090e-01
5.652218e-01
0.000000e+00
1.000000e+00
5.672962e-01
5.618233e-01
5.554433e-01
5.489647e-01
5.428301e-01
5.376895e-01
5.342462e-01
5.330602e-01
5.343403e-01
5.378582e-01
5.430451e-01
5.493709e-01
5.557702e-01
5.624469e-01
5.654492e-01
0.000000e+00
1.000000e+00
5.684336e-01
5.640631e-01
5.589518e-01
5.537662e-01
5.488557e-01
5.447403e-01
5.419831e-01
5.410326e-01
5.420569e-01
5.448721e-01
5.490213e-01
5.541397e-01
5.592587e-01
5.647591e-01
5.660121e-01
0.000000e+00
1.000000e+00
5.696176e-01
5.663953e-01
5.626083e-01
5.587711e-01
5.551372e-01
5.520913e-01
5.500501e-01
5.493446e-01
5.501018e-01
5.521851e-01
5.552511e-01
5.591101e-01
5.628931e-01
5.670142e-01
5.672423e-01
0.000000e+00
1.000000e+00
5.707886e-01
5.687242e-01
5.662602e-01
5.637701e-01
5.614119e-01
5.594352e-01
5.581095e-01
5.576490e-01
5.581381e-01
5.594896e-01
5.614722e-01
5.640709e-01
5.665262e-01
5.692120e-01
5.687551e-01
0.000000e+00
1.000000e+00
5.719217e-01
5.709401e-01
5.697341e-01
5.685255e-01
5.673809e-01
5.664214e-01
5.657769e-01
5.655506e-01
5.657838e-01
5.664349e-01
5.673820e-01
5.687684e-01
5.699822e-01
5.712745e-01
5.707016e-01
0.000000e+00
1.000000e+00
5.729849e-01
5.729234e-01
5.728502e-01
5.727910e-01
5.727356e-01
5.726894e-01
5.726579e-01
5.726444e-01
5.726500e-01
5.726724e-01
5.726951e-01
5.729075e-01
5.730531e-01
5.731530e-01
5.721692e-01
0.000000e+00
1.000000e+00
5.739001e-01
5.745649e-01
5.754413e-01
5.763391e-01
5.771907e-01
5.779061e-01
5.783871e-01
5.785545e-01
5.783770e-01
5.778852e-01
5.771507e-01
5.763658e-01
5.756301e-01
5.747355e-01
5.732016e-01
0.000000e+00
1.000000e+00
5.745778e-01
5.757858e-01
5.773756e-01
5.789878e-01
5.805173e-01
5.818029e-01
5.826690e-01
5.829749e-01
5.826656e-01
5.817948e-01
5.805030e-01
5.790512e-01
5.775859e-01
5.759326e-01
5.741591e-01
0.000000e+00
1.000000e+00
5.750122e-01
5.765381e-01
5.785709e-01
5.806245e-01
5.825723e-01
5.842097e-01
5.853135e-01
5.857050e-01
5.853164e-01
5.842156e-01
5.825965e-01
5.807583e-01
5.787751e-01
5.766732e-01
5.747493e-01
0.000000e+00
1.000000e+00
5.751881e-01
5.768035e-01
5.789978e-01
5.812094e-01
5.833073e-01
5.850709e-01
5.862602e-01
5.866830e-01
5.862667e-01
5.850867e-01
5.833605e-01
5.813661e-01
5.791836e-01
5.769330e-01
5.749440e-01
0.000000e+00
1.000000e+00
5.750866e-01
5.765991e-01
5.786822e-01
5.807773e-01
5.827647e-01
5.844358e-01
5.855629e-01
5.859642e-01
5.855700e-01
5.844544e-01
5.828252e-01
5.809260e-01
5.788611e-01
5.767418e-01
5.747748e-01
0.000000e+00
1.000000e+00
5.747279e-01
5.759767e-01
5.776994e-01
5.794315e-01
5.810748e-01
5.824565e-01
5.833886e-01
5.837199e-01
5.833924e-01
5.824687e-01
5.811220e-01
5.795504e-01
5.778773e-01
5.761227e-01
5.742107e-01
0.000000e+00
1.000000e+00
5.741749e-01
5.750017e-01
5.761548e-01
5.773168e-01
5.784196e-01
5.793473e-01
5.799734e-01
5.801956e-01
5.799744e-01
5.793533e-01
5.784496e-01
5.773973e-01
5.763221e-01
5.751504e-01
5.735079e-01
0.000000e+00
1.000000e+00
5.734834e-01
5.737481e-01
5.741731e-01
5.746037e-01
5.750134e-01
5.753595e-01
5.755946e-01
5.756789e-01
5.755974e-01
5.753684e-01
5.750436e-01
5.746785e-01
5.743284e-01
5.739097e-01
5.728990e-01
0.000000e+00
1.000000e+00
5.727175e-01
5.722945e-01
5.718831e-01
5.714683e-01
5.710772e-01
5.707519e-01
5.705366e-01
5.704647e-01
5.705491e-01
5.707794e-01
5.711421e-01
5.715757e-01
5.720390e-01
5.724712e-01
5.721649e-01
0.000000e+00
1.000000e+00
5.647614e-01
5.562331e-01
5.467410e-01
5.370584e-01
5.278934e-01
5.202152e-01
5.150729e-01
5.133006e-01
5.152106e-01
5.204642e-01
5.282198e-01
5.374737e-01
5.471389e-01
5.568870e-01
5.636395e-01
0.000000e+00
1.000000e+00
5.654598e-01
5.579542e-01
5.494295e-01
5.407384e-01
5.325135e-01
5.256256e-01
5.210168e-01
5.194344e-01
5.211571e-01
5.258780e-01
5.328456e-01
5.412053e-01
5.498496e-01
5.588774e-01
5.632429e-01
0.000000e+00
1.000000e+00
5.664497e-01
5.599681e-01
5.525672e-01
5.450285e-01
5.378911e-01
5.319108e-01
5.279060e-01
5.265268e-01
5.280159e-01
5.321064e-01
5.381402e-01
5.454654e-01
5.529539e-01
5.609842e-01
5.636591e-01
0.000000e+00
1.000000e+00
5.675438e-01
5.621778e-01
5.560194e-01
5.497525e-01
5.438184e-01
5.388457e-01
5.355144e-01
5.343663e-01
5.356030e-01
5.390023e-01
5.440109e-01
5.501520e-01
5.563735e-01
5.630398e-01
5.649304e-01
0.000000e+00
1.000000e+00
5.687225e-01
5.645168e-01
5.596792e-01
5.547612e-01
5.501038e-01
5.462002e-01
5.435839e-01
5.426807e-01
5.436502e-01
5.463170e-01
5.502423e-01
5.551127e-01
5.599989e-01
5.651001e-01
5.668525e-01
0.000000e+00
1.000000e+00
5.698982e-01
5.668846e-01
5.633884e-01
5.598386e-01
5.564763e-01
5.536574e-01
5.517670e-01
5.511121e-01
5.518103e-01
5.537353e-01
5.565629e-01
5.601387e-01
5.636737e-01
5.672410e-01
5.688775e-01
0.000000e+00
1.000000e+00
5.710261e-01
5.691675e-01
5.669633e-01
5.647321e-01
5.626184e-01
5.608457e-01
5.596555e-01
5.592406e-01
5.596765e-01
5.608853e-01
5.626544e-01
5.649803e-01
5.672134e-01
5.693982e-01
5.707470e-01
0.000000e+00
1.000000e+00
5.720994e-01
5.712392e-01
5.702093e-01
5.691753e-01
5.681954e-01
5.673731e-01
5.668198e-01
5.666243e-01
5.668218e-01
5.673772e-01
5.681838e-01
5.693507e-01
5.704161e-01
5.714227e-01
5.717749e-01
0.000000e+00
1.000000e+00
5.730453e-01
5.729765e-01
5.729419e-01
5.729162e-01
5.728918e-01
5.728712e-01
5.728563e-01
5.728483e-01
5.728473e-01
5.728526e-01
5.728528e-01
5.729827e-01
5.730987e-01
5.731000e-01
5.726023e-01
0.000000e+00
1.000000e+00
5.737378e-01
5.742887e-01
5.750118e-01
5.757504e-01
5.764508e-01
5.770391e-01
5.774343e-01
5.775716e-01
5.774251e-01
5.770198e-01
5.764174e-01
5.757625e-01
5.751492e-01
5.743735e-01
5.737583e-01
0.000000e+00
1.000000e+00
5.741936e-01
5.751173e-01
5.763225e-01
5.775450e-01
5.787044e-01
5.796788e-01
5.803349e-01
5.805661e-01
5.803306e-01
5.796695e-01
5.786927e-01
5.775881e-01
5.764647e-01
5.752111e-01
5.741778e-01
0.000000e+00
1.000000e+00
5.744179e-01
5.754389e-01
5.768386e-01
5.782521e-01
5.795926e-01
5.807193e-01
5.814785e-01
5.817472e-01
5.814778e-01
5.807184e-01
5.796012e-01
5.783287e-01
5.769734e-01
5.755344e-01
5.741919e-01
0.000000e+00
1.000000e+00
5.743530e-01
5.752730e-01
5.765854e-01
5.779057e-01
5.791580e-01
5.802106e-01
5.809201e-01
5.811716e-01
5.809207e-01
5.802131e-01
5.791746e-01
5.779805e-01
5.767086e-01
5.753711e-01
5.741718e-01
0.000000e+00
1.000000e+00
5.740037e-01
5.746717e-01
5.756403e-01
5.766115e-01
5.775330e-01
5.783078e-01
5.788301e-01
5.790153e-01
5.788306e-01
5.783106e-01
5.775481e-01
5.766649e-01
5.757534e-01
5.747716e-01
5.736585e-01
0.000000e+00
1.000000e+00
5.734516e-01
5.737067e-01
5.741161e-01
5.745250e-01
5.749137e-01
5.752413e-01
5.754629e-01
5.755419e-01
5.754645e-01
5.752472e-01
5.749338e-01
5.745724e-01
5.742244e-01
5.738341e-01
5.727742e-01
0.000000e+00
1.000000e+00
5.727813e-01
5.724572e-01
5.721454e-01
5.718274e-01
5.715278e-01
5.712782e-01
5.711123e-01
5.710561e-01
5.711200e-01
5.712956e-01
5.715721e-01
5.718993e-01
5.722587e-01
5.726105e-01
5.721728e-01
0.000000e+00
1.000000e+00
5.720426e-01
5.710070e-01
5.698650e-01
5.687055e-01
5.676090e-01
5.666920e-01
5.660792e-01
5.658685e-01
5.660985e-01
5.667319e-01
5.676925e-01
5.688064e-01
5.700027e-01
5.711678e-01
5.716137e-01
0.000000e+00
1.000000e+00
5.641151e-01
5.548604e-01
5.445914e-01
5.341157e-01
5.242001e-01
5.158934e-01
5.103307e-01
5.084139e-01
5.104807e-01
5.161672e-01
5.245699e-01
5.345070e-01
5.450093e-01
5.555881e-01
5.629290e-01
0.000000e+00
1.000000e+00
5.647693e-01
5.564626e-01
5.471004e-01
5.375499e-01
5.285125e-01
5.209448e-01
5.158812e-01
5.141427e-01
5.160352e-01
5.212241e-01
5.288922e-01
5.380054e-01
5.475364e-01
5.573686e-01
5.631436e-01
0.000000e+00
1.000000e+00
5.657079e-01
5.583900e-01
5.501060e-01
5.416593e-01
5.336628e-01
5.269635e-01
5.224780e-01
5.209334e-01
5.226020e-01
5.271858e-01
5.339543e-01
5.421084e-01
5.505034e-01
5.592884e-01
5.636602e-01
0.000000e+00
1.000000e+00
5.667553e-01
5.605524e-01
5.534838e-01
5.462817e-01
5.394625e-01
5.337481e-01
5.299209e-01
5.286015e-01
5.300226e-01
5.339293e-01
5.396889e-01
5.466967e-01
5.538417e-01
5.612574e-01
5.646878e-01
0.000000e+00
1.000000e+00
5.679208e-01
5.628848e-01
5.571295e-01
5.512707e-01
5.457224e-01
5.410721e-01
5.379558e-01
5.368799e-01
5.380339e-01
5.412104e-01
5.458886e-01
5.516302e-01
5.574415e-01
5.633158e-01
5.665818e-01
0.000000e+00
1.000000e+00
5.691159e-01
5.652815e-01
5.608812e-01
5.564057e-01
5.521665e-01
5.486123e-01
5.462288e-01
5.454037e-01
5.462833e-01
5.487088e-01
5.522771e-01
5.567010e-01
5.611478e-01
5.655392e-01
5.683539e-01
0.000000e+00
1.000000e+00
5.702759e-01
5.676209e-01
5.645449e-01
5.614207e-01
5.584607e-01
5.559780e-01
5.543114e-01
5.537318e-01
5.543433e-01
5.560360e-01
5.585214e-01
5.616524e-01
5.647718e-01
5.678053e-01
5.699790e-01
0.000000e+00
1.000000e+00
5.713643e-01
5.697709e-01
5.679115e-01
5.660290e-01
5.642449e-01
5.627476e-01
5.617408e-01
5.613879e-01
5.617528e-01
5.627708e-01
5.642616e-01
5.662026e-01
5.681032e-01
5.699313e-01
5.710208e-01
0.000000e+00
1.000000e+00
5.723327e-01
5.715986e-01
5.707799e-01
5.699556e-01
5.691739e-01
5.685171e-01
5.680743e-01
5.679165e-01
5.680715e-01
5.685119e-01
5.691537e-01
5.700573e-01
5.709285e-01
5.716898e-01
5.718448e-01
0.000000e+00
1.000000e+00
5.730688e-01
5.729977e-01
5.729830e-01
5.729719e-01
5.729611e-01
5.729515e-01
5.729438e-01
5.729384e-01
5.729349e-01
5.729333e-01
5.729270e-01
5.729899e-01
5.730830e-01
5.730307e-01
5.730671e-01
0.000000e+00
1.000000e+00
5.735384e-01
5.739026e-01
5.744103e-01
5.749261e-01
5.754151e-01
5.758256e-01
5.761014e-01
5.761971e-01
5.760947e-01
5.758117e-01
5.753922e-01
5.749250e-01
5.744855e-01
5.739489e-01
5.736159e-01
0.000000e+00
1.000000e+00
5.737762e-01
5.742834e-01
5.750176e-01
5.757579e-01
5.764598e-01
5.770495e-01
5.774466e-01
5.775864e-01
5.774439e-01
5.770444e-01
5.764532e-01
5.757747e-01
5.750835e-01
5.743379e-01
5.736322e-01
0.000000e+00
1.000000e+00
5.737444e-01
5.741575e-01
5.748286e-01
5.754995e-01
5.761359e-01
5.766706e-01
5.770308e-01
5.771581e-01
5.770300e-01
5.766700e-01
5.761382e-01
5.755214e-01
5.748873e-01
5.742141e-01
5.736552e-01
0.000000e+00
1.000000e+00
5.734403e-01
5.735801e-01
5.739244e-01
5.742618e-01
5.745820e-01
5.748513e-01
5.750329e-01
5.750971e-01
5.750326e-01
5.748526e-01
5.745898e-01
5.742826e-01
5.739838e-01
5.736433e-01
5.731902e-01
0.000000e+00
1.000000e+00
5.729018e-01
5.726266e-01
5.724248e-01
5.722090e-01
5.720051e-01
5.718345e-01
5.717204e-01
5.716808e-01
5.717231e-01
5.718420e-01
5.720284e-01
5.722423e-01
5.724924e-01
5.727323e-01
5.722605e-01
0.000000e+00
1.000000e+00
5.722251e-01
5.713835e-01
5.704685e-01
5.695316e-01
5.686450e-01
5.679021e-01
5.674038e-01
5.672305e-01
5.674140e-01
5.679254e-01
5.686987e-01
5.695948e-01
5.705624e-01
5.715284e-01
5.716228e-01
0.000000e+00
1.000000e+00
5.714887e-01
5.699391e-01
5.681995e-01
5.664256e-01
5.647471e-01
5.633413e-01
5.623988e-01
5.620716e-01
5.624197e-01
5.633882e-01
5.648337e-01
5.665166e-01
5.683264e-01
5.700817e-01
5.711000e-01
0.000000e+00
1.000000e+00
5.636284e-01
5.538429e-01
5.430061e-01
5.319462e-01
5.214786e-01
5.127103e-01
5.068398e-01
5.048185e-01
5.070026e-01
5.130097e-01
5.218727e-01
5.323552e-01
5.434455e-01
5.545618e-01
5.624857e-01
0.000000e+00
1.000000e+00
5.642444e-01
5.553332e-01
5.453396e-01
5.351400e-01
5.254888e-01
5.174078e-01
5.120012e-01
5.101455e-01
5.121669e-01
5.177108e-01
5.258987e-01
5.355827e-01
5.457816e-01
5.561098e-01
5.629392e-01
0.000000e+00
1.000000e+00
5.651579e-01
5.571742e-01
5.482100e-01
5.390634e-01
5.304054e-01
5.231531e-01
5.182980e-01
5.166275e-01
5.184350e-01
5.234006e-01
5.307384e-01
5.394956e-01
5.486178e-01
5.578940e-01
5.635864e-01
0.000000e+00
1.000000e+00
5.661674e-01
5.592820e-01
5.515056e-01
5.435738e-01
5.360641e-01
5.297721e-01
5.255586e-01
5.241068e-01
5.256727e-01
5.299769e-01
5.363295e-01
5.439913e-01
5.518731e-01
5.598514e-01
5.645290e-01
0.000000e+00
1.000000e+00
5.672934e-01
5.615989e-01
5.551261e-01
5.485286e-01
5.422811e-01
5.370450e-01
5.335368e-01
5.323261e-01
5.336261e-01
5.372043e-01
5.424798e-01
5.488996e-01
5.554438e-01
5.619461e-01
5.663160e-01
0.000000e+00
1.000000e+00
5.684973e-01
5.640185e-01
5.589090e-01
5.537057e-01
5.487774e-01
5.446455e-01
5.418752e-01
5.409166e-01
5.419393e-01
5.447594e-01
5.489143e-01
5.540092e-01
5.591739e-01
5.642433e-01
5.680251e-01
0.000000e+00
1.000000e+00
5.696925e-01
5.664089e-01
5.626508e-01
5.588274e-01
5.552050e-01
5.521666e-01
5.501276e-01
5.494191e-01
5.501679e-01
5.522388e-01
5.552876e-01
5.590566e-01
5.628680e-01
5.665940e-01
5.695293e-01
0.000000e+00
1.000000e+00
5.707990e-01
5.686298e-01
5.661284e-01
5.635877e-01
5.611797e-01
5.591588e-01
5.578007e-01
5.573260e-01
5.578204e-01
5.591951e-01
5.612168e-01
5.637474e-01
5.663018e-01
5.688000e-01
5.704580e-01
0.000000e+00
1.000000e+00
5.717799e-01
5.705416e-01
5.691242e-01
5.676885e-01
5.663273e-01
5.651838e-01
5.644139e-01
5.641421e-01
5.644174e-01
5.651910e-01
5.663282e-01
5.677842e-01
5.692544e-01
5.706330e-01
5.712632e-01
0.000000e+00
1.000000e+00
5.725663e-01
5.720241e-01
5.714542e-01
5.708782e-01
5.703317e-01
5.698721e-01
5.695615e-01
5.694498e-01
5.695560e-01
5.698608e-01
5.703082e-01
5.709105e-01
5.715385e-01
5.720278e-01
5.725511e-01
0.000000e+00
1.000000e+00
5.730784e-01
5.730009e-01
5.729934e-01
5.729856e-01
5.729780e-01
5.729710e-01
5.729655e-01
5.729617e-01
5.729593e-01
5.729578e-01
5.729536e-01
5.729708e-01
5.730279e-01
5.730098e-01
5.731939e-01
0.000000e+00
1.000000e+00
5.733299e-01
5.734396e-01
5.736896e-01
5.739389e-01
5.741750e-01
5.743732e-01
5.745063e-01
5.745527e-01
5.745037e-01
5.743675e-01
5.741638e-01
5.739292e-01
5.737049e-01
5.734588e-01
5.732554e-01
0.000000e+00
1.000000e+00
5.733165e-01
5.733525e-01
5.735631e-01
5.737659e-01
5.739582e-01
5.741196e-01
5.742283e-01
5.742666e-01
5.742279e-01
5.741191e-01
5.739560e-01
5.737633e-01
5.735757e-01
5.733762e-01
5.732933e-01
0.000000e+00
1.000000e+00
5.730351e-01
5.727970e-01
5.726966e-01
5.725800e-01
5.724698e-01
5.723773e-01
5.723152e-01
5.722933e-01
5.723159e-01
5.723799e-01
5.724757e-01
5.725833e-01
5.727142e-01
5.728251e-01
5.728977e-01
0.000000e+00
1.000000e+00
5.725430e-01
5.718540e-01
5.712167e-01
5.705545e-01
5.699274e-01
5.694012e-01
5.690477e-01
5.689240e-01
5.690528e-01
5.694134e-01
5.699530e-01
5.705775e-01
5.712562e-01
5.719378e-01
5.719450e-01
0.000000e+00
1.000000e+00
5.718769e-01
5.706141e-01
5.692710e-01
5.678916e-01
5.665853e-01
5.654894e-01
5.647535e-01
5.644973e-01
5.647676e-01
5.655203e-01
5.666373e-01
5.679438e-01
5.693492e-01
5.707424e-01
5.712542e-01
0.000000e+00
1.000000e+00
5.711180e-01
5.691698e-01
5.670087e-01
5.647953e-01
5.626998e-01
5.609429e-01
5.597632e-01
5.593534e-01
5.597888e-01
5.609972e-01
5.627803e-01
5.648739e-01
5.671120e-01
5.692973e-01
5.707183e-01
0.000000e+00
1.000000e+00
5.633653e-01
5.532593e-01
5.421014e-01
5.307080e-01
5.199256e-01
5.108954e-01
5.048511e-01
5.027718e-01
5.050242e-01
5.112162e-01
5.203275e-01
5.311611e-01
5.425751e-01
5.539337e-01
5.622223e-01
0.000000e+00
1.000000e+00
5.639352e-01
5.546486e-01
5.442760e-01
5.336845e-01
5.236629e-01
5.152725e-01
5.096596e-01
5.077340e-01
5.098338e-01
5.155931e-01
5.240753e-01
5.341628e-01
5.447245e-01
5.552705e-01
5.629281e-01
0.000000e+00
1.000000e+00
5.648148e-01
5.564114e-01
5.470209e-01
5.374356e-01
5.283633e-01
5.207654e-01
5.156802e-01
5.139319e-01
5.158275e-01
5.210337e-01
5.287154e-01
5.378768e-01
5.474262e-01
5.569475e-01
5.638034e-01
0.000000e+00
1.000000e+00
5.658137e-01
5.584701e-01
5.502398e-01
5.418404e-01
5.338888e-01
5.272276e-01
5.227682e-01
5.212330e-01
5.228926e-01
5.274524e-01
5.341844e-01
5.422517e-01
5.506007e-01
5.589129e-01
5.646656e-01
0.000000e+00
1.000000e+00
5.669225e-01
5.607691e-01
5.538340e-01
5.467597e-01
5.400611e-01
5.344475e-01
5.306877e-01
5.293911e-01
5.307864e-01
5.346251e-01
5.402938e-01
5.471242e-01
5.541444e-01
5.610647e-01
5.663221e-01
0.000000e+00
1.000000e+00
5.681182e-01
5.632047e-01
5.576417e-01
5.519711e-01
5.466003e-01
5.420980e-01
5.390800e-01
5.380367e-01
5.391523e-01
5.422272e-01
5.467688e-01
5.522757e-01
5.579001e-01
5.634373e-01
5.678258e-01
0.000000e+00
1.000000e+00
5.693250e-01
5.656407e-01
5.614531e-01
5.571878e-01
5.531469e-01
5.497579e-01
5.474841e-01
5.466950e-01
5.475310e-01
5.498419e-01
5.532546e-01
5.574249e-01
5.616655e-01
5.658640e-01
5.690591e-01
0.000000e+00
1.000000e+00
5.704609e-01
5.679273e-01
5.650319e-01
5.620866e-01
5.592953e-01
5.569528e-01
5.553791e-01
5.548299e-01
5.554037e-01
5.569977e-01
5.593496e-01
5.622550e-01
5.652014e-01
5.681349e-01
5.699238e-01
0.000000e+00
1.000000e+00
5.714734e-01
5.699146e-01
5.681441e-01
5.663468e-01
5.646427e-01
5.632116e-01
5.622483e-01
5.619093e-01
5.622555e-01
5.632252e-01
5.646557e-01
5.664449e-01
5.682677e-01
5.700338e-01
5.708286e-01
0.000000e+00
1.000000e+00
5.722925e-01
5.714722e-01
5.705895e-01
5.696944e-01
5.688453e-01
5.681314e-01
5.676498e-01
5.674780e-01
5.676461e-01
5.681238e-01
5.688284e-01
5.697315e-01
5.706694e-01
5.714870e-01
5.721381e-01
0.000000e+00
1.000000e+00
5.728427e-01
5.725141e-01
5.722295e-01
5.719398e-01
5.716646e-01
5.714328e-01
5.712758e-01
5.712183e-01
5.712696e-01
5.714194e-01
5.716394e-01
5.719237e-01
5.722541e-01
5.725111e-01
5.728867e-01
0.000000e+00
1.000000e+00
5.731247e-01
5.730036e-01
5.730038e-01
5.729997e-01
5.729956e-01
5.729917e-01
5.729887e-01
5.729866e-01
5.729852e-01
5.729839e-01
5.729802e-01
5.729801e-01
5.729998e-01
5.729986e-01
5.730617e-01
0.000000e+00
1.000000e+00
5.731377e-01
5.729513e-01
5.729305e-01
5.728993e-01
5.728695e-01
5.728442e-01
5.728270e-01
5.728205e-01
5.728258e-01
5.728415e-01
5.728624e-01
5.728863e-01
5.729195e-01
5.729503e-01
5.731223e-01
0.000000e+00
1.000000e+00
5.728700e-01
5.724136e-01
5.720946e-01
5.717549e-01
5.714328e-01
5.711621e-01
5.709798e-01
5.709151e-01
5.709797e-01
5.711623e-01
5.714318e-01
5.717471e-01
5.720921e-01
5.724234e-01
5.728348e-01
0.000000e+00
1.000000e+00
5.723778e-01
5.714762e-01
5.706257e-01
5.697446e-01
5.689096e-01
5.682086e-01
5.677372e-01
5.675716e-01
5.677416e-01
5.682185e-01
5.689254e-01
5.697566e-01
5.706535e-01
5.715315e-01
5.718658e-01
0.000000e+00
1.000000e+00
5.717380e-01
5.702345e-01
5.686776e-01
5.670785e-01
5.655638e-01
5.642929e-01
5.634395e-01
5.631422e-01
5.634546e-01
5.643236e-01
5.656059e-01
5.671198e-01
5.687396e-01
5.703340e-01
5.711787e-01
0.000000e+00
1.000000e+00
5.710288e-01
5.687867e-01
5.664076e-01
5.639719e-01
5.616653e-01
5.597311e-01
5.584332e-01
5.579830e-01
5.584620e-01
5.597879e-01
5.617382e-01
5.640407e-01
5.664939e-01
5.689004e-01
5.705405e-01
0.000000e+00
1.000000e+00
5.633462e-01
5.531687e-01
5.419630e-01
5.305171e-01
5.196869e-01
5.106187e-01
5.045508e-01
5.024657e-01
5.047309e-01
5.109547e-01
5.200944e-01
5.310150e-01
5.424139e-01
5.537392e-01
5.624274e-01
0.000000e+00
1.000000e+00
5.638801e-01
5.544760e-01
5.440108e-01
5.333209e-01
5.232069e-01
5.147398e-01
5.090766e-01
5.071348e-01
5.092554e-01
5.150704e-01
5.236139e-01
5.338549e-01
5.444267e-01
5.549121e-01
5.633508e-01
0.000000e+00
1.000000e+00
5.647092e-01
5.561738e-01
5.466535e-01
5.369330e-01
5.277337e-01
5.200305e-01
5.148763e-01
5.131061e-01
5.150305e-01
5.203130e-01
5.280882e-01
5.374212e-01
5.470272e-01
5.565511e-01
5.642371e-01
0.000000e+00
1.000000e+00
5.656992e-01
5.581966e-01
5.498127e-01
5.412552e-01
5.331549e-01
5.263702e-01
5.218295e-01
5.202681e-01
5.219610e-01
5.266093e-01
5.334624e-01
5.416884e-01
5.501539e-01
5.585489e-01
5.650512e-01
0.000000e+00
1.000000e+00
5.668151e-01
5.604847e-01
5.533902e-01
5.461514e-01
5.392978e-01
5.335553e-01
5.297103e-01
5.283860e-01
5.298157e-01
5.337461e-01
5.395496e-01
5.465269e-01
5.536969e-01
5.607892e-01
5.663109e-01
0.000000e+00
1.000000e+00
5.680092e-01
5.629357e-01
5.572239e-01
5.513989e-01
5.458824e-01
5.412585e-01
5.381600e-01
5.370904e-01
5.382380e-01
5.413989e-01
5.460723e-01
5.517163e-01
5.574929e-01
5.632285e-01
5.675051e-01
0.000000e+00
1.000000e+00
5.692187e-01
5.654127e-01
5.610991e-01
5.567034e-01
5.525393e-01
5.490473e-01
5.467051e-01
5.458933e-01
5.467562e-01
5.491395e-01
5.526663e-01
5.569601e-01
5.613269e-01
5.656983e-01
5.686753e-01
0.000000e+00
1.000000e+00
5.703825e-01
5.677588e-01
5.647691e-01
5.617268e-01
5.588439e-01
5.564249e-01
5.548002e-01
5.542339e-01
5.548274e-01
5.564744e-01
5.589118e-01
5.619227e-01
5.649514e-01
5.680206e-01
5.695790e-01
0.000000e+00
1.000000e+00
5.714395e-01
5.698128e-01
5.679846e-01
5.661284e-01
5.643687e-01
5.628910e-01
5.618965e-01
5.615467e-01
5.619043e-01
5.629056e-01
5.643870e-01
5.662587e-01
5.681152e-01
5.699744e-01
5.705407e-01
0.000000e+00
1.000000e+00
5.722929e-01
5.714342e-01
5.705300e-01
5.696130e-01
5.687433e-01
5.680120e-01
5.675186e-01
5.673423e-01
5.675141e-01
5.680027e-01
5.687246e-01
5.696718e-01
5.706129e-01
5.714797e-01
5.719507e-01
0.000000e+00
1.000000e+00
5.728699e-01
5.725298e-01
5.722542e-01
5.719739e-01
5.717076e-01
5.714833e-01
5.713311e-01
5.712749e-01
5.713235e-01
5.714673e-01
5.716787e-01
5.719675e-01
5.722868e-01
5.725432e-01
5.727773e-01
0.000000e+00
1.000000e+00
5.731766e-01
5.730585e-01
5.730892e-01
5.731171e-01
5.731433e-01
5.731650e-01
5.731789e-01
5.731825e-01
5.731744e-01
5.731554e-01
5.731263e-01
5.730999e-01
5.730913e-01
5.730559e-01
5.730075e-01
0.000000e+00
1.000000e+00
5.732134e-01
5.730299e-01
5.730508e-01
5.730647e-01
5.730777e-01
5.730883e-01
5.730951e-01
5.730970e-01
5.730935e-01
5.730850e-01
5.730709e-01
5.730529e-01
5.730420e-01
5.730220e-01
5.731714e-01
0.000000e+00
1.000000e+00
5.729869e-01
5.725015e-01
5.722271e-01
5.719371e-01
5.716620e-01
5.714307e-01
5.712747e-01
5.712193e-01
5.712743e-01
5.714304e-01
5.716603e-01
5.719294e-01
5.722254e-01
5.725153e-01
5.729758e-01
0.000000e+00
1.000000e+00
5.725356e-01
5.715624e-01
5.707536e-01
5.699202e-01
5.691303e-01
5.684669e-01
5.680203e-01
5.678629e-01
5.680228e-01
5.684735e-01
5.691413e-01
5.699288e-01
5.707783e-01
5.716135e-01
5.720316e-01
0.000000e+00
1.000000e+00
5.719245e-01
5.703130e-01
5.687874e-01
5.672291e-01
5.657530e-01
5.645143e-01
5.636819e-01
5.633910e-01
5.636938e-01
5.645395e-01
5.657876e-01
5.672651e-01
5.688453e-01
5.703820e-01
5.714866e-01
0.000000e+00
1.000000e+00
5.712730e-01
5.688562e-01
5.664905e-01
5.640856e-01
5.618081e-01
5.598985e-01
5.586172e-01
5.581723e-01
5.586438e-01
5.599512e-01
5.618739e-01
5.641477e-01
5.665692e-01
5.689152e-01
5.707030e-01
0.000000e+00
1.000000e+00
5.635530e-01
5.535981e-01
5.426334e-01
5.314327e-01
5.208367e-01
5.119664e-01
5.060331e-01
5.039970e-01
5.062164e-01
5.123102e-01
5.212509e-01
5.319552e-01
5.430314e-01
5.540490e-01
5.631390e-01
0.000000e+00
1.000000e+00
5.640786e-01
5.548525e-01
5.445999e-01
5.341255e-01
5.242158e-01
5.159208e-01
5.103738e-01
5.084734e-01
5.105529e-01
5.162533e-01
5.246217e-01
5.346796e-01
5.449518e-01
5.551644e-01
5.639414e-01
0.000000e+00
1.000000e+00
5.648719e-01
5.565063e-01
5.471762e-01
5.376485e-01
5.286325e-01
5.210837e-01
5.160343e-01
5.143023e-01
5.161913e-01
5.213723e-01
5.289900e-01
5.381616e-01
5.475004e-01
5.567976e-01
5.647537e-01
0.000000e+00
1.000000e+00
5.658422e-01
5.585081e-01
5.503020e-01
5.419254e-01
5.339965e-01
5.273564e-01
5.229139e-01
5.213884e-01
5.230485e-01
5.276023e-01
5.343103e-01
5.423799e-01
5.506110e-01
5.588202e-01
5.655782e-01
0.000000e+00
1.000000e+00
5.669525e-01
5.607978e-01
5.538799e-01
5.468218e-01
5.401396e-01
5.345415e-01
5.307945e-01
5.295060e-01
5.309029e-01
5.347387e-01
5.404014e-01
5.472178e-01
5.541745e-01
5.611453e-01
5.664427e-01
0.000000e+00
1.000000e+00
5.681730e-01
5.632713e-01
5.577470e-01
5.521149e-01
5.467813e-01
5.423114e-01
5.393173e-01
5.382855e-01
5.393978e-01
5.424569e-01
5.469839e-01
5.524561e-01
5.580198e-01
5.636302e-01
5.674150e-01
0.000000e+00
1.000000e+00
5.694068e-01
5.657863e-01
5.616835e-01
5.575034e-01
5.535439e-01
5.502241e-01
5.479983e-01
5.472279e-01
5.480507e-01
5.503192e-01
5.536838e-01
5.577902e-01
5.619221e-01
5.661254e-01
5.686719e-01
0.000000e+00
1.000000e+00
5.705813e-01
5.681837e-01
5.654338e-01
5.626372e-01
5.599873e-01
5.577642e-01
5.562716e-01
5.557514e-01
5.562977e-01
5.578126e-01
5.600639e-01
5.628692e-01
5.656309e-01
5.684993e-01
5.695869e-01
0.000000e+00
1.000000e+00
5.716658e-01
5.702949e-01
5.687372e-01
5.671588e-01
5.656627e-01
5.644065e-01
5.635610e-01
5.632628e-01
5.635655e-01
5.644149e-01
5.656787e-01
5.673277e-01
5.688908e-01
5.705151e-01
5.705793e-01
0.000000e+00
1.000000e+00
5.725601e-01
5.719681e-01
5.713642e-01
5.707553e-01
5.701777e-01
5.696918e-01
5.693632e-01
5.692443e-01
5.693551e-01
5.696742e-01
5.701481e-01
5.708368e-01
5.714688e-01
5.720674e-01
5.720621e-01
0.000000e+00
1.000000e+00
5.731658e-01
5.731033e-01
5.731532e-01
5.732049e-01
5.732535e-01
5.732937e-01
5.733196e-01
5.733258e-01
5.733098e-01
5.732730e-01
5.732179e-01
5.732080e-01
5.732117e-01
5.731569e-01
5.729263e-01
0.000000e+00
1.000000e+00
5.734775e-01
5.736573e-01
5.740296e-01
5.744048e-01
5.747603e-01
5.750588e-01
5.752593e-01
5.753290e-01
5.752548e-01
5.750491e-01
5.747444e-01
5.743998e-01
5.740623e-01
5.736857e-01
5.731623e-01
0.000000e+00
1.000000e+00
5.735116e-01
5.736377e-01
5.740075e-01
5.743743e-01
5.747220e-01
5.750140e-01
5.752106e-01
5.752801e-01
5.752100e-01
5.750127e-01
5.747185e-01
5.743727e-01
5.740240e-01
5.736527e-01
5.734414e-01
0.000000e+00
1.000000e+00
5.732625e-01
5.731020e-01
5.731758e-01
5.732355e-01
5.732919e-01
5.733391e-01
5.733708e-01
5.733818e-01
5.733703e-01
5.733387e-01
5.732903e-01
5.732296e-01
5.731852e-01
5.731214e-01
5.732573e-01
0.000000e+00
1.000000e+00
5.727444e-01
5.721432e-01
5.716738e-01
5.711793e-01
5.707108e-01
5.703173e-01
5.700522e-01
5.699583e-01
5.700526e-01
5.703204e-01
5.707194e-01
5.711848e-01
5.716996e-01
5.721785e-01
5.723194e-01
0.000000e+00
1.000000e+00
5.720784e-01
5.708662e-01
5.696644e-01
5.684295e-01
5.672600e-01
5.662788e-01
5.656194e-01
5.653885e-01
5.656279e-01
5.662988e-01
5.672935e-01
5.684640e-01
5.697305e-01
5.709045e-01
5.720496e-01
0.000000e+00
1.000000e+00
5.713503e-01
5.693709e-01
5.673175e-01
5.652174e-01
5.632288e-01
5.615615e-01
5.604429e-01
5.600543e-01
5.604656e-01
5.616077e-01
5.632905e-01
5.652765e-01
5.674049e-01
5.693940e-01
5.711931e-01
0.000000e+00
1.000000e+00
5.639615e-01
5.545381e-01
5.441027e-01
5.334426e-01
5.233589e-01
5.149193e-01
5.092762e-01
5.073427e-01
5.094584e-01
5.152617e-01
5.237721e-01
5.339567e-01
5.444797e-01
5.549998e-01
5.637547e-01
0.000000e+00
1.000000e+00
5.645130e-01
5.557753e-01
5.460398e-01
5.360946e-01
5.266854e-01
5.188100e-01
5.135450e-01
5.117431e-01
5.137201e-01
5.191354e-01
5.270855e-01
5.366234e-01
5.463777e-01
5.560641e-01
5.644912e-01
0.000000e+00
1.000000e+00
5.652924e-01
5.574131e-01
5.485936e-01
5.395884e-01
5.310670e-01
5.239333e-01
5.191630e-01
5.175292e-01
5.193182e-01
5.242190e-01
5.314249e-01
5.400855e-01
5.489067e-01
5.576891e-01
5.652938e-01
0.000000e+00
1.000000e+00
5.662625e-01
5.594147e-01
5.517190e-01
5.438651e-01
5.364312e-01
5.302064e-01
5.260431e-01
5.246160e-01
5.261762e-01
5.304504e-01
5.367473e-01
5.443143e-01
5.520150e-01
5.597176e-01
5.662165e-01
0.000000e+00
1.000000e+00
5.673757e-01
5.617185e-01
5.553180e-01
5.487909e-01
5.426114e-01
5.374352e-01
5.339717e-01
5.327833e-01
5.340786e-01
5.376304e-01
5.428778e-01
5.491932e-01
5.556137e-01
5.621060e-01
5.669397e-01
0.000000e+00
1.000000e+00
5.686197e-01
5.642197e-01
5.592275e-01
5.541419e-01
5.493261e-01
5.452909e-01
5.425888e-01
5.416598e-01
5.426675e-01
5.454335e-01
5.495354e-01
5.545015e-01
5.595138e-01
5.646536e-01
5.677349e-01
0.000000e+00
1.000000e+00
5.698785e-01
5.667713e-01
5.632229e-01
5.596114e-01
5.561907e-01
5.533234e-01
5.514016e-01
5.507375e-01
5.514504e-01
5.534127e-01
5.563360e-01
5.599309e-01
5.634907e-01
5.671921e-01
5.689545e-01
0.000000e+00
1.000000e+00
5.710609e-01
5.692126e-01
5.670421e-01
5.648395e-01
5.627529e-01
5.610028e-01
5.598279e-01
5.594180e-01
5.598478e-01
5.610399e-01
5.628257e-01
5.651175e-01
5.672821e-01
5.696067e-01
5.698896e-01
0.000000e+00
1.000000e+00
5.721744e-01
5.713695e-01
5.704152e-01
5.694566e-01
5.685480e-01
5.677852e-01
5.672712e-01
5.670879e-01
5.672678e-01
5.677768e-01
5.685437e-01
5.696598e-01
5.706069e-01
5.716616e-01
5.709063e-01
0.000000e+00
1.000000e+00
5.731203e-01
5.730793e-01
5.731022e-01
5.731352e-01
5.731663e-01
5.731918e-01
5.732072e-01
5.732082e-01
5.731926e-01
5.731603e-01
5.731170e-01
5.732094e-01
5.732410e-01
5.732387e-01
5.723296e-01
0.000000e+00
1.000000e+00
5.737523e-01
5.742376e-01
5.749333e-01
5.756425e-01
5.763149e-01
5.768792e-01
5.772580e-01
5.773884e-01
5.772453e-01
5.768531e-01
5.762784e-01
5.756604e-01
5.750471e-01
5.743390e-01
5.732993e-01
0.000000e+00
1.000000e+00
5.740688e-01
5.748008e-01
5.758292e-01
5.768688e-01
5.778548e-01
5.786831e-01
5.792406e-01
5.794364e-01
5.792349e-01
5.786727e-01
5.778514e-01
5.769054e-01
5.759255e-01
5.748798e-01
5.736095e-01
0.000000e+00
1.000000e+00
5.740990e-01
5.747734e-01
5.758016e-01
5.768310e-01
5.778073e-01
5.786277e-01
5.791804e-01
5.793757e-01
5.791794e-01
5.786273e-01
5.778181e-01
5.768705e-01
5.758780e-01
5.748392e-01
5.738514e-01
0.000000e+00
1.000000e+00
5.738016e-01
5.742178e-01
5.749399e-01
5.756515e-01
5.763265e-01
5.768936e-01
5.772756e-01
5.774105e-01
5.772748e-01
5.768943e-01
5.763341e-01
5.756734e-01
5.750016e-01
5.742891e-01
5.737490e-01
0.000000e+00
1.000000e+00
5.732542e-01
5.732331e-01
5.733877e-01
5.735270e-01
5.736595e-01
5.737711e-01
5.738464e-01
5.738727e-01
5.738455e-01
5.737729e-01
5.736694e-01
5.735433e-01
5.734446e-01
5.732955e-01
5.727819e-01
0.000000e+00
1.000000e+00
5.725789e-01
5.719182e-01
5.713165e-01
5.706919e-01
5.701008e-01
5.696053e-01
5.692728e-01