<?xml version="1.0"?>
<VTKFile type="StructuredGrid" version="0.1">
  <StructuredGrid WholeExtent="0 16 0 16 0 16">
    <Piece Extent="0 16 0 16 0 16">
      <PointData Scalars="temperature" Vectors="velocity">
        <DataArray type="Float32" Name="temperature" format="ascii">
1.000000e+00
5.722364e-01
5.713893e-01
5.704792e-01
5.695484e-01
5.686658e-01
5.679241e-01
5.674244e-01
5.672474e-01
5.674244e-01
5.679241e-01
5.686658e-01
5.695484e-01
5.704792e-01
5.713893e-01
5.722364e-01
0.000000e+00
1.000000e+00
5.723214e-01
5.715685e-01
5.707597e-01
5.699325e-01
5.691481e-01
5.684889e-01
5.680447e-01
5.678874e-01
5.680447e-01
5.684889e-01
5.691481e-01
5.699325e-01
5.707597e-01
5.715685e-01
5.723214e-01
0.000000e+00
1.000000e+00
5.724184e-01
5.717731e-01
5.710799e-01
5.703710e-01
5.696987e-01
5.691338e-01
5.687531e-01
5.686183e-01
5.687531e-01
5.691338e-01
5.696987e-01
5.703710e-01
5.710799e-01
5.717731e-01
5.724184e-01
0.000000e+00
1.000000e+00
5.725251e-01
5.719983e-01
5.714323e-01
5.708535e-01
5.703046e-01
5.698434e-01
5.695326e-01
5.694225e-01
5.695326e-01
5.698434e-01
5.703046e-01
5.708535e-01
5.714323e-01
5.719983e-01
5.725251e-01
0.000000e+00
1.000000e+00
5.726381e-01
5.722367e-01
5.718054e-01
5.713644e-01
5.709461e-01
5.705946e-01
5.703578e-01
5.702739e-01
5.703578e-01
5.705946e-01
5.709461e-01
5.713644e-01
5.718054e-01
5.722367e-01
5.726381e-01
0.000000e+00
1.000000e+00
5.727530e-01
5.724789e-01
5.721844e-01
5.718833e-01
5.715977e-01
5.713578e-01
5.711961e-01
5.711388e-01
5.711961e-01
5.713578e-01
5.715977e-01
5.718833e-01
5.721844e-01
5.724789e-01
5.727530e-01
0.000000e+00
1.000000e+00
5.728643e-01
5.727138e-01
5.725520e-01
5.723866e-01
5.722298e-01
5.720979e-01
5.720091e-01
5.719777e-01
5.720091e-01
5.720979e-01
5.722298e-01
5.723866e-01
5.725520e-01
5.727138e-01
5.728643e-01
0.000000e+00
1.000000e+00
5.729667e-01
5.729297e-01
5.728900e-01
5.728494e-01
5.728108e-01
5.727785e-01
5.727567e-01
5.727489e-01
5.727567e-01
5.727785e-01
5.728108e-01
5.728494e-01
5.728900e-01
5.729297e-01
5.729667e-01
0.000000e+00
1.000000e+00
5.730548e-01
5.731157e-01
5.731810e-01
5.732479e-01
5.733112e-01
5.733645e-01
5.734004e-01
5.734131e-01
5.734004e-01
5.733645e-01
5.733112e-01
5.732479e-01
5.731810e-01
5.731157e-01
5.730548e-01
0.000000e+00
1.000000e+00
5.731244e-01
5.732625e-01
5.734107e-01
5.735624e-01
5.737062e-01
5.738270e-01
5.739085e-01
5.739373e-01
5.739085e-01
5.738270e-01
5.737062e-01
5.735624e-01
5.734107e-01
5.732625e-01
5.731244e-01
0.000000e+00
1.000000e+00
5.731724e-01
5.733637e-01
5.735692e-01
5.737794e-01
5.739787e-01
5.741461e-01
5.742590e-01
5.742990e-01
5.742590e-01
5.741461e-01
5.739787e-01
5.737794e-01
5.735692e-01
5.733637e-01
5.731724e-01
0.000000e+00
1.000000e+00
5.731975e-01
5.734166e-01
5.736520e-01
5.738927e-01
5.741210e-01
5.743128e-01
5.744421e-01
5.744879e-01
5.744421e-01
5.743128e-01
5.741210e-01
5.738927e-01
5.736520e-01
5.734166e-01
5.731975e-01
0.000000e+00
1.000000e+00
5.732000e-01
5.734218e-01
5.736601e-01
5.739039e-01
5.741350e-01
5.743292e-01
5.744601e-01
5.745065e-01
5.744601e-01
5.743292e-01
5.741350e-01
5.739039e-01
5.736601e-01
5.734218e-01
5.732000e-01
0.000000e+00
1.000000e+00
5.731816e-01
5.733831e-01
5.735996e-01
5.738209e-01
5.740309e-01
5.742073e-01
5.743261e-01
5.743682e-01
5.743261e-01
5.742073e-01
5.740309e-01
5.738209e-01
5.735996e-01
5.733831e-01
5.731816e-01
0.000000e+00
1.000000e+00
5.731453e-01
5.733066e-01
5.734798e-01
5.736569e-01
5.738249e-01
5.739661e-01
5.740612e-01
5.740949e-01
5.740612e-01
5.739661e-01
5.738249e-01
5.736569e-01
5.734798e-01
5.733066e-01
5.731453e-01
0.000000e+00
1.000000e+00
5.730947e-01
5.731996e-01
5.733124e-01
5.734278e-01
5.735372e-01
5.736291e-01
5.736910e-01
5.737130e-01
5.736910e-01
5.736291e-01
5.735372e-01
5.734278e-01
5.733124e-01
5.731996e-01
5.730947e-01
0.000000e+00
1.000000e+00
5.730333e-01
5.730702e-01
5.731099e-01
5.731504e-01
5.731889e-01
5.732212e-01
5.732430e-01
5.732507e-01
5.732430e-01
5.732212e-01
5.731889e-01
5.731504e-01
5.731099e-01
5.730702e-01
5.730333e-01
0.000000e+00
1.000000e+00
5.721667e-01
5.712423e-01
5.702492e-01
5.692335e-01
5.682703e-01
5.674610e-01
5.669156e-01
5.667225e-01
5.669156e-01
5.674610e-01
5.682703e-01
5.692335e-01
5.702492e-01
5.712423e-01
5.721667e-01
0.000000e+00
1.000000e+00
5.722460e-01
5.714095e-01
5.705109e-01
5.695918e-01
5.687203e-01
5.679880e-01
5.674945e-01
5.673197e-01
5.674945e-01
5.679880e-01
5.687203e-01
5.695918e-01
5.705109e-01
5.714095e-01
5.722460e-01
0.000000e+00
1.000000e+00
5.723387e-01
5.716051e-01
5.708170e-01
5.700109e-01
5.692466e-01
5.686043e-01
5.681715e-01
5.680182e-01
5.681715e-01
5.686043e-01
5.692466e-01
5.700109e-01
5.708170e-01
5.716051e-01
5.723387e-01
0.000000e+00
1.000000e+00
5.724428e-01
5.718246e-01
5.711604e-01
5.704812e-01
5.698371e-01
5.692959e-01
5.689312e-01
5.688020e-01
5.689312e-01
5.692959e-01
5.698371e-01
5.704812e-01
5.711604e-01
5.718246e-01
5.724428e-01
0.000000e+00
1.000000e+00
5.725547e-01
5.720607e-01
5.715300e-01
5.709872e-01
5.704726e-01
5.700401e-01
5.697486e-01
5.696454e-01
5.697486e-01
5.700401e-01
5.704726e-01
5.709872e-01
5.715300e-01
5.720607e-01
5.725547e-01
0.000000e+00
1.000000e+00
5.726700e-01
5.723039e-01
5.719106e-01
5.715083e-01
5.711269e-01
5.708063e-01
5.705903e-01
5.705138e-01
5.705903e-01
5.708063e-01
5.711269e-01
5.715083e-01
5.719106e-01
5.723039e-01
5.726700e-01
0.000000e+00
1.000000e+00
5.727831e-01
5.725424e-01
5.722838e-01
5.720194e-01
5.717687e-01
5.715580e-01
5.714160e-01
5.713657e-01
5.714160e-01
5.715580e-01
5.717687e-01
5.720194e-01
5.722838e-01
5.725424e-01
5.727831e-01
0.000000e+00
1.000000e+00
5.728880e-01
5.727637e-01
5.726302e-01
5.724937e-01
5.723642e-01
5.722554e-01
5.721821e-01
5.721562e-01
5.721821e-01
5.722554e-01
5.723642e-01
5.724937e-01
5.726302e-01
5.727637e-01
5.728880e-01
0.000000e+00
1.000000e+00
5.729790e-01
5.729558e-01
5.729308e-01
5.729052e-01
5.728810e-01
5.728606e-01
5.728469e-01
5.728421e-01
5.728469e-01
5.728606e-01
5.728810e-01
5.729052e-01
5.729308e-01
5.729558e-01
5.729790e-01
0.000000e+00
1.000000e+00
5.730514e-01
5.731084e-01
5.731696e-01
5.732322e-01
5.732915e-01
5.733414e-01
5.733750e-01
5.733869e-01
5.733750e-01
5.733414e-01
5.732915e-01
5.732322e-01
5.731696e-01
5.731084e-01
5.730514e-01
0.000000e+00
1.000000e+00
5.731016e-01
5.732143e-01
5.733354e-01
5.734593e-01
5.735767e-01
5.736754e-01
5.737419e-01
5.737655e-01
5.737419e-01
5.736754e-01
5.735767e-01
5.734593e-01
5.733354e-01
5.732143e-01
5.731016e-01
0.000000e+00
1.000000e+00
5.731282e-01
5.732705e-01
5.734233e-01
5.735796e-01
5.737278e-01
5.738523e-01
5.739362e-01
5.739659e-01
5.739362e-01
5.738523e-01
5.737278e-01
5.735796e-01
5.734233e-01
5.732705e-01
5.731282e-01
0.000000e+00
1.000000e+00
5.731315e-01
5.732774e-01
5.734341e-01
5.735943e-01
5.737463e-01
5.738740e-01
5.739601e-01
5.739906e-01
5.739601e-01
5.738740e-01
5.737463e-01
5.735943e-01
5.734341e-01
5.732774e-01
5.731315e-01
0.000000e+00
1.000000e+00
5.731133e-01
5.732390e-01
5.733741e-01
5.735122e-01
5.736432e-01
5.737533e-01
5.738274e-01
5.738537e-01
5.738274e-01
5.737533e-01
5.736432e-01
5.735122e-01
5.733741e-01
5.732390e-01
5.731133e-01
0.000000e+00
1.000000e+00
5.730768e-01
5.731620e-01
5.732536e-01
5.733472e-01
5.734359e-01
5.735105e-01
5.735608e-01
5.735786e-01
5.735608e-01
5.735105e-01
5.734359e-01
5.733472e-01
5.732536e-01
5.731620e-01
5.730768e-01
0.000000e+00
1.000000e+00
5.730257e-01
5.730542e-01
5.730849e-01
5.731162e-01
5.731459e-01
5.731709e-01
5.731877e-01
5.731937e-01
5.731877e-01
5.731709e-01
5.731459e-01
5.731162e-01
5.730849e-01
5.730542e-01
5.730257e-01
0.000000e+00
1.000000e+00
5.729640e-01
5.729241e-01
5.728811e-01
5.728373e-01
5.727956e-01
5.727607e-01
5.727371e-01
5.727287e-01
5.727371e-01
5.727607e-01
5.727956e-01
5.728373e-01
5.728811e-01
5.729241e-01
5.729640e-01
0.000000e+00
1.000000e+00
5.721116e-01
5.711260e-01
5.700673e-01
5.689844e-01
5.679576e-01
5.670947e-01
5.665132e-01
5.663073e-01
5.665132e-01
5.670947e-01
5.679576e-01
5.689844e-01
5.700673e-01
5.711260e-01
5.721116e-01
0.000000e+00
1.000000e+00
5.721850e-01
5.712807e-01
5.703093e-01
5.693159e-01
5.683738e-01
5.675821e-01
5.670487e-01
5.668598e-01
5.670487e-01
5.675821e-01
5.683738e-01
5.693159e-01
5.703093e-01
5.712807e-01
5.721850e-01
0.000000e+00
1.000000e+00
5.722730e-01
5.714664e-01
5.705999e-01
5.697137e-01
5.688734e-01
5.681673e-01
5.676914e-01
5.675229e-01
5.676914e-01
5.681673e-01
5.688734e-01
5.697137e-01
5.705999e-01
5.714664e-01
5.722730e-01
0.000000e+00
1.000000e+00
5.723738e-01
5.716791e-01
5.709328e-01
5.701695e-01
5.694457e-01
5.688375e-01
5.684277e-01
5.682825e-01
5.684277e-01
5.688375e-01
5.694457e-01
5.701695e-01
5.709328e-01
5.716791e-01
5.723738e-01
0.000000e+00
1.000000e+00
5.724841e-01
5.719118e-01
5.712970e-01
5.706682e-01
5.700720e-01
5.695709e-01
5.692333e-01
5.691137e-01
5.692333e-01
5.695709e-01
5.700720e-01
5.706682e-01
5.712970e-01
5.719118e-01
5.724841e-01
0.000000e+00
1.000000e+00
5.725993e-01
5.721548e-01
5.716772e-01
5.711888e-01
5.707257e-01
5.703365e-01
5.700743e-01
5.699814e-01
5.700743e-01
5.703365e-01
5.707257e-01
5.711888e-01
5.716772e-01
5.721548e-01
5.725993e-01
0.000000e+00
1.000000e+00
5.727136e-01
5.723958e-01
5.720544e-01
5.717053e-01
5.713742e-01
5.710960e-01
5.709085e-01
5.708421e-01
5.709085e-01
5.710960e-01
5.713742e-01
5.717053e-01
5.720544e-01
5.723958e-01
5.727136e-01
0.000000e+00
1.000000e+00
5.728206e-01
5.726215e-01
5.724076e-01
5.721889e-01
5.719814e-01
5.718071e-01
5.716897e-01
5.716481e-01
5.716897e-01
5.718071e-01
5.719814e-01
5.721889e-01
5.724076e-01
5.726215e-01
5.728206e-01
0.000000e+00
1.000000e+00
5.729141e-01
5.728187e-01
5.727163e-01
5.726115e-01
5.725121e-01
5.724286e-01
5.723724e-01
5.723525e-01
5.723724e-01
5.724286e-01
5.725121e-01
5.726115e-01
5.727163e-01
5.728187e-01
5.729141e-01
0.000000e+00
1.000000e+00
5.729888e-01
5.729763e-01
5.729629e-01
5.729492e-01
5.729362e-01
5.729252e-01
5.729179e-01
5.729153e-01
5.729179e-01
5.729252e-01
5.729362e-01
5.729492e-01
5.729629e-01
5.729763e-01
5.729888e-01
0.000000e+00
1.000000e+00
5.730409e-01
5.730863e-01
5.731351e-01
5.731850e-01
5.732323e-01
5.732721e-01
5.732989e-01
5.733083e-01
5.732989e-01
5.732721e-01
5.732323e-01
5.731850e-01
5.731351e-01
5.730863e-01
5.730409e-01
0.000000e+00
1.000000e+00
5.730688e-01
5.731452e-01
5.732272e-01
5.733111e-01
5.733906e-01
5.734575e-01
5.735025e-01
5.735184e-01
5.735025e-01
5.734575e-01
5.733906e-01
5.733111e-01
5.732272e-01
5.731452e-01
5.730688e-01
0.000000e+00
1.000000e+00
5.730727e-01
5.731533e-01
5.732399e-01
5.733285e-01
5.734125e-01
5.734831e-01
5.735307e-01
5.735476e-01
5.735307e-01
5.734831e-01
5.734125e-01
5.733285e-01
5.732399e-01
5.731533e-01
5.730727e-01
0.000000e+00
1.000000e+00
5.730546e-01
5.731151e-01
5.731801e-01
5.732465e-01
5.733096e-01
5.733625e-01
5.733982e-01
5.734109e-01
5.733982e-01
5.733625e-01
5.733096e-01
5.732465e-01
5.731801e-01
5.731151e-01
5.730546e-01
0.000000e+00
1.000000e+00
5.730177e-01
5.730373e-01
5.730584e-01
5.730800e-01
5.731004e-01
5.731176e-01
5.731292e-01
5.731333e-01
5.731292e-01
5.731176e-01
5.731004e-01
5.730800e-01
5.730584e-01
5.730373e-01
5.730177e-01
0.000000e+00
1.000000e+00
5.729661e-01
5.729285e-01
5.728882e-01
5.728469e-01
5.728077e-01
5.727748e-01
5.727526e-01
5.727448e-01
5.727526e-01
5.727748e-01
5.728077e-01
5.728469e-01
5.728882e-01
5.729285e-01
5.729661e-01
0.000000e+00
1.000000e+00
5.729040e-01
5.727975e-01
5.726831e-01
5.725661e-01
5.724552e-01
5.723619e-01
5.722991e-01
5.722768e-01
5.722991e-01
5.723619e-01
5.724552e-01
5.725661e-01
5.726831e-01
5.727975e-01
5.729040e-01
0.000000e+00
1.000000e+00
5.720747e-01
5.710482e-01
5.699455e-01
5.688176e-01
5.677482e-01
5.668494e-01
5.662439e-01
5.660294e-01
5.662439e-01
5.668494e-01
5.677482e-01
5.688176e-01
5.699455e-01
5.710482e-01
5.720747e-01
0.000000e+00
1.000000e+00
5.721423e-01
5.711907e-01
5.701685e-01
5.691230e-01
5.681316e-01
5.672986e-01
5.667372e-01
5.665384e-01
5.667372e-01
5.672986e-01
5.681316e-01
5.691230e-01
5.701685e-01
5.711907e-01
5.721423e-01
0.000000e+00
1.000000e+00
5.722256e-01
5.713665e-01
5.704436e-01
5.694997e-01
5.686047e-01
5.678525e-01
5.673457e-01
5.671662e-01
5.673457e-01
5.678525e-01
5.686047e-01
5.694997e-01
5.704436e-01
5.713665e-01
5.722256e-01
0.000000e+00
1.000000e+00
5.723231e-01
5.715721e-01
5.707653e-01
5.699402e-01
5.691578e-01
5.685003e-01
5.680573e-01
5.679004e-01
5.680573e-01
5.685003e-01
5.691578e-01
5.699402e-01
5.707653e-01
5.715721e-01
5.723231e-01
0.000000e+00
1.000000e+00
5.724315e-01
5.718008e-01
5.711232e-01
5.704303e-01
5.697732e-01
5.692210e-01
5.688489e-01
5.687171e-01
5.688489e-01
5.692210e-01
5.697732e-01
5.704303e-01
5.711232e-01
5.718008e-01
5.724315e-01
0.000000e+00
1.000000e+00
5.725462e-01
5.720427e-01
5.715018e-01
5.709486e-01
5.704241e-01
5.699833e-01
5.696863e-01
5.695811e-01
5.696863e-01
5.699833e-01
5.704241e-01
5.709486e-01
5.715018e-01
5.720427e-01
5.725462e-01
0.000000e+00
1.000000e+00
5.726612e-01
5.722852e-01
5.718814e-01
5.714683e-01
5.710767e-01
5.707475e-01
5.705258e-01
5.704472e-01
5.705258e-01
5.707475e-01
5.710767e-01
5.714683e-01
5.718814e-01
5.722852e-01
5.726612e-01
0.000000e+00
1.000000e+00
5.727697e-01
5.725142e-01
5.722397e-01
5.719590e-01
5.716928e-01
5.714691e-01
5.713184e-01
5.712650e-01
5.713184e-01
5.714691e-01
5.716928e-01
5.719590e-01
5.722397e-01
5.725142e-01
5.727697e-01
0.000000e+00
1.000000e+00
5.728652e-01
5.727156e-01
5.725548e-01
5.723905e-01
5.722346e-01
5.721036e-01
5.720153e-01
5.719841e-01
5.720153e-01
5.721036e-01
5.722346e-01
5.723905e-01
5.725548e-01
5.727156e-01
5.728652e-01
0.000000e+00
1.000000e+00
5.729418e-01
5.728771e-01
5.728077e-01
5.727367e-01
5.726694e-01
5.726128e-01
5.725747e-01
5.725611e-01
5.725747e-01
5.726128e-01
5.726694e-01
5.727367e-01
5.728077e-01
5.728771e-01
5.729418e-01
0.000000e+00
1.000000e+00
5.729954e-01
5.729903e-01
5.729848e-01
5.729792e-01
5.729739e-01
5.729694e-01
5.729664e-01
5.729654e-01
5.729664e-01
5.729694e-01
5.729739e-01
5.729792e-01
5.729848e-01
5.729903e-01
5.729954e-01
0.000000e+00
1.000000e+00
5.730242e-01
5.730510e-01
5.730797e-01
5.731092e-01
5.731371e-01
5.731605e-01
5.731764e-01
5.731819e-01
5.731764e-01
5.731605e-01
5.731371e-01
5.731092e-01
5.730797e-01
5.730510e-01
5.730242e-01
0.000000e+00
1.000000e+00
5.730282e-01
5.730596e-01
5.730932e-01
5.731276e-01
5.731602e-01
5.731877e-01
5.732061e-01
5.732127e-01
5.732061e-01
5.731877e-01
5.731602e-01
5.731276e-01
5.730932e-01
5.730596e-01
5.730282e-01
0.000000e+00
1.000000e+00
5.730098e-01
5.730206e-01
5.730323e-01
5.730442e-01
5.730555e-01
5.730650e-01
5.730714e-01
5.730737e-01
5.730714e-01
5.730650e-01
5.730555e-01
5.730442e-01
5.730323e-01
5.730206e-01
5.730098e-01
0.000000e+00
1.000000e+00
5.729723e-01
5.729415e-01
5.729085e-01
5.728747e-01
5.728427e-01
5.728157e-01
5.727976e-01
5.727912e-01
5.727976e-01
5.728157e-01
5.728427e-01
5.728747e-01
5.729085e-01
5.729415e-01
5.729723e-01
0.000000e+00
1.000000e+00
5.729200e-01
5.728312e-01
5.727358e-01
5.726382e-01
5.725457e-01
5.724680e-01
5.724156e-01
5.723970e-01
5.724156e-01
5.724680e-01
5.725457e-01
5.726382e-01
5.727358e-01
5.728312e-01
5.729200e-01
0.000000e+00
1.000000e+00
5.728572e-01
5.726987e-01
5.725285e-01
5.723544e-01
5.721894e-01
5.720507e-01
5.719572e-01
5.719241e-01
5.719572e-01
5.720507e-01
5.721894e-01
5.723544e-01
5.725285e-01
5.726987e-01
5.728572e-01
0.000000e+00
1.000000e+00
5.720592e-01
5.710155e-01
5.698942e-01
5.687474e-01
5.676600e-01
5.667462e-01
5.661305e-01
5.659124e-01
5.661305e-01
5.667462e-01
5.676600e-01
5.687474e-01
5.698942e-01
5.710155e-01
5.720592e-01
0.000000e+00
1.000000e+00
5.721217e-01
5.711473e-01
5.701005e-01
5.690298e-01
5.680146e-01
5.671615e-01
5.665867e-01
5.663831e-01
5.665867e-01
5.671615e-01
5.680146e-01
5.690298e-01
5.701005e-01
5.711472e-01
5.721217e-01
0.000000e+00
1.000000e+00
5.722008e-01
5.713141e-01
5.703616e-01
5.693875e-01
5.684637e-01
5.676874e-01
5.671644e-01
5.669791e-01
5.671644e-01
5.676874e-01
5.684637e-01
5.693875e-01
5.703616e-01
5.713141e-01
5.722008e-01
0.000000e+00
1.000000e+00
5.722951e-01
5.715131e-01
5.706731e-01
5.698139e-01
5.689992e-01
5.683145e-01
5.678532e-01
5.676898e-01
5.678532e-01
5.683145e-01
5.689992e-01
5.698139e-01
5.706731e-01
5.715131e-01
5.722951e-01
0.000000e+00
1.000000e+00
5.724017e-01
5.717379e-01
5.710247e-01
5.702954e-01
5.696038e-01
5.690227e-01
5.686310e-01
5.684923e-01
5.686310e-01
5.690227e-01
5.696038e-01
5.702954e-01
5.710247e-01
5.717378e-01
5.724017e-01
0.000000e+00
1.000000e+00
5.725157e-01
5.719784e-01
5.714012e-01
5.708108e-01
5.702510e-01
5.697806e-01
5.694636e-01
5.693513e-01
5.694636e-01
5.697806e-01
5.702510e-01
5.708108e-01
5.714012e-01
5.719784e-01
5.725157e-01
0.000000e+00
1.000000e+00
5.726310e-01
5.722217e-01
5.717820e-01
5.713322e-01
5.709058e-01
5.705474e-01
5.703059e-01
5.702204e-01
5.703059e-01
5.705474e-01
5.709058e-01
5.713322e-01
5.717820e-01
5.722217e-01
5.726310e-01
0.000000e+00
1.000000e+00
5.727407e-01
5.724530e-01
5.721440e-01
5.718279e-01
5.715282e-01
5.712764e-01
5.711067e-01
5.710465e-01
5.711067e-01
5.712764e-01
5.715282e-01
5.718279e-01
5.721440e-01
5.724530e-01
5.727407e-01
0.000000e+00
1.000000e+00
5.728376e-01
5.726574e-01
5.724638e-01
5.722658e-01
5.720781e-01
5.719203e-01
5.718140e-01
5.717763e-01
5.718140e-01
5.719203e-01
5.720781e-01
5.722658e-01
5.724638e-01
5.726574e-01
5.728376e-01
0.000000e+00
1.000000e+00
5.729155e-01
5.728217e-01
5.727210e-01
5.726180e-01
5.725203e-01
5.724382e-01
5.723829e-01
5.723633e-01
5.723829e-01
5.724382e-01
5.725203e-01
5.726180e-01
5.727210e-01
5.728217e-01
5.729155e-01
0.000000e+00
1.000000e+00
5.729700e-01
5.729368e-01
5.729010e-01
5.728645e-01
5.728298e-01
5.728007e-01
5.727811e-01
5.727741e-01
5.727811e-01
5.728007e-01
5.728298e-01
5.728645e-01
5.729010e-01
5.729368e-01
5.729700e-01
0.000000e+00
1.000000e+00
5.729990e-01
5.729980e-01
5.729968e-01
5.729957e-01
5.729945e-01
5.729936e-01
5.729930e-01
5.729927e-01
5.729930e-01
5.729936e-01
5.729945e-01
5.729957e-01
5.729968e-01
5.729980e-01
5.729990e-01
0.000000e+00
1.000000e+00
5.730028e-01
5.730058e-01
5.730091e-01
5.730125e-01
5.730157e-01
5.730184e-01
5.730202e-01
5.730208e-01
5.730202e-01
5.730184e-01
5.730157e-01
5.730125e-01
5.730091e-01
5.730058e-01
5.730028e-01
0.000000e+00
1.000000e+00
5.729835e-01
5.729651e-01
5.729454e-01
5.729252e-01
5.729061e-01
5.728900e-01
5.728792e-01
5.728754e-01
5.728792e-01
5.728900e-01
5.729061e-01
5.729252e-01
5.729454e-01
5.729651e-01
5.729835e-01
0.000000e+00
1.000000e+00
5.729448e-01
5.728836e-01
5.728178e-01
5.727505e-01
5.726867e-01
5.726331e-01
5.725969e-01
5.725842e-01
5.725969e-01
5.726331e-01
5.726867e-01
5.727505e-01
5.728178e-01
5.728836e-01
5.729448e-01
0.000000e+00
1.000000e+00
5.728912e-01
5.727706e-01
5.726409e-01
5.725083e-01
5.723826e-01
5.722769e-01
5.722057e-01
5.721805e-01
5.722057e-01
5.722769e-01
5.723826e-01
5.725083e-01
5.726409e-01
5.727706e-01
5.728912e-01
0.000000e+00
1.000000e+00
5.728273e-01
5.726357e-01
5.724298e-01
5.722193e-01
5.720196e-01
5.718519e-01
5.717388e-01
5.716988e-01
5.717388e-01
5.718519e-01
5.720196e-01
5.722193e-01
5.724298e-01
5.726357e-01
5.728273e-01
0.000000e+00
1.000000e+00
5.720673e-01
5.710325e-01
5.699208e-01
5.687839e-01
5.677058e-01
5.667999e-01
5.661894e-01
5.659732e-01
5.661894e-01
5.667999e-01
5.677058e-01
5.687839e-01
5.699208e-01
5.710325e-01
5.720673e-01
0.000000e+00
1.000000e+00
5.721258e-01
5.711560e-01
5.701141e-01
5.690485e-01
5.680381e-01
5.671890e-01
5.666169e-01
5.664142e-01
5.666169e-01
5.671890e-01
5.680381e-01
5.690485e-01
5.701141e-01
5.711560e-01
5.721258e-01
0.000000e+00
1.000000e+00
5.722016e-01
5.713159e-01
5.703645e-01
5.693913e-01
5.684686e-01
5.676931e-01
5.671706e-01
5.669855e-01
5.671706e-01
5.676931e-01
5.684686e-01
5.693913e-01
5.703645e-01
5.713159e-01
5.722016e-01
0.000000e+00
1.000000e+00
5.722935e-01
5.715098e-01
5.706678e-01
5.698067e-01
5.689901e-01
5.683039e-01
5.678416e-01
5.676778e-01
5.678416e-01
5.683039e-01
5.689901e-01
5.698067e-01
5.706678e-01
5.715098e-01
5.722935e-01
0.000000e+00
1.000000e+00
5.723986e-01
5.717313e-01
5.710145e-01
5.702814e-01
5.695863e-01
5.690021e-01
5.686085e-01
5.684691e-01
5.686085e-01
5.690021e-01
5.695863e-01
5.702814e-01
5.710145e-01
5.717313e-01
5.723986e-01
0.000000e+00
1.000000e+00
5.725120e-01
5.719707e-01
5.713891e-01
5.707943e-01
5.702303e-01
5.697563e-01
5.694370e-01
5.693238e-01
5.694370e-01
5.697563e-01
5.702303e-01
5.707943e-01
5.713891e-01
5.719707e-01
5.725120e-01
0.000000e+00
1.000000e+00
5.726276e-01
5.722145e-01
5.717707e-01
5.713168e-01
5.708864e-01
5.705247e-01
5.702810e-01
5.701946e-01
5.702810e-01
5.705247e-01
5.708864e-01
5.713168e-01
5.717707e-01
5.722145e-01
5.726276e-01
0.000000e+00
1.000000e+00
5.727380e-01
5.724474e-01
5.721351e-01
5.718158e-01
5.715129e-01
5.712585e-01
5.710870e-01
5.710263e-01
5.710870e-01
5.712585e-01
5.715129e-01
5.718158e-01
5.721351e-01
5.724474e-01
5.727380e-01
0.000000e+00
1.000000e+00
5.728358e-01
5.726535e-01
5.724578e-01
5.722576e-01
5.720677e-01
5.719082e-01
5.718007e-01
5.717626e-01
5.718007e-01
5.719082e-01
5.720677e-01
5.722576e-01
5.724578e-01
5.726535e-01
5.728358e-01
0.000000e+00
1.000000e+00
5.729143e-01
5.728193e-01
5.727172e-01
5.726127e-01
5.725137e-01
5.724305e-01
5.723744e-01
5.723545e-01
5.723744e-01
5.724305e-01
5.725137e-01
5.726127e-01
5.727172e-01
5.728193e-01
5.729143e-01
0.000000e+00
1.000000e+00
5.729690e-01
5.729347e-01
5.728978e-01
5.728600e-01
5.728242e-01
5.727941e-01
5.727738e-01
5.727667e-01
5.727738e-01
5.727941e-01
5.728242e-01
5.728600e-01
5.728978e-01
5.729347e-01
5.729690e-01
0.000000e+00
1.000000e+00
5.729976e-01
5.729949e-01
5.729921e-01
5.729891e-01
5.729863e-01
5.729840e-01
5.729824e-01
5.729819e-01
5.729824e-01
5.729840e-01
5.729863e-01
5.729891e-01
5.729921e-01
5.729949e-01
5.729976e-01
0.000000e+00
1.000000e+00
5.730003e-01
5.730005e-01
5.730008e-01
5.730011e-01
5.730014e-01
5.730017e-01
5.730018e-01
5.730019e-01
5.730018e-01
5.730017e-01
5.730014e-01
5.730011e-01
5.730008e-01
5.730005e-01
5.730003e-01
0.000000e+00
1.000000e+00
5.729794e-01
5.729565e-01
5.729319e-01
5.729068e-01
5.728830e-01
5.728629e-01
5.728495e-01
5.728447e-01
5.728495e-01
5.728629e-01
5.728830e-01
5.729068e-01
5.729319e-01
5.729565e-01
5.729794e-01
0.000000e+00
1.000000e+00
5.729389e-01
5.728711e-01
5.727982e-01
5.727237e-01
5.726530e-01
5.725936e-01
5.725536e-01
5.725395e-01
5.725536e-01
5.725936e-01
5.726530e-01
5.727237e-01
5.727982e-01
5.728711e-01
5.729389e-01
0.000000e+00
1.000000e+00
5.728834e-01
5.727539e-01
5.726149e-01
5.724727e-01
5.723378e-01
5.722245e-01
5.721482e-01
5.721211e-01
5.721482e-01
5.722245e-01
5.723378e-01
5.724727e-01
5.726149e-01
5.727539e-01
5.728834e-01
0.000000e+00
1.000000e+00
5.728175e-01
5.726151e-01
5.723976e-01
5.721752e-01
5.719643e-01
5.717870e-01
5.716676e-01
5.716253e-01
5.716676e-01
5.717870e-01
5.719643e-01
5.721752e-01
5.723976e-01
5.726151e-01
5.728175e-01
0.000000e+00
1.000000e+00
5.720998e-01
5.711011e-01
5.700283e-01
5.689310e-01
5.678905e-01
5.670162e-01
5.664270e-01
5.662183e-01
5.664270e-01
5.670162e-01
5.678905e-01
5.689310e-01
5.700283e-01
5.711011e-01
5.720998e-01
0.000000e+00
1.000000e+00
5.721560e-01
5.712196e-01
5.702136e-01
5.691848e-01
5.682093e-01
5.673894e-01
5.668370e-01
5.666414e-01
5.668370e-01
5.673894e-01
5.682093e-01
5.691848e-01
5.702136e-01
5.712196e-01
5.721560e-01
0.000000e+00
1.000000e+00
5.722298e-01
5.713754e-01
5.704575e-01
5.695187e-01
5.686285e-01
5.678804e-01
5.673763e-01
5.671978e-01
5.673763e-01
5.678804e-01
5.686285e-01
5.695187e-01
5.704575e-01
5.713754e-01
5.722298e-01
0.000000e+00
1.000000e+00
5.723203e-01
5.715662e-01
5.707561e-01
5.699276e-01
5.691420e-01
5.684818e-01
5.680369e-01
5.678793e-01
5.680369e-01
5.684818e-01
5.691420e-01
5.699276e-01
5.707561e-01
5.715662e-01
5.723203e-01
0.000000e+00
1.000000e+00
5.724245e-01
5.717861e-01
5.711002e-01
5.703987e-01
5.697335e-01
5.691746e-01
5.687979e-01
5.686645e-01
5.687979e-01
5.691746e-01
5.697335e-01
5.703987e-01
5.711002e-01
5.717861e-01
5.724245e-01
0.000000e+00
1.000000e+00
5.725378e-01
5.720249e-01
5.714740e-01
5.709106e-01
5.703763e-01
5.699273e-01
5.696247e-01
5.695176e-01
5.696247e-01
5.699273e-01
5.703763e-01
5.709106e-01
5.714740e-01
5.720249e-01
5.725378e-01
0.000000e+00
1.000000e+00
5.726536e-01
5.722692e-01
5.718563e-01
5.714340e-01
5.710336e-01
5.706971e-01
5.704703e-01
5.703900e-01
5.704703e-01
5.706971e-01
5.710336e-01
5.714340e-01
5.718563e-01
5.722692e-01
5.726536e-01
0.000000e+00
1.000000e+00
5.727644e-01
5.725030e-01
5.722222e-01
5.719349e-01
5.716626e-01
5.714337e-01
5.712795e-01
5.712249e-01
5.712795e-01
5.714337e-01
5.716626e-01
5.719349e-01
5.722222e-01
5.725030e-01
5.727644e-01
0.000000e+00
1.000000e+00
5.728625e-01
5.727099e-01
5.725460e-01
5.723783e-01
5.722194e-01
5.720858e-01
5.719958e-01
5.719639e-01
5.719958e-01
5.720858e-01
5.722194e-01
5.723783e-01
5.725460e-01
5.727099e-01
5.728625e-01
0.000000e+00
1.000000e+00
5.729410e-01
5.728756e-01
5.728053e-01
5.727334e-01
5.726652e-01
5.726079e-01
5.725693e-01
5.725557e-01
5.725693e-01
5.726079e-01
5.726652e-01
5.727334e-01
5.728053e-01
5.728756e-01
5.729410e-01
0.000000e+00
1.000000e+00
5.729952e-01
5.729898e-01
5.729840e-01
5.729780e-01
5.729724e-01
5.729677e-01
5.729645e-01
5.729634e-01
5.729645e-01
5.729677e-01
5.729724e-01
5.729780e-01
5.729840e-01
5.729898e-01
5.729952e-01
0.000000e+00
1.000000e+00
5.730225e-01
5.730474e-01
5.730742e-01
5.731016e-01
5.731275e-01
5.731493e-01
5.731640e-01
5.731693e-01
5.731640e-01
5.731493e-01
5.731275e-01
5.731016e-01
5.730742e-01
5.730474e-01
5.730225e-01
0.000000e+00
1.000000e+00
5.730233e-01
5.730491e-01
5.730768e-01
5.731052e-01
5.731321e-01
5.731547e-01
5.731699e-01
5.731753e-01
5.731699e-01
5.731547e-01
5.731321e-01
5.731052e-01
5.730768e-01
5.730491e-01
5.730233e-01
0.000000e+00
1.000000e+00
5.730001e-01
5.730001e-01
5.730002e-01
5.730003e-01
5.730004e-01
5.730004e-01
5.730005e-01
5.730005e-01
5.730005e-01
5.730004e-01
5.730004e-01
5.730003e-01
5.730002e-01
5.730001e-01
5.730001e-01
0.000000e+00
1.000000e+00
5.729569e-01
5.729091e-01
5.728578e-01
5.728053e-01
5.727555e-01
5.727136e-01
5.726854e-01
5.726754e-01
5.726854e-01
5.727136e-01
5.727555e-01
5.728053e-01
5.728578e-01
5.729091e-01
5.729569e-01
0.000000e+00
1.000000e+00
5.728987e-01
5.727862e-01
5.726654e-01
5.725419e-01
5.724247e-01
5.723263e-01
5.722600e-01
5.722365e-01
5.722600e-01
5.723263e-01
5.724247e-01
5.725419e-01
5.726654e-01
5.727862e-01
5.728987e-01
0.000000e+00
1.000000e+00
5.728302e-01
5.726417e-01
5.724393e-01
5.722322e-01
5.720359e-01
5.718709e-01
5.717598e-01
5.717204e-01
5.717598e-01
5.718709e-01
5.720359e-01
5.722322e-01
5.724393e-01
5.726417e-01
5.728302e-01
0.000000e+00
1.000000e+00
5.721561e-01
5.712198e-01
5.702140e-01
5.691853e-01
5.682098e-01
5.673901e-01
5.668378e-01
5.666421e-01
5.668378e-01
5.673901e-01
5.682098e-01
5.691853e-01
5.702140e-01
5.712198e-01
5.721561e-01
0.000000e+00
1.000000e+00
5.722116e-01
5.713369e-01
5.703972e-01
5.694361e-01
5.685248e-01
5.677590e-01
5.672430e-01
5.670602e-01
5.672430e-01
5.677590e-01
5.685248e-01
5.694361e-01
5.703972e-01
5.713369e-01
5.722116e-01
0.000000e+00
1.000000e+00
5.722850e-01
5.714917e-01
5.706395e-01
5.697679e-01
5.689415e-01
5.682470e-01
5.677790e-01
5.676132e-01
5.677790e-01
5.682470e-01
5.689415e-01
5.697679e-01
5.706395e-01
5.714917e-01
5.722850e-01
0.000000e+00
1.000000e+00
5.723752e-01
5.716821e-01
5.709375e-01
5.701759e-01
5.694537e-01
5.688469e-01
5.684380e-01
5.682932e-01
5.684380e-01
5.688469e-01
5.694537e-01
5.701759e-01
5.709375e-01
5.716821e-01
5.723752e-01
0.000000e+00
1.000000e+00
5.724795e-01
5.719020e-01
5.712817e-01
5.706472e-01
5.700456e-01
5.695400e-01
5.691993e-01
5.690786e-01
5.691993e-01
5.695400e-01
5.700456e-01
5.706472e-01
5.712817e-01
5.719020e-01
5.724795e-01
0.000000e+00
1.000000e+00
5.725930e-01
5.721414e-01
5.716563e-01
5.711601e-01
5.706897e-01
5.702943e-01
5.700279e-01
5.699336e-01
5.700279e-01
5.702943e-01
5.706897e-01
5.711601e-01
5.716563e-01
5.721414e-01
5.725930e-01
0.000000e+00
1.000000e+00
5.727091e-01
5.723863e-01
5.720396e-01
5.716850e-01
5.713488e-01
5.710662e-01
5.708758e-01
5.708083e-01
5.708758e-01
5.710662e-01
5.713488e-01
5.716850e-01
5.720396e-01
5.723863e-01
5.727091e-01
0.000000e+00
1.000000e+00
5.728201e-01
5.726205e-01
5.724061e-01
5.721868e-01
5.719789e-01
5.718041e-01
5.716864e-01
5.716447e-01
5.716864e-01
5.718041e-01
5.719789e-01
5.721868e-01
5.724061e-01
5.726205e-01
5.728201e-01
0.000000e+00
1.000000e+00
5.729181e-01
5.728272e-01
5.727295e-01
5.726296e-01
5.725349e-01
5.724553e-01
5.724017e-01
5.723827e-01
5.724017e-01
5.724553e-01
5.725349e-01
5.726296e-01
5.727295e-01
5.728272e-01
5.729181e-01
0.000000e+00
1.000000e+00
5.729960e-01
5.729915e-01
5.729867e-01
5.729817e-01
5.729771e-01
5.729731e-01
5.729705e-01
5.729696e-01
5.729705e-01
5.729731e-01
5.729771e-01
5.729817e-01
5.729867e-01
5.729915e-01
5.729960e-01
0.000000e+00
1.000000e+00
5.730488e-01
5.731029e-01
5.731611e-01
5.732206e-01
5.732769e-01
5.733243e-01
5.733563e-01
5.733676e-01
5.733563e-01
5.733243e-01
5.732769e-01
5.732206e-01
5.731611e-01
5.731029e-01
5.730488e-01
0.000000e+00
1.000000e+00
5.730742e-01
5.731565e-01
5.732448e-01
5.733352e-01
5.734210e-01
5.734930e-01
5.735415e-01
5.735587e-01
5.735415e-01
5.734930e-01
5.734210e-01
5.733352e-01
5.732448e-01
5.731565e-01
5.730742e-01
0.000000e+00
1.000000e+00
5.730724e-01
5.731527e-01
5.732390e-01
5.733273e-01
5.734110e-01
5.734813e-01
5.735287e-01
5.735455e-01
5.735287e-01
5.734813e-01
5.734110e-01
5.733273e-01
5.732390e-01
5.731527e-01
5.730724e-01
0.000000e+00
1.000000e+00
5.730462e-01
5.730974e-01
5.731524e-01
5.732087e-01
5.732620e-01
5.733069e-01
5.733371e-01
5.733478e-01
5.733371e-01
5.733069e-01
5.732620e-01
5.732087e-01
5.731524e-01
5.730974e-01
5.730462e-01
0.000000e+00
1.000000e+00
5.729997e-01
5.729993e-01
5.729989e-01
5.729985e-01
5.729982e-01
5.729979e-01
5.729976e-01
5.729976e-01
5.729976e-01
5.729979e-01
5.729982e-01
5.729985e-01
5.729989e-01
5.729993e-01
5.729997e-01
0.000000e+00
1.000000e+00
5.729379e-01
5.728691e-01
5.727951e-01
5.727195e-01
5.726477e-01
5.725874e-01
5.725468e-01