<?xml version="1.0"?>
<VTKFile type="StructuredGrid" version="0.1">
  <StructuredGrid WholeExtent="0 16 0 16 0 16">
    <Piece Extent="0 16 0 16 0 16">
      <PointData Scalars="temperature" Vectors="velocity">
        <DataArray type="Float32" Name="temperature" format="ascii">
1.000000e+00
5.718895e-01
5.715445e-01
5.706627e-01
5.697924e-01
5.689674e-01
5.682754e-01
5.678120e-01
5.676528e-01
5.678180e-01
5.682898e-01
5.689845e-01
5.698077e-01
5.706750e-01
5.717717e-01
5.711145e-01
0.000000e+00
1.000000e+00
5.719901e-01
5.717461e-01
5.709504e-01
5.701863e-01
5.694616e-01
5.688539e-01
5.684478e-01
5.683094e-01
5.684539e-01
5.688690e-01
5.694800e-01
5.702005e-01
5.709634e-01
5.721309e-01
5.708254e-01
0.000000e+00
1.000000e+00
5.721210e-01
5.719583e-01
5.712729e-01
5.706282e-01
5.700167e-01
5.695039e-01
5.691615e-01
5.690461e-01
5.691691e-01
5.695178e-01
5.700352e-01
5.706433e-01
5.712897e-01
5.726183e-01
5.703655e-01
0.000000e+00
1.000000e+00
5.722815e-01
5.721848e-01
5.716233e-01
5.711077e-01
5.706186e-01
5.702083e-01
5.699345e-01
5.698430e-01
5.699439e-01
5.702198e-01
5.706351e-01
5.711222e-01
5.716393e-01
5.728980e-01
5.699509e-01
0.000000e+00
1.000000e+00
5.724882e-01
5.724095e-01
5.719885e-01
5.716074e-01
5.712459e-01
5.709425e-01
5.707399e-01
5.706728e-01
5.707502e-01
5.709520e-01
5.712587e-01
5.716194e-01
5.719996e-01
5.729548e-01
5.701335e-01
0.000000e+00
1.000000e+00
5.727165e-01
5.726284e-01
5.723528e-01
5.721063e-01
5.718723e-01
5.716758e-01
5.715443e-01
5.715012e-01
5.715534e-01
5.716836e-01
5.718802e-01
5.721145e-01
5.723587e-01
5.729781e-01
5.707359e-01
0.000000e+00
1.000000e+00
5.729781e-01
5.728299e-01
5.726992e-01
5.725809e-01
5.724682e-01
5.723735e-01
5.723101e-01
5.722894e-01
5.723153e-01
5.723775e-01
5.724711e-01
5.725845e-01
5.727006e-01
5.730257e-01
5.714579e-01
0.000000e+00
1.000000e+00
5.732683e-01
5.729929e-01
5.730109e-01
5.730068e-01
5.730023e-01
5.729988e-01
5.729968e-01
5.729975e-01
5.730010e-01
5.730037e-01
5.730056e-01
5.730070e-01
5.730082e-01
5.731370e-01
5.718621e-01
0.000000e+00
1.000000e+00
5.733977e-01
5.731280e-01
5.732689e-01
5.733589e-01
5.734443e-01
5.735168e-01
5.735665e-01
5.735849e-01
5.735677e-01
5.735196e-01
5.734414e-01
5.733569e-01
5.732714e-01
5.732557e-01
5.722851e-01
0.000000e+00
1.000000e+00
5.733966e-01
5.732429e-01
5.734527e-01
5.736148e-01
5.737687e-01
5.738985e-01
5.739873e-01
5.740195e-01
5.739881e-01
5.739067e-01
5.737682e-01
5.736155e-01
5.734649e-01
5.733116e-01
5.728693e-01
0.000000e+00
1.000000e+00
5.734364e-01
5.733173e-01
5.735599e-01
5.737597e-01
5.739525e-01
5.741176e-01
5.742343e-01
5.742813e-01
5.742499e-01
5.741533e-01
5.740054e-01
5.738144e-01
5.736008e-01
5.733858e-01
5.732336e-01
0.000000e+00
1.000000e+00
5.734569e-01
5.733465e-01
5.736010e-01
5.738117e-01
5.740148e-01
5.741920e-01
5.743198e-01
5.743736e-01
5.743429e-01
5.742451e-01
5.740880e-01
5.738803e-01
5.736469e-01
5.734097e-01
5.733202e-01
0.000000e+00
1.000000e+00
5.734357e-01
5.733281e-01
5.735734e-01
5.737760e-01
5.739682e-01
5.741344e-01
5.742539e-01
5.743020e-01
5.742705e-01
5.741750e-01
5.740241e-01
5.738270e-01
5.736087e-01
5.734080e-01
5.732203e-01
0.000000e+00
1.000000e+00
5.734050e-01
5.732723e-01
5.734854e-01
5.736554e-01
5.738149e-01
5.739528e-01
5.740488e-01
5.740831e-01
5.740529e-01
5.739656e-01
5.738346e-01
5.736724e-01
5.734971e-01
5.733728e-01
5.729057e-01
0.000000e+00
1.000000e+00
5.733431e-01
5.731851e-01
5.733372e-01
5.734538e-01
5.735633e-01
5.736546e-01
5.737164e-01
5.737385e-01
5.737153e-01
5.736515e-01
5.735584e-01
5.734481e-01
5.733331e-01
5.732886e-01
5.726431e-01
0.000000e+00
1.000000e+00
5.732098e-01
5.730644e-01
5.731396e-01
5.731837e-01
5.732257e-01
5.732587e-01
5.732835e-01
5.732926e-01
5.732830e-01
5.732576e-01
5.732208e-01
5.731785e-01
5.731360e-01
5.731603e-01
5.725752e-01
0.000000e+00
1.000000e+00
5.730836e-01
5.729255e-01
5.729113e-01
5.728703e-01
5.728321e-01
5.727975e-01
5.727772e-01
5.727680e-01
5.727741e-01
5.727949e-01
5.728269e-01
5.728657e-01
5.729066e-01
5.730246e-01
5.724748e-01
0.000000e+00
1.000000e+00
5.719384e-01
5.713608e-01
5.704021e-01
5.694362e-01
5.685210e-01
5.677532e-01
5.672390e-01
5.670605e-01
5.672443e-01
5.677681e-01
5.685393e-01
5.694528e-01
5.704185e-01
5.717979e-01
5.707036e-01
0.000000e+00
1.000000e+00
5.719489e-01
5.715380e-01
5.706745e-01
5.698082e-01
5.689874e-01
5.682991e-01
5.678392e-01
5.676793e-01
5.678426e-01
5.683151e-01
5.690079e-01
5.698244e-01
5.706932e-01
5.724088e-01
5.695507e-01
0.000000e+00
1.000000e+00
5.720593e-01
5.717424e-01
5.709853e-01
5.702345e-01
5.695228e-01
5.689261e-01
5.685279e-01
5.683907e-01
5.685316e-01
5.689419e-01
5.695444e-01
5.702521e-01
5.710070e-01
5.727163e-01
5.692751e-01
0.000000e+00
1.000000e+00
5.721734e-01
5.719728e-01
5.713299e-01
5.707062e-01
5.701148e-01
5.696191e-01
5.692883e-01
5.691760e-01
5.692928e-01
5.696328e-01
5.701352e-01
5.707239e-01
5.713477e-01
5.727083e-01
5.694454e-01
0.000000e+00
1.000000e+00
5.723367e-01
5.722149e-01
5.716954e-01
5.712062e-01
5.707425e-01
5.703535e-01
5.700940e-01
5.700074e-01
5.701004e-01
5.703647e-01
5.707602e-01
5.712213e-01
5.717059e-01
5.726017e-01
5.703568e-01
0.000000e+00
1.000000e+00
5.725463e-01
5.724463e-01
5.720654e-01
5.717128e-01
5.713786e-01
5.710979e-01
5.709105e-01
5.708490e-01
5.709185e-01
5.711070e-01
5.713923e-01
5.717236e-01
5.720708e-01
5.726090e-01
5.712574e-01
0.000000e+00
1.000000e+00
5.727794e-01
5.726619e-01
5.724217e-01
5.722009e-01
5.719914e-01
5.718154e-01
5.716978e-01
5.716599e-01
5.717049e-01
5.718217e-01
5.719998e-01
5.722070e-01
5.724244e-01
5.727263e-01
5.721741e-01
0.000000e+00
1.000000e+00
5.730774e-01
5.728481e-01
5.727454e-01
5.726440e-01
5.725477e-01
5.724670e-01
5.724133e-01
5.723964e-01
5.724174e-01
5.724710e-01
5.725516e-01
5.726459e-01
5.727444e-01
5.729065e-01
5.723745e-01
0.000000e+00
1.000000e+00
5.733957e-01
5.729697e-01
5.730187e-01
5.730178e-01
5.730164e-01
5.730156e-01
5.730157e-01
5.730163e-01
5.730165e-01
5.730164e-01
5.730181e-01
5.730215e-01
5.730198e-01
5.730305e-01
5.723501e-01
0.000000e+00
1.000000e+00
5.733975e-01
5.730798e-01
5.732242e-01
5.732990e-01
5.733688e-01
5.734274e-01
5.734678e-01
5.734824e-01
5.734678e-01
5.734300e-01
5.733749e-01
5.733065e-01
5.732284e-01
5.731140e-01
5.731220e-01
0.000000e+00
1.000000e+00
5.733542e-01
5.731996e-01
5.733528e-01
5.734774e-01
5.735923e-01
5.736868e-01
5.737495e-01
5.737696e-01
5.737427e-01
5.736763e-01
5.735925e-01
5.734918e-01
5.733740e-01
5.732153e-01
5.733343e-01
0.000000e+00
1.000000e+00
5.733823e-01
5.732583e-01
5.733986e-01
5.735385e-01
5.736732e-01
5.737844e-01
5.738575e-01
5.738817e-01
5.738519e-01
5.737771e-01
5.736805e-01
5.735639e-01
5.734241e-01
5.732659e-01
5.731417e-01
0.000000e+00
1.000000e+00
5.733827e-01
5.732291e-01
5.733786e-01
5.735076e-01
5.736289e-01
5.737319e-01
5.738012e-01
5.738240e-01
5.737962e-01
5.737267e-01
5.736375e-01
5.735276e-01
5.733924e-01
5.732639e-01
5.732058e-01
0.000000e+00
1.000000e+00
5.733452e-01
5.731448e-01
5.732845e-01
5.733821e-01
5.734721e-01
5.735475e-01
5.735974e-01
5.736129e-01
5.735928e-01
5.735418e-01
5.734744e-01
5.733911e-01
5.732887e-01
5.732422e-01
5.729693e-01
0.000000e+00
1.000000e+00
5.732282e-01
5.730504e-01
5.731332e-01
5.731745e-01
5.732121e-01
5.732436e-01
5.732661e-01
5.732745e-01
5.732669e-01
5.732455e-01
5.732142e-01
5.731752e-01
5.731314e-01
5.731625e-01
5.725138e-01
0.000000e+00
1.000000e+00
5.730979e-01
5.729367e-01
5.729362e-01
5.729049e-01
5.728748e-01
5.728479e-01
5.728328e-01
5.728268e-01
5.728322e-01
5.728481e-01
5.728722e-01
5.729017e-01
5.729326e-01
5.730253e-01
5.723948e-01
0.000000e+00
1.000000e+00
5.730210e-01
5.727966e-01
5.727091e-01
5.725939e-01
5.724847e-01
5.723906e-01
5.723294e-01
5.723046e-01
5.723256e-01
5.723868e-01
5.724783e-01
5.725878e-01
5.727030e-01
5.728797e-01
5.724402e-01
0.000000e+00
1.000000e+00
5.718830e-01
5.712265e-01
5.701860e-01
5.691408e-01
5.681504e-01
5.673196e-01
5.667628e-01
5.665679e-01
5.667682e-01
5.673356e-01
5.681696e-01
5.691561e-01
5.702006e-01
5.716665e-01
5.707939e-01
0.000000e+00
1.000000e+00
5.718688e-01
5.713895e-01
5.704415e-01
5.694891e-01
5.685867e-01
5.678300e-01
5.673241e-01
5.671455e-01
5.673279e-01
5.678465e-01
5.686079e-01
5.695054e-01
5.704593e-01
5.721507e-01
5.702553e-01
0.000000e+00
1.000000e+00
5.719906e-01
5.715800e-01
5.707392e-01
5.698974e-01
5.690995e-01
5.684307e-01
5.679844e-01
5.678272e-01
5.679879e-01
5.684479e-01
5.691226e-01
5.699158e-01
5.707596e-01
5.723616e-01
5.699255e-01
0.000000e+00
1.000000e+00
5.720665e-01
5.718048e-01
5.710762e-01
5.703589e-01
5.696788e-01
5.691088e-01
5.687290e-01
5.685965e-01
5.687318e-01
5.691257e-01
5.697018e-01
5.703773e-01
5.710923e-01
5.723585e-01
5.698651e-01
0.000000e+00
1.000000e+00
5.722113e-01
5.720470e-01
5.714402e-01
5.708569e-01
5.703039e-01
5.698404e-01
5.695316e-01
5.694260e-01
5.695353e-01
5.698562e-01
5.703243e-01
5.708720e-01
5.714490e-01
5.723057e-01
5.706832e-01
0.000000e+00
1.000000e+00
5.724115e-01
5.722863e-01
5.718146e-01
5.713693e-01
5.709471e-01
5.705930e-01
5.703570e-01
5.702788e-01
5.703623e-01
5.706062e-01
5.709626e-01
5.713794e-01
5.718190e-01
5.723890e-01
5.714156e-01
0.000000e+00
1.000000e+00
5.726348e-01
5.725171e-01
5.721798e-01
5.718694e-01
5.715750e-01
5.713279e-01
5.711629e-01
5.711096e-01
5.711692e-01
5.713373e-01
5.715851e-01
5.718755e-01
5.721827e-01
5.725638e-01
5.720511e-01
0.000000e+00
1.000000e+00
5.729049e-01
5.727182e-01
5.725151e-01
5.723285e-01
5.721515e-01
5.720029e-01
5.719036e-01
5.718713e-01
5.719077e-01
5.720081e-01
5.721571e-01
5.723320e-01
5.725165e-01
5.727682e-01
5.722731e-01
0.000000e+00
1.000000e+00
5.732590e-01
5.728551e-01
5.728010e-01
5.727199e-01
5.726428e-01
5.725781e-01
5.725348e-01
5.725202e-01
5.725365e-01
5.725806e-01
5.726457e-01
5.727223e-01
5.728013e-01
5.728963e-01
5.723303e-01
0.000000e+00
1.000000e+00
5.735006e-01
5.729370e-01
5.730219e-01
5.730219e-01
5.730213e-01
5.730209e-01
5.730206e-01
5.730203e-01
5.730199e-01
5.730188e-01
5.730179e-01
5.730187e-01
5.730186e-01
5.729862e-01
5.728359e-01
0.000000e+00
1.000000e+00
5.734370e-01
5.730255e-01
5.731618e-01
5.732126e-01
5.732608e-01
5.733018e-01
5.733300e-01
5.733399e-01
5.733290e-01
5.732992e-01
5.732563e-01
5.732078e-01
5.731607e-01
5.730926e-01
5.733023e-01
0.000000e+00
1.000000e+00
5.733500e-01
5.730921e-01
5.732202e-01
5.732952e-01
5.733648e-01
5.734203e-01
5.734575e-01
5.734691e-01
5.734527e-01
5.734109e-01
5.733516e-01
5.732848e-01
5.732176e-01
5.731428e-01
5.731116e-01
0.000000e+00
1.000000e+00
5.733507e-01
5.730946e-01
5.732022e-01
5.732698e-01
5.733316e-01
5.733821e-01
5.734157e-01
5.734262e-01
5.734116e-01
5.733726e-01
5.733203e-01
5.732636e-01
5.732012e-01
5.731392e-01
5.732009e-01
0.000000e+00
1.000000e+00
5.732546e-01
5.730353e-01
5.731126e-01
5.731461e-01
5.731762e-01
5.732021e-01
5.732188e-01
5.732240e-01
5.732171e-01
5.731984e-01
5.731725e-01
5.731433e-01
5.731108e-01
5.731252e-01
5.730169e-01
0.000000e+00
1.000000e+00
5.731274e-01
5.729497e-01
5.729628e-01
5.729410e-01
5.729199e-01
5.729037e-01
5.728918e-01
5.728875e-01
5.728912e-01
5.729023e-01
5.729190e-01
5.729392e-01
5.729599e-01
5.730475e-01
5.724445e-01
0.000000e+00
1.000000e+00
5.730400e-01
5.728324e-01
5.727682e-01
5.726747e-01
5.725849e-01
5.725105e-01
5.724600e-01
5.724413e-01
5.724580e-01
5.725073e-01
5.725810e-01
5.726694e-01
5.727627e-01
5.729083e-01
5.723088e-01
0.000000e+00
1.000000e+00
5.729956e-01
5.726870e-01
5.725418e-01
5.723648e-01
5.721959e-01
5.720544e-01
5.719575e-01
5.719228e-01
5.719551e-01
5.720496e-01
5.721904e-01
5.723585e-01
5.725355e-01
5.727653e-01
5.724144e-01
0.000000e+00
1.000000e+00
5.718180e-01
5.711219e-01
5.700274e-01
5.689239e-01
5.678781e-01
5.670007e-01
5.664122e-01
5.662062e-01
5.664173e-01
5.670166e-01
5.678962e-01
5.689365e-01
5.700393e-01
5.715187e-01
5.707585e-01
0.000000e+00
1.000000e+00
5.718231e-01
5.712712e-01
5.702652e-01
5.692478e-01
5.682837e-01
5.674752e-01
5.669343e-01
5.667427e-01
5.669383e-01
5.674917e-01
5.683033e-01
5.692614e-01
5.702782e-01
5.718688e-01
5.703933e-01
0.000000e+00
1.000000e+00
5.719350e-01
5.714555e-01
5.705498e-01
5.696378e-01
5.687736e-01
5.680492e-01
5.675655e-01
5.673926e-01
5.675694e-01
5.680665e-01
5.687959e-01
5.696555e-01
5.705669e-01
5.720399e-01
5.702567e-01
0.000000e+00
1.000000e+00
5.720378e-01
5.716661e-01
5.708787e-01
5.700882e-01
5.693390e-01
5.687112e-01
5.682924e-01
5.681425e-01
5.682959e-01
5.687290e-01
5.693619e-01
5.701057e-01
5.708925e-01
5.720765e-01
5.702459e-01
0.000000e+00
1.000000e+00
5.721576e-01
5.719035e-01
5.712401e-01
5.705829e-01
5.699600e-01
5.694379e-01
5.690898e-01
5.689672e-01
5.690936e-01
5.694556e-01
5.699804e-01
5.705964e-01
5.712478e-01
5.720865e-01
5.710137e-01
0.000000e+00
1.000000e+00
5.723142e-01
5.721556e-01
5.716175e-01
5.710996e-01
5.706086e-01
5.701965e-01
5.699223e-01
5.698288e-01
5.699270e-01
5.702127e-01
5.706233e-01
5.711081e-01
5.716215e-01
5.722284e-01
5.716734e-01
0.000000e+00
1.000000e+00
5.725252e-01
5.723990e-01
5.719907e-01
5.716104e-01
5.712497e-01
5.709468e-01
5.707452e-01
5.706790e-01
5.707504e-01
5.709586e-01
5.712589e-01
5.716158e-01
5.719937e-01
5.724436e-01
5.722187e-01
0.000000e+00
1.000000e+00
5.727864e-01
5.726078e-01
5.723370e-01
5.720847e-01
5.718450e-01
5.716441e-01
5.715100e-01
5.714657e-01
5.715133e-01
5.716502e-01
5.718505e-01
5.720883e-01
5.723391e-01
5.726684e-01
5.721812e-01
0.000000e+00
1.000000e+00
5.730811e-01
5.727678e-01
5.726352e-01
5.724929e-01
5.723578e-01
5.722446e-01
5.721688e-01
5.721429e-01
5.721707e-01
5.722476e-01
5.723613e-01
5.724957e-01
5.726362e-01
5.728046e-01
5.722252e-01
0.000000e+00
1.000000e+00
5.734344e-01
5.728501e-01
5.728672e-01
5.728109e-01
5.727571e-01
5.727118e-01
5.726811e-01
5.726702e-01
5.726810e-01
5.727107e-01
5.727566e-01
5.728113e-01
5.728673e-01
5.728948e-01
5.728332e-01
0.000000e+00
1.000000e+00
5.735832e-01
5.728969e-01
5.730221e-01
5.730228e-01
5.730220e-01
5.730205e-01
5.730186e-01
5.730169e-01
5.730152e-01
5.730137e-01
5.730129e-01
5.730138e-01
5.730145e-01
5.730038e-01
5.731119e-01
0.000000e+00
1.000000e+00
5.734330e-01
5.729442e-01
5.730912e-01
5.731170e-01
5.731399e-01
5.731586e-01
5.731704e-01
5.731730e-01
5.731659e-01
5.731514e-01
5.731309e-01
5.731065e-01
5.730844e-01
5.730435e-01
5.731617e-01
0.000000e+00
1.000000e+00
5.732475e-01
5.729781e-01
5.730762e-01
5.730969e-01
5.731160e-01
5.731314e-01
5.731402e-01
5.731409e-01
5.731352e-01
5.731237e-01
5.731082e-01
5.730904e-01
5.730735e-01
5.730545e-01
5.732114e-01
0.000000e+00
1.000000e+00
5.731547e-01
5.729554e-01
5.729888e-01
5.729762e-01
5.729635e-01
5.729540e-01
5.729480e-01
5.729455e-01
5.729479e-01
5.729550e-01
5.729648e-01
5.729761e-01
5.729878e-01
5.730409e-01
5.730905e-01
0.000000e+00
1.000000e+00
5.730855e-01
5.728743e-01
5.728417e-01
5.727751e-01
5.727112e-01
5.726565e-01
5.726215e-01
5.726102e-01
5.726222e-01
5.726569e-01
5.727088e-01
5.727713e-01
5.728371e-01
5.729538e-01
5.724016e-01
0.000000e+00
1.000000e+00
5.730238e-01
5.727538e-01
5.726479e-01
5.725096e-01
5.723777e-01
5.722671e-01
5.721926e-01
5.721660e-01
5.721902e-01
5.722632e-01
5.723726e-01
5.725036e-01
5.726417e-01
5.728201e-01
5.723244e-01
0.000000e+00
1.000000e+00
5.729751e-01
5.726069e-01
5.724223e-01
5.722010e-01
5.719902e-01
5.718152e-01
5.716931e-01
5.716504e-01
5.716902e-01
5.718082e-01
5.719842e-01
5.721943e-01
5.724157e-01
5.726864e-01
5.723621e-01
0.000000e+00
1.000000e+00
5.718084e-01
5.710581e-01
5.699366e-01
5.687997e-01
5.677222e-01
5.668181e-01
5.662112e-01
5.659991e-01
5.662160e-01
5.668336e-01
5.677426e-01
5.688143e-01
5.699482e-01
5.713895e-01
5.708307e-01
0.000000e+00
1.000000e+00
5.718094e-01
5.711977e-01
5.701580e-01
5.691015e-01
5.681001e-01
5.672601e-01
5.666974e-01
5.664994e-01
5.667007e-01
5.672755e-01
5.681192e-01
5.691139e-01
5.701677e-01
5.716099e-01
5.707949e-01
0.000000e+00
1.000000e+00
5.719105e-01
5.713775e-01
5.704306e-01
5.694747e-01
5.685689e-01
5.678093e-01
5.673016e-01
5.671206e-01
5.673055e-01
5.678256e-01
5.685876e-01
5.694882e-01
5.704424e-01
5.717619e-01
5.708693e-01
0.000000e+00
1.000000e+00
5.720277e-01
5.715822e-01
5.707521e-01
5.699147e-01
5.691211e-01
5.684559e-01
5.680122e-01
5.678521e-01
5.680154e-01
5.684733e-01
5.691415e-01
5.699306e-01
5.707644e-01
5.718703e-01
5.707201e-01
0.000000e+00
1.000000e+00
5.721380e-01
5.718156e-01
5.711110e-01
5.704060e-01
5.697379e-01
5.691778e-01
5.688049e-01
5.686696e-01
5.688087e-01
5.691965e-01
5.697574e-01
5.704185e-01
5.711186e-01
5.719517e-01
5.713921e-01
0.000000e+00
1.000000e+00
5.722797e-01
5.720668e-01
5.714911e-01
5.709264e-01
5.703911e-01
5.699421e-01
5.696431e-01
5.695376e-01
5.696490e-01
5.699587e-01
5.704047e-01
5.709340e-01
5.714951e-01
5.721518e-01
5.717975e-01
0.000000e+00
1.000000e+00
5.724760e-01
5.723150e-01
5.718714e-01
5.714470e-01
5.710446e-01
5.707066e-01
5.704812e-01
5.704063e-01
5.704870e-01
5.707182e-01
5.710526e-01
5.714519e-01
5.718746e-01
5.723973e-01
5.720317e-01
0.000000e+00
1.000000e+00
5.727169e-01
5.725374e-01
5.722280e-01
5.719353e-01
5.716574e-01
5.714240e-01
5.712685e-01
5.712172e-01
5.712714e-01
5.714306e-01
5.716623e-01
5.719389e-01
5.722303e-01
5.726274e-01
5.719844e-01
0.000000e+00
1.000000e+00
5.729951e-01
5.727121e-01
5.725377e-01
5.723591e-01
5.721894e-01
5.720475e-01
5.719531e-01
5.719206e-01
5.719545e-01
5.720509e-01
5.721930e-01
5.723617e-01
5.725384e-01
5.727693e-01
5.719844e-01
0.000000e+00
1.000000e+00
5.732963e-01
5.728158e-01
5.727808e-01
5.726922e-01
5.726084e-01
5.725382e-01
5.724911e-01
5.724744e-01
5.724909e-01
5.725373e-01
5.726086e-01
5.726938e-01
5.727816e-01
5.728519e-01
5.726702e-01
0.000000e+00
1.000000e+00
5.735171e-01
5.728689e-01
5.729439e-01
5.729164e-01
5.728901e-01
5.728676e-01
5.728518e-01
5.728452e-01
5.728481e-01
5.728609e-01
5.728825e-01
5.729109e-01
5.729393e-01
5.729543e-01
5.730068e-01
0.000000e+00
1.000000e+00
5.735049e-01
5.729024e-01
5.730202e-01
5.730204e-01
5.730208e-01
5.730218e-01
5.730222e-01
5.730204e-01
5.730160e-01
5.730127e-01
5.730128e-01
5.730151e-01
5.730153e-01
5.729983e-01
5.731159e-01
0.000000e+00
1.000000e+00
5.732454e-01
5.729389e-01
5.730126e-01
5.730095e-01
5.730063e-01
5.730038e-01
5.730024e-01
5.729997e-01
5.729978e-01
5.729988e-01
5.730025e-01
5.730062e-01
5.730076e-01
5.729986e-01
5.732954e-01
0.000000e+00
1.000000e+00
5.731229e-01
5.729194e-01
5.729285e-01
5.728943e-01
5.728615e-01
5.728332e-01
5.728156e-01
5.728085e-01
5.728141e-01
5.728328e-01
5.728601e-01
5.728922e-01
5.729258e-01
5.729992e-01
5.731107e-01
0.000000e+00
1.000000e+00
5.730818e-01
5.728371e-01
5.727818e-01
5.726927e-01
5.726079e-01
5.725359e-01
5.724895e-01
5.724736e-01
5.724897e-01
5.725354e-01
5.726051e-01
5.726887e-01
5.727771e-01
5.729040e-01
5.725189e-01
0.000000e+00
1.000000e+00
5.730270e-01
5.727139e-01
5.725883e-01
5.724278e-01
5.722749e-01
5.721459e-01
5.720607e-01
5.720278e-01
5.720585e-01
5.721423e-01
5.722692e-01
5.724211e-01
5.725813e-01
5.727717e-01
5.723762e-01
0.000000e+00
1.000000e+00
5.729753e-01
5.725644e-01
5.723619e-01
5.721181e-01
5.718861e-01
5.716918e-01
5.715618e-01
5.715105e-01
5.715573e-01
5.716859e-01
5.718796e-01
5.721110e-01
5.723548e-01
5.726455e-01
5.723283e-01
0.000000e+00
1.000000e+00
5.717962e-01
5.710488e-01
5.699226e-01
5.687801e-01
5.676977e-01
5.667894e-01
5.661794e-01
5.659661e-01
5.661845e-01
5.668012e-01
5.677166e-01
5.687974e-01
5.699347e-01
5.712893e-01
5.710830e-01
0.000000e+00
1.000000e+00
5.717879e-01
5.711803e-01
5.701304e-01
5.690639e-01
5.680531e-01
5.672051e-01
5.666361e-01
5.664373e-01
5.666398e-01
5.672171e-01
5.680714e-01
5.690792e-01
5.701409e-01
5.714258e-01
5.712347e-01
0.000000e+00
1.000000e+00
5.718980e-01
5.713553e-01
5.703933e-01
5.694239e-01
5.685050e-01
5.677343e-01
5.672182e-01
5.670368e-01
5.672222e-01
5.677492e-01
5.685226e-01
5.694358e-01
5.704018e-01
5.715691e-01
5.713405e-01
0.000000e+00
1.000000e+00
5.720024e-01
5.715596e-01
5.707089e-01
5.698556e-01
5.690470e-01
5.683688e-01
5.679157e-01
5.677543e-01
5.679189e-01
5.683844e-01
5.690635e-01
5.698676e-01
5.707183e-01
5.717583e-01
5.712457e-01
0.000000e+00
1.000000e+00
5.721362e-01
5.717902e-01
5.710663e-01
5.703447e-01
5.696609e-01
5.690875e-01
5.687053e-01
5.685673e-01
5.687082e-01
5.691049e-01
5.696789e-01
5.703577e-01
5.710751e-01
5.719257e-01
5.715164e-01
0.000000e+00
1.000000e+00
5.722992e-01
5.720362e-01
5.714493e-01
5.708690e-01
5.703190e-01
5.698577e-01
5.695506e-01
5.694404e-01
5.695559e-01
5.698750e-01
5.703332e-01
5.708772e-01
5.714544e-01
5.721603e-01
5.716438e-01
0.000000e+00
1.000000e+00
5.724741e-01
5.722886e-01
5.718362e-01
5.713988e-01
5.709840e-01
5.706360e-01
5.704036e-01
5.703250e-01
5.704097e-01
5.706472e-01
5.709918e-01
5.714036e-01
5.718398e-01
5.724164e-01
5.717995e-01
0.000000e+00
1.000000e+00
5.727045e-01
5.725227e-01
5.722023e-01
5.719000e-01
5.716132e-01
5.713723e-01
5.712107e-01
5.711589e-01
5.712136e-01
5.713777e-01
5.716175e-01
5.719032e-01
5.722045e-01
5.726508e-01
5.717490e-01
0.000000e+00
1.000000e+00
5.729828e-01
5.727066e-01
5.725225e-01
5.723383e-01
5.721631e-01
5.720160e-01
5.719182e-01
5.718863e-01
5.719205e-01
5.720195e-01
5.721657e-01
5.723399e-01
5.725225e-01
5.727955e-01
5.717419e-01
0.000000e+00
1.000000e+00
5.732691e-01
5.728185e-01
5.727755e-01
5.726844e-01
5.725980e-01
5.725263e-01
5.724795e-01
5.724641e-01
5.724812e-01
5.725271e-01
5.725989e-01
5.726864e-01
5.727760e-01
5.728693e-01
5.724804e-01
0.000000e+00
1.000000e+00
5.734467e-01
5.728890e-01
5.729472e-01
5.729204e-01
5.728952e-01
5.728748e-01
5.728618e-01
5.728576e-01
5.728613e-01
5.728720e-01
5.728901e-01
5.729166e-01
5.729438e-01
5.729601e-01
5.728355e-01
0.000000e+00
1.000000e+00
5.734211e-01
5.729391e-01
5.730330e-01
5.730376e-01
5.730411e-01
5.730459e-01
5.730523e-01
5.730549e-01
5.730504e-01
5.730410e-01
5.730332e-01
5.730311e-01
5.730282e-01
5.730058e-01
5.730263e-01
0.000000e+00
1.000000e+00
5.732321e-01
5.729670e-01
5.730314e-01
5.730322e-01
5.730320e-01
5.730332e-01
5.730372e-01
5.730376e-01
5.730333e-01
5.730280e-01
5.730256e-01
5.730234e-01
5.730258e-01
5.730078e-01
5.733294e-01
0.000000e+00
1.000000e+00
5.731073e-01
5.729339e-01
5.729475e-01
5.729190e-01
5.728905e-01
5.728653e-01
5.728490e-01
5.728407e-01
5.728449e-01
5.728596e-01
5.728827e-01
5.729098e-01
5.729406e-01
5.730016e-01
5.732227e-01
0.000000e+00
1.000000e+00
5.730822e-01
5.728477e-01
5.727961e-01
5.727120e-01
5.726317e-01
5.725641e-01
5.725196e-01
5.725031e-01
5.725189e-01
5.725613e-01
5.726271e-01
5.727063e-01
5.727896e-01
5.729048e-01
5.725807e-01
0.000000e+00
1.000000e+00
5.730370e-01
5.727227e-01
5.725992e-01
5.724428e-01
5.722937e-01
5.721678e-01
5.720854e-01
5.720528e-01
5.720823e-01
5.721647e-01
5.722877e-01
5.724355e-01
5.725917e-01
5.727616e-01
5.726123e-01
0.000000e+00
1.000000e+00
5.730054e-01
5.725663e-01
5.723702e-01
5.721294e-01
5.719004e-01
5.717079e-01
5.715810e-01
5.715303e-01
5.715752e-01
5.717028e-01
5.718931e-01
5.721215e-01
5.723623e-01
5.726387e-01
5.724529e-01
0.000000e+00
1.000000e+00
5.717657e-01
5.710980e-01
5.699895e-01
5.688714e-01
5.678120e-01
5.669233e-01
5.663263e-01
5.661173e-01
5.663323e-01
5.669328e-01
5.678256e-01
5.688863e-01
5.700007e-01
5.712435e-01
5.714597e-01
0.000000e+00
1.000000e+00
5.717868e-01
5.712213e-01
5.701880e-01
5.691430e-01
5.681524e-01
5.673214e-01
5.667634e-01
5.665684e-01
5.667684e-01
5.673299e-01
5.681648e-01
5.691555e-01
5.701975e-01
5.713557e-01
5.716580e-01
0.000000e+00
1.000000e+00
5.718924e-01
5.713936e-01
5.704450e-01
5.694946e-01
5.685939e-01
5.678382e-01
5.673313e-01
5.671544e-01
5.673357e-01
5.678492e-01
5.686099e-01
5.695081e-01
5.704536e-01
5.714973e-01
5.717024e-01
0.000000e+00
1.000000e+00
5.720310e-01
5.715924e-01
5.707573e-01
5.699219e-01
5.691302e-01
5.684660e-01
5.680211e-01
5.678653e-01
5.680251e-01
5.684795e-01
5.691467e-01
5.699332e-01
5.707646e-01
5.717152e-01
5.716706e-01
0.000000e+00
1.000000e+00
5.721544e-01
5.718243e-01
5.711146e-01
5.704111e-01
5.697442e-01
5.691848e-01
5.688107e-01
5.686791e-01
5.688136e-01
5.691998e-01
5.697605e-01
5.704225e-01
5.711230e-01
5.719849e-01
5.715422e-01
0.000000e+00
1.000000e+00
5.723202e-01
5.720769e-01
5.715011e-01
5.709399e-01
5.704081e-01
5.699618e-01
5.696639e-01
5.695592e-01
5.696668e-01
5.699778e-01
5.704240e-01
5.709508e-01
5.715083e-01
5.722531e-01
5.714406e-01
0.000000e+00
1.000000e+00
5.725175e-01
5.723286e-01
5.718944e-01
5.714784e-01
5.710840e-01
5.707530e-01
5.705319e-01
5.704574e-01
5.705339e-01
5.707663e-01
5.710943e-01
5.714836e-01
5.718982e-01
5.725042e-01
5.715896e-01
0.000000e+00
1.000000e+00
5.727466e-01
5.725630e-01
5.722687e-01
5.719911e-01
5.717277e-01
5.715066e-01
5.713582e-01
5.713099e-01
5.713613e-01
5.715145e-01
5.717316e-01
5.719932e-01
5.722702e-01
5.727408e-01
5.715498e-01
0.000000e+00
1.000000e+00
5.730116e-01
5.727530e-01
5.725982e-01
5.724419e-01
5.722936e-01
5.721687e-01
5.720847e-01
5.720575e-01
5.720907e-01
5.721727e-01
5.722945e-01
5.724431e-01
5.725977e-01
5.728878e-01
5.716637e-01
0.000000e+00
1.000000e+00
5.732805e-01
5.728758e-01
5.728600e-01
5.727998e-01
5.727422e-01
5.726940e-01
5.726629e-01
5.726562e-01
5.726733e-01
5.727033e-01
5.727458e-01
5.728036e-01
5.728622e-01
5.729529e-01
5.722638e-01
0.000000e+00
1.000000e+00
5.733520e-01
5.729695e-01
5.730351e-01
5.730409e-01
5.730459e-01
5.730506e-01
5.730546e-01
5.730578e-01
5.730584e-01
5.730546e-01
5.730464e-01
5.730424e-01
5.730379e-01
5.730285e-01
5.726952e-01
0.000000e+00
1.000000e+00
5.732818e-01
5.730447e-01
5.731115e-01
5.731431e-01
5.731777e-01
5.732071e-01
5.732282e-01
5.732405e-01
5.732384e-01
5.732218e-01
5.731963e-01
5.731667e-01
5.731289e-01
5.730761e-01
5.729189e-01
0.000000e+00
1.000000e+00
5.732538e-01
5.730536e-01
5.731062e-01
5.731437e-01
5.731805e-01
5.732094e-01
5.732286e-01
5.732343e-01
5.732282e-01
5.732102e-01
5.731877e-01
5.731595e-01
5.731262e-01
5.730780e-01
5.732289e-01
0.000000e+00
1.000000e+00
5.731599e-01
5.729950e-01
5.730344e-01
5.730377e-01
5.730420e-01
5.730453e-01
5.730463e-01
5.730439e-01
5.730447e-01
5.730450e-01
5.730431e-01
5.730412e-01
5.730371e-01
5.730424e-01
5.733614e-01
0.000000e+00
1.000000e+00
5.730675e-01
5.729088e-01
5.728963e-01
5.728471e-01
5.727985e-01
5.727565e-01
5.727259e-01
5.727101e-01
5.727190e-01
5.727479e-01
5.727868e-01
5.728334e-01
5.728820e-01
5.729546e-01
5.727398e-01
0.000000e+00
1.000000e+00
5.730467e-01
5.727816e-01
5.726889e-01
5.725651e-01
5.724471e-01
5.723475e-01
5.722806e-01
5.722569e-01
5.722778e-01
5.723427e-01
5.724398e-01
5.725560e-01
5.726791e-01
5.728064e-01
5.728515e-01
0.000000e+00
1.000000e+00
5.730332e-01
5.726221e-01
5.724530e-01
5.722430e-01
5.720430e-01
5.718746e-01
5.717622e-01
5.717230e-01
5.717586e-01
5.718698e-01
5.720361e-01
5.722343e-01
5.724443e-01
5.726835e-01
5.727259e-01
0.000000e+00
1.000000e+00
5.717277e-01
5.711983e-01
5.701358e-01
5.690717e-01
5.680634e-01
5.672174e-01
5.666495e-01
5.664508e-01
5.666559e-01
5.672282e-01
5.680754e-01
5.690834e-01
5.701460e-01
5.713397e-01
5.714798e-01
0.000000e+00
1.000000e+00
5.717982e-01
5.713204e-01
5.703306e-01
5.693383e-01
5.683976e-01
5.676084e-01
5.670785e-01
5.668931e-01
5.670842e-01
5.676170e-01
5.684066e-01
5.693462e-01
5.703367e-01
5.714018e-01
5.717391e-01
0.000000e+00
1.000000e+00
5.719002e-01
5.714918e-01
5.705858e-01
5.696876e-01
5.688360e-01
5.681216e-01
5.676420e-01
5.674745e-01
5.676472e-01
5.681296e-01
5.688463e-01
5.696973e-01
5.705928e-01
5.715548e-01
5.718156e-01
0.000000e+00
1.000000e+00
5.720598e-01
5.716905e-01
5.708983e-01
5.701149e-01
5.693725e-01
5.687495e-01
5.683316e-01
5.681859e-01
5.683356e-01
5.687585e-01
5.693862e-01
5.701271e-01
5.709058e-01
5.717667e-01
5.718951e-01
0.000000e+00
1.000000e+00
5.722031e-01
5.719221e-01
5.712577e-01
5.706071e-01
5.699903e-01
5.694728e-01
5.691258e-01
5.690052e-01
5.691293e-01
5.694839e-01
5.700067e-01
5.706195e-01
5.712656e-01
5.720833e-01
5.716566e-01
0.000000e+00
1.000000e+00
5.723828e-01
5.721782e-01
5.716486e-01
5.711419e-01
5.706616e-01
5.702585e-01
5.699884e-01
5.698954e-01
5.699907e-01
5.702710e-01
5.706782e-01
5.711537e-01
5.716568e-01
5.724313e-01
5.714105e-01
0.000000e+00
1.000000e+00
5.726047e-01
5.724261e-01
5.720480e-01
5.716886e-01
5.713479e-01
5.710619e-01
5.708702e-01
5.708057e-01
5.708715e-01
5.710722e-01
5.713610e-01
5.716965e-01
5.720531e-01
5.726906e-01
5.714501e-01
0.000000e+00
1.000000e+00
5.728280e-01
5.726598e-01
5.724292e-01
5.722111e-01
5.720039e-01
5.718300e-01
5.717135e-01
5.716742e-01
5.717167e-01
5.718375e-01
5.720114e-01
5.722134e-01
5.724307e-01
5.729234e-01
5.714777e-01
0.000000e+00
1.000000e+00
5.731016e-01
5.728518e-01
5.727656e-01
5.726716e-01
5.725819e-01
5.725066e-01
5.724559e-01
5.724381e-01
5.724594e-01
5.725143e-01
5.725880e-01
5.726751e-01
5.727694e-01
5.730698e-01
5.714342e-01
0.000000e+00
1.000000e+00
5.733067e-01
5.729930e-01
5.730324e-01
5.730384e-01
5.730427e-01
5.730454e-01
5.730464e-01
5.730455e-01
5.730467e-01
5.730492e-01
5.730435e-01
5.730376e-01
5.730334e-01
5.731144e-01
5.718261e-01
0.000000e+00
1.000000e+00
5.732583e-01
5.731234e-01
5.732106e-01
5.732838e-01
5.733530e-01
5.734108e-01
5.734488e-01
5.734602e-01
5.734430e-01
5.734043e-01
5.733506e-01
5.732852e-01
5.732165e-01
5.731707e-01
5.726585e-01
0.000000e+00
1.000000e+00
5.732544e-01
5.732207e-01
5.733184e-01
5.734181e-01
5.735132e-01
5.735941e-01
5.736468e-01
5.736644e-01
5.736386e-01
5.735818e-01
5.735105e-01
5.734100e-01
5.732937e-01
5.732131e-01
5.727869e-01
0.000000e+00
1.000000e+00
5.733118e-01
5.732157e-01
5.733113e-01
5.734126e-01
5.735057e-01
5.735841e-01
5.736353e-01
5.736511e-01
5.736264e-01
5.735704e-01
5.735073e-01
5.734123e-01
5.732890e-01
5.731895e-01
5.730707e-01
0.000000e+00
1.000000e+00
5.733233e-01
5.731370e-01
5.732043e-01
5.732727e-01
5.733396e-01
5.733977e-01
5.734377e-01
5.734507e-01
5.734362e-01
5.733970e-01
5.733472e-01
5.732890e-01
5.732133e-01
5.731391e-01
5.733232e-01
0.000000e+00
1.000000e+00
5.731832e-01
5.730181e-01
5.730561e-01
5.730696e-01
5.730823e-01
5.730921e-01
5.730978e-01
5.730964e-01
5.730926e-01
5.730883e-01
5.730818e-01
5.730723e-01
5.730562e-01
5.730337e-01
5.729694e-01
0.000000e+00
1.000000e+00
5.730549e-01
5.728877e-01
5.728627e-01
5.728004e-01
5.727405e-01
5.726893e-01
5.726540e-01