<?xml version="1.0"?>
<VTKFile type="StructuredGrid" version="0.1">
  <StructuredGrid WholeExtent="0 16 0 16 0 16">
    <Piece Extent="0 16 0 16 0 16">
      <PointData Scalars="temperature" Vectors="velocity">
        <DataArray type="Float32" Name="temperature" format="ascii">
1.000000e+00
5.730333e-01
5.730702e-01
5.731099e-01
5.731505e-01
5.731890e-01
5.732213e-01
5.732431e-01
5.732508e-01
5.732431e-01
5.732213e-01
5.731890e-01
5.731505e-01
5.731099e-01
5.730702e-01
5.730333e-01
0.000000e+00
1.000000e+00
5.731102e-01
5.732324e-01
5.733637e-01
5.734980e-01
5.736254e-01
5.737324e-01
5.738045e-01
5.738301e-01
5.738045e-01
5.737324e-01
5.736254e-01
5.734980e-01
5.733637e-01
5.732324e-01
5.731102e-01
0.000000e+00
1.000000e+00
5.731993e-01
5.734203e-01
5.736578e-01
5.739007e-01
5.741310e-01
5.743245e-01
5.744549e-01
5.745011e-01
5.744549e-01
5.743245e-01
5.741310e-01
5.739007e-01
5.736578e-01
5.734203e-01
5.731993e-01
0.000000e+00
1.000000e+00
5.732986e-01
5.736298e-01
5.739856e-01
5.743495e-01
5.746945e-01
5.749845e-01
5.751799e-01
5.752491e-01
5.751799e-01
5.749845e-01
5.746945e-01
5.743495e-01
5.739856e-01
5.736298e-01
5.732986e-01
0.000000e+00
1.000000e+00
5.734049e-01
5.738541e-01
5.743366e-01
5.748302e-01
5.752982e-01
5.756914e-01
5.759564e-01
5.760503e-01
5.759564e-01
5.756914e-01
5.752982e-01
5.748302e-01
5.743366e-01
5.738541e-01
5.734049e-01
0.000000e+00
1.000000e+00
5.735140e-01
5.740843e-01
5.746969e-01
5.753235e-01
5.759176e-01
5.764169e-01
5.767533e-01
5.768725e-01
5.767533e-01
5.764169e-01
5.759176e-01
5.753235e-01
5.746969e-01
5.740843e-01
5.735140e-01
0.000000e+00
1.000000e+00
5.736208e-01
5.743095e-01
5.750493e-01
5.758060e-01
5.765235e-01
5.771264e-01
5.775327e-01
5.776766e-01
5.775327e-01
5.771264e-01
5.765235e-01
5.758060e-01
5.750493e-01
5.743095e-01
5.736208e-01
0.000000e+00
1.000000e+00
5.737195e-01
5.745177e-01
5.753751e-01
5.762521e-01
5.770837e-01
5.777825e-01
5.782534e-01
5.784202e-01
5.782534e-01
5.777825e-01
5.770837e-01
5.762521e-01
5.753751e-01
5.745177e-01
5.737195e-01
0.000000e+00
1.000000e+00
5.738046e-01
5.746971e-01
5.756560e-01
5.766367e-01
5.775666e-01
5.783480e-01
5.788746e-01
5.790611e-01
5.788746e-01
5.783480e-01
5.775666e-01
5.766367e-01
5.756560e-01
5.746971e-01
5.738046e-01
0.000000e+00
1.000000e+00
5.738711e-01
5.748376e-01
5.758757e-01
5.769376e-01
5.779444e-01
5.787905e-01
5.793607e-01
5.795626e-01
5.793607e-01
5.787905e-01
5.779444e-01
5.769376e-01
5.758757e-01
5.748376e-01
5.738711e-01
0.000000e+00
1.000000e+00
5.739156e-01
5.749313e-01
5.760224e-01
5.771384e-01
5.781966e-01
5.790858e-01
5.796850e-01
5.798973e-01
5.796850e-01
5.790858e-01
5.781966e-01
5.771384e-01
5.760224e-01
5.749313e-01
5.739156e-01
0.000000e+00
1.000000e+00
5.739358e-01
5.749740e-01
5.760893e-01
5.772299e-01
5.783115e-01
5.792204e-01
5.798329e-01
5.800498e-01
5.798329e-01
5.792204e-01
5.783115e-01
5.772299e-01
5.760893e-01
5.749740e-01
5.739358e-01
0.000000e+00
1.000000e+00
5.739316e-01
5.749651e-01
5.760753e-01
5.772108e-01
5.782876e-01
5.791924e-01
5.798021e-01
5.800180e-01
5.798021e-01
5.791924e-01
5.782876e-01
5.772108e-01
5.760753e-01
5.749651e-01
5.739316e-01
0.000000e+00
1.000000e+00
5.739042e-01
5.749073e-01
5.759849e-01
5.770870e-01
5.781321e-01
5.790103e-01
5.796021e-01
5.798117e-01
5.796021e-01
5.790103e-01
5.781321e-01
5.770870e-01
5.759849e-01
5.749073e-01
5.739042e-01
0.000000e+00
1.000000e+00
5.738562e-01
5.748060e-01
5.758264e-01
5.768700e-01
5.778596e-01
5.786912e-01
5.792516e-01
5.794500e-01
5.792516e-01
5.786912e-01
5.778596e-01
5.768700e-01
5.758264e-01
5.748060e-01
5.738562e-01
0.000000e+00
1.000000e+00
5.737910e-01
5.746685e-01
5.756112e-01
5.765753e-01
5.774895e-01
5.782578e-01
5.787755e-01
5.789588e-01
5.787755e-01
5.782578e-01
5.774895e-01
5.765753e-01
5.756112e-01
5.746685e-01
5.737910e-01
0.000000e+00
1.000000e+00
5.737124e-01
5.745027e-01
5.753517e-01
5.762200e-01
5.770434e-01
5.777353e-01
5.782015e-01
5.783666e-01
5.782015e-01
5.777353e-01
5.770434e-01
5.762200e-01
5.753517e-01
5.745027e-01
5.737124e-01
0.000000e+00
1.000000e+00
5.730973e-01
5.732051e-01
5.733210e-01
5.734396e-01
5.735520e-01
5.736464e-01
5.737101e-01
5.737326e-01
5.737101e-01
5.736464e-01
5.735520e-01
5.734396e-01
5.733210e-01
5.732051e-01
5.730973e-01
0.000000e+00
1.000000e+00
5.731768e-01
5.733729e-01
5.735836e-01
5.737991e-01
5.740034e-01
5.741751e-01
5.742908e-01
5.743318e-01
5.742908e-01
5.741751e-01
5.740034e-01
5.737991e-01
5.735836e-01
5.733729e-01
5.731768e-01
0.000000e+00
1.000000e+00
5.732687e-01
5.735668e-01
5.738870e-01
5.742145e-01
5.745251e-01
5.747861e-01
5.749620e-01
5.750242e-01
5.749620e-01
5.747861e-01
5.745251e-01
5.742145e-01
5.738870e-01
5.735668e-01
5.732687e-01
0.000000e+00
1.000000e+00
5.733709e-01
5.737823e-01
5.742243e-01
5.746763e-01
5.751050e-01
5.754652e-01
5.757079e-01
5.757938e-01
5.757079e-01
5.754652e-01
5.751050e-01
5.746763e-01
5.742243e-01
5.737823e-01
5.733709e-01
0.000000e+00
1.000000e+00
5.734798e-01
5.740121e-01
5.745840e-01
5.751688e-01
5.757234e-01
5.761894e-01
5.765035e-01
5.766147e-01
5.765035e-01
5.761894e-01
5.757234e-01
5.751688e-01
5.745840e-01
5.740121e-01
5.734798e-01
0.000000e+00
1.000000e+00
5.735909e-01
5.742464e-01
5.749507e-01
5.756709e-01
5.763539e-01
5.769278e-01
5.773145e-01
5.774515e-01
5.773145e-01
5.769278e-01
5.763539e-01
5.756709e-01
5.749507e-01
5.742464e-01
5.735909e-01
0.000000e+00
1.000000e+00
5.736985e-01
5.744733e-01
5.753057e-01
5.761570e-01
5.769643e-01
5.776427e-01
5.780998e-01
5.782617e-01
5.780998e-01
5.776427e-01
5.769643e-01
5.761570e-01
5.753057e-01
5.744733e-01
5.736985e-01
0.000000e+00
1.000000e+00
5.737963e-01
5.746797e-01
5.756287e-01
5.765993e-01
5.775197e-01
5.782931e-01
5.788143e-01
5.789989e-01
5.788143e-01
5.782931e-01
5.775197e-01
5.765993e-01
5.756287e-01
5.746797e-01
5.737963e-01
0.000000e+00
1.000000e+00
5.738785e-01
5.748530e-01
5.758999e-01
5.769707e-01
5.779860e-01
5.788392e-01
5.794142e-01
5.796178e-01
5.794142e-01
5.788392e-01
5.779860e-01
5.769707e-01
5.758999e-01
5.748530e-01
5.738785e-01
0.000000e+00
1.000000e+00
5.739398e-01
5.749824e-01
5.761024e-01
5.772479e-01
5.783341e-01
5.792469e-01
5.798620e-01
5.800798e-01
5.798620e-01
5.792469e-01
5.783341e-01
5.772479e-01
5.761024e-01
5.749824e-01
5.739398e-01
0.000000e+00
1.000000e+00
5.739766e-01
5.750601e-01
5.762241e-01
5.774145e-01
5.785433e-01
5.794919e-01
5.801311e-01
5.803575e-01
5.801311e-01
5.794919e-01
5.785433e-01
5.774145e-01
5.762241e-01
5.750601e-01
5.739766e-01
0.000000e+00
1.000000e+00
5.739872e-01
5.750825e-01
5.762590e-01
5.774623e-01
5.786034e-01
5.795623e-01
5.802084e-01
5.804372e-01
5.802084e-01
5.795623e-01
5.786034e-01
5.774623e-01
5.762590e-01
5.750825e-01
5.739872e-01
0.000000e+00
1.000000e+00
5.739717e-01
5.750497e-01
5.762078e-01
5.773922e-01
5.785154e-01
5.794592e-01
5.800951e-01
5.803204e-01
5.800951e-01
5.794592e-01
5.785154e-01
5.773922e-01
5.762078e-01
5.750497e-01
5.739717e-01
0.000000e+00
1.000000e+00
5.739320e-01
5.749660e-01
5.760768e-01
5.772128e-01
5.782901e-01
5.791953e-01
5.798053e-01
5.800213e-01
5.798053e-01
5.791953e-01
5.782901e-01
5.772128e-01
5.760768e-01
5.749660e-01
5.739320e-01
0.000000e+00
1.000000e+00
5.738714e-01
5.748381e-01
5.758766e-01
5.769387e-01
5.779458e-01
5.787921e-01
5.793624e-01
5.795644e-01
5.793624e-01
5.787921e-01
5.779458e-01
5.769387e-01
5.758766e-01
5.748381e-01
5.738714e-01
0.000000e+00
1.000000e+00
5.737938e-01
5.746744e-01
5.756205e-01
5.765880e-01
5.775055e-01
5.782765e-01
5.787960e-01
5.789800e-01
5.787960e-01
5.782765e-01
5.775055e-01
5.765880e-01
5.756205e-01
5.746744e-01
5.737938e-01
0.000000e+00
1.000000e+00
5.737036e-01
5.744842e-01
5.753227e-01
5.761804e-01
5.769936e-01
5.776770e-01
5.781375e-01
5.783006e-01
5.781375e-01
5.776770e-01
5.769936e-01
5.761804e-01
5.753227e-01
5.744842e-01
5.737036e-01
0.000000e+00
1.000000e+00
5.731506e-01
5.733177e-01
5.734973e-01
5.736809e-01
5.738550e-01
5.740013e-01
5.740999e-01
5.741348e-01
5.740999e-01
5.740013e-01
5.738550e-01
5.736809e-01
5.734973e-01
5.733177e-01
5.731506e-01
0.000000e+00
1.000000e+00
5.732321e-01
5.734895e-01
5.737660e-01
5.740489e-01
5.743171e-01
5.745424e-01
5.746943e-01
5.747481e-01
5.746943e-01
5.745424e-01
5.743171e-01
5.740489e-01
5.737660e-01
5.734895e-01
5.732321e-01
0.000000e+00
1.000000e+00
5.733260e-01
5.736877e-01
5.740762e-01
5.744736e-01
5.748504e-01
5.751670e-01
5.753804e-01
5.754559e-01
5.753804e-01
5.751670e-01
5.748504e-01
5.744736e-01
5.740762e-01
5.736877e-01
5.733260e-01
0.000000e+00
1.000000e+00
5.734302e-01
5.739075e-01
5.744202e-01
5.749446e-01
5.754418e-01
5.758596e-01
5.761412e-01
5.762409e-01
5.761412e-01
5.758596e-01
5.754418e-01
5.749446e-01
5.744202e-01
5.739075e-01
5.734302e-01
0.000000e+00
1.000000e+00
5.735410e-01
5.741411e-01
5.747857e-01
5.754451e-01
5.760703e-01
5.765957e-01
5.769498e-01
5.770752e-01
5.769498e-01
5.765957e-01
5.760703e-01
5.754451e-01
5.747857e-01
5.741411e-01
5.735410e-01
0.000000e+00
1.000000e+00
5.736532e-01
5.743778e-01
5.751562e-01
5.759523e-01
5.767073e-01
5.773417e-01
5.777691e-01
5.779205e-01
5.777691e-01
5.773417e-01
5.767073e-01
5.759523e-01
5.751562e-01
5.743778e-01
5.736532e-01
0.000000e+00
1.000000e+00
5.737608e-01
5.746047e-01
5.755113e-01
5.764386e-01
5.773179e-01
5.780568e-01
5.785547e-01
5.787310e-01
5.785547e-01
5.780568e-01
5.773179e-01
5.764386e-01
5.755113e-01
5.746047e-01
5.737608e-01
0.000000e+00
1.000000e+00
5.738571e-01
5.748079e-01
5.758293e-01
5.768740e-01
5.778646e-01
5.786971e-01
5.792580e-01
5.794567e-01
5.792580e-01
5.786971e-01
5.778646e-01
5.768740e-01
5.758293e-01
5.748079e-01
5.738571e-01
0.000000e+00
1.000000e+00
5.739358e-01
5.749739e-01
5.760891e-01
5.772297e-01
5.783112e-01
5.792201e-01
5.798325e-01
5.800494e-01
5.798325e-01
5.792201e-01
5.783112e-01
5.772297e-01
5.760891e-01
5.749739e-01
5.739358e-01
0.000000e+00
1.000000e+00
5.739915e-01
5.750914e-01
5.762729e-01
5.774814e-01
5.786273e-01
5.795903e-01
5.802392e-01
5.804690e-01
5.802392e-01
5.795903e-01
5.786273e-01
5.774814e-01
5.762729e-01
5.750914e-01
5.739915e-01
0.000000e+00
1.000000e+00
5.740205e-01
5.751527e-01
5.763690e-01
5.776129e-01
5.787925e-01
5.797837e-01
5.804516e-01
5.806881e-01
5.804516e-01
5.797837e-01
5.787924e-01
5.776129e-01
5.763690e-01
5.751527e-01
5.740205e-01
0.000000e+00
1.000000e+00
5.740215e-01
5.751548e-01
5.763722e-01
5.776174e-01
5.787981e-01
5.797902e-01
5.804588e-01
5.806956e-01
5.804588e-01
5.797902e-01
5.787981e-01
5.776174e-01
5.763722e-01
5.751548e-01
5.740215e-01
0.000000e+00
1.000000e+00
5.739951e-01
5.750990e-01
5.762849e-01
5.774978e-01
5.786480e-01
5.796144e-01
5.802657e-01
5.804964e-01
5.802657e-01
5.796144e-01
5.786480e-01
5.774978e-01
5.762849e-01
5.750990e-01
5.739951e-01
0.000000e+00
1.000000e+00
5.739437e-01
5.749907e-01
5.761155e-01
5.772658e-01
5.783566e-01
5.792732e-01
5.798909e-01
5.801096e-01
5.798909e-01
5.792732e-01
5.783566e-01
5.772658e-01
5.761155e-01
5.749907e-01
5.739438e-01
0.000000e+00
1.000000e+00
5.738714e-01
5.748381e-01
5.758766e-01
5.769388e-01
5.779460e-01
5.787923e-01
5.793627e-01
5.795646e-01
5.793627e-01
5.787923e-01
5.779460e-01
5.769388e-01
5.758766e-01
5.748381e-01
5.738714e-01
0.000000e+00
1.000000e+00
5.737827e-01
5.746510e-01
5.755837e-01
5.765377e-01
5.774423e-01
5.782025e-01
5.787148e-01
5.788962e-01
5.787148e-01
5.782025e-01
5.774423e-01
5.765377e-01
5.755837e-01
5.746510e-01
5.737827e-01
0.000000e+00
1.000000e+00
5.736823e-01
5.744393e-01
5.752525e-01
5.760842e-01
5.768728e-01
5.775355e-01
5.779821e-01
5.781403e-01
5.779821e-01
5.775355e-01
5.768728e-01
5.760842e-01
5.752525e-01
5.744393e-01
5.736823e-01
0.000000e+00
1.000000e+00
5.731897e-01
5.734001e-01
5.736261e-01
5.738572e-01
5.740764e-01
5.742606e-01
5.743847e-01
5.744287e-01
5.743847e-01
5.742606e-01
5.740764e-01
5.738572e-01
5.736261e-01
5.734001e-01
5.731897e-01
0.000000e+00
1.000000e+00
5.732718e-01
5.735734e-01
5.738973e-01
5.742287e-01
5.745428e-01
5.748068e-01
5.749847e-01
5.750477e-01
5.749847e-01
5.748068e-01
5.745428e-01
5.742287e-01
5.738973e-01
5.735734e-01
5.732718e-01
0.000000e+00
1.000000e+00
5.733666e-01
5.737734e-01
5.742103e-01
5.746572e-01
5.750810e-01
5.754371e-01
5.756770e-01
5.757620e-01
5.756770e-01
5.754371e-01
5.750810e-01
5.746572e-01
5.742103e-01
5.737734e-01
5.733666e-01
0.000000e+00
1.000000e+00
5.734717e-01
5.739949e-01
5.745570e-01
5.751319e-01
5.756771e-01
5.761352e-01
5.764439e-01
5.765532e-01
5.764439e-01
5.761352e-01
5.756771e-01
5.751319e-01
5.745570e-01
5.739949e-01
5.734717e-01
0.000000e+00
1.000000e+00
5.735830e-01
5.742298e-01
5.749245e-01
5.756352e-01
5.763090e-01
5.768752e-01
5.772568e-01
5.773919e-01
5.772568e-01
5.768752e-01
5.763090e-01
5.756352e-01
5.749245e-01
5.742298e-01
5.735830e-01
0.000000e+00
1.000000e+00
5.736953e-01
5.744666e-01
5.752951e-01
5.761426e-01
5.769461e-01
5.776214e-01
5.780764e-01
5.782376e-01
5.780764e-01
5.776214e-01
5.769461e-01
5.761426e-01
5.752951e-01
5.744666e-01
5.736953e-01
0.000000e+00
1.000000e+00
5.738019e-01
5.746916e-01
5.756473e-01
5.766248e-01
5.775517e-01
5.783305e-01
5.788554e-01
5.790413e-01
5.788554e-01
5.783305e-01
5.775517e-01
5.766248e-01
5.756473e-01
5.746916e-01
5.738019e-01
0.000000e+00
1.000000e+00
5.738960e-01
5.748900e-01
5.759579e-01
5.770500e-01
5.780857e-01
5.789559e-01
5.795424e-01
5.797500e-01
5.795424e-01
5.789559e-01
5.780857e-01
5.770500e-01
5.759579e-01
5.748900e-01
5.738960e-01
0.000000e+00
1.000000e+00
5.739708e-01
5.750478e-01
5.762047e-01
5.773880e-01
5.785101e-01
5.794530e-01
5.800883e-01
5.803134e-01
5.800883e-01
5.794530e-01
5.785101e-01
5.773880e-01
5.762047e-01
5.750478e-01
5.739708e-01
0.000000e+00
1.000000e+00
5.740208e-01
5.751532e-01
5.763697e-01
5.776139e-01
5.787937e-01
5.797851e-01
5.804532e-01
5.806898e-01
5.804532e-01
5.797851e-01
5.787937e-01
5.776139e-01
5.763697e-01
5.751532e-01
5.740208e-01
0.000000e+00
1.000000e+00
5.740424e-01
5.751988e-01
5.764411e-01
5.777116e-01
5.789164e-01
5.799289e-01
5.806111e-01
5.808527e-01
5.806111e-01
5.799289e-01
5.789164e-01
5.777116e-01
5.764411e-01
5.751988e-01
5.740424e-01
0.000000e+00
1.000000e+00
5.740345e-01
5.751821e-01
5.764149e-01
5.776759e-01
5.788715e-01
5.798762e-01
5.805533e-01
5.807931e-01
5.805533e-01
5.798762e-01
5.788715e-01
5.776759e-01
5.764149e-01
5.751821e-01
5.740345e-01
0.000000e+00
1.000000e+00
5.739982e-01
5.751056e-01
5.762952e-01
5.775118e-01
5.786655e-01
5.796350e-01
5.802883e-01
5.805197e-01
5.802883e-01
5.796350e-01
5.786655e-01
5.775118e-01
5.762952e-01
5.751056e-01
5.739982e-01
0.000000e+00
1.000000e+00
5.739367e-01
5.749758e-01
5.760921e-01
5.772338e-01
5.783163e-01
5.792261e-01
5.798391e-01
5.800562e-01
5.798391e-01
5.792261e-01
5.783163e-01
5.772338e-01
5.760921e-01
5.749758e-01
5.739367e-01
0.000000e+00
1.000000e+00
5.738544e-01
5.748022e-01
5.758204e-01
5.768618e-01
5.778493e-01
5.786791e-01
5.792383e-01
5.794363e-01
5.792383e-01
5.786791e-01
5.778493e-01
5.768618e-01
5.758204e-01
5.748022e-01
5.738544e-01
0.000000e+00
1.000000e+00
5.737565e-01
5.745957e-01
5.754972e-01
5.764192e-01
5.772935e-01
5.780282e-01
5.785233e-01
5.786987e-01
5.785233e-01
5.780282e-01
5.772935e-01
5.764192e-01
5.754972e-01
5.745957e-01
5.737565e-01
0.000000e+00
1.000000e+00
5.736480e-01
5.743670e-01
5.751393e-01
5.759292e-01
5.766782e-01
5.773076e-01
5.777318e-01
5.778820e-01
5.777318e-01
5.773076e-01
5.766782e-01
5.759292e-01
5.751393e-01
5.743670e-01
5.736481e-01
0.000000e+00
1.000000e+00
5.732107e-01
5.734445e-01
5.736956e-01
5.739525e-01
5.741960e-01
5.744007e-01
5.745386e-01
5.745875e-01
5.745386e-01
5.744007e-01
5.741960e-01
5.739525e-01
5.736956e-01
5.734445e-01
5.732107e-01
0.000000e+00
1.000000e+00
5.732922e-01
5.736163e-01
5.739644e-01
5.743205e-01
5.746582e-01
5.749420e-01
5.751332e-01
5.752009e-01
5.751332e-01
5.749420e-01
5.746582e-01
5.743205e-01
5.739644e-01
5.736163e-01
5.732922e-01
0.000000e+00
1.000000e+00
5.733862e-01
5.738147e-01
5.742750e-01
5.747458e-01
5.751922e-01
5.755674e-01
5.758202e-01
5.759097e-01
5.758202e-01
5.755674e-01
5.751922e-01
5.747458e-01
5.742750e-01
5.738147e-01
5.733862e-01
0.000000e+00
1.000000e+00
5.734905e-01
5.740347e-01
5.746192e-01
5.752171e-01
5.757840e-01
5.762605e-01
5.765815e-01
5.766952e-01
5.765815e-01
5.762605e-01
5.757840e-01
5.752171e-01
5.746192e-01
5.740347e-01
5.734905e-01
0.000000e+00
1.000000e+00
5.736009e-01
5.742675e-01
5.749837e-01
5.757161e-01
5.764107e-01
5.769943e-01
5.773876e-01
5.775269e-01
5.773876e-01
5.769943e-01
5.764107e-01
5.757161e-01
5.749837e-01
5.742675e-01
5.736009e-01
0.000000e+00
1.000000e+00
5.737118e-01
5.745016e-01
5.753499e-01
5.762176e-01
5.770403e-01
5.777317e-01
5.781976e-01
5.783626e-01
5.781976e-01
5.777317e-01
5.770403e-01
5.762176e-01
5.753499e-01
5.745016e-01
5.737119e-01
0.000000e+00
1.000000e+00
5.738165e-01
5.747224e-01
5.756955e-01
5.766908e-01
5.776346e-01
5.784277e-01
5.789621e-01
5.791513e-01
5.789621e-01
5.784277e-01
5.776346e-01
5.766908e-01
5.756955e-01
5.747224e-01
5.738165e-01
0.000000e+00
1.000000e+00
5.739077e-01
5.749146e-01
5.759964e-01
5.771028e-01
5.781518e-01
5.790334e-01
5.796275e-01
5.798379e-01
5.796275e-01
5.790334e-01
5.781518e-01
5.771028e-01
5.759964e-01
5.749146e-01
5.739077e-01
0.000000e+00
1.000000e+00
5.739783e-01
5.750636e-01
5.762296e-01
5.774221e-01
5.785528e-01
5.795030e-01
5.801433e-01
5.803701e-01
5.801433e-01
5.795030e-01
5.785528e-01
5.774221e-01
5.762296e-01
5.750637e-01
5.739783e-01
0.000000e+00
1.000000e+00
5.740229e-01
5.751576e-01
5.763767e-01
5.776235e-01
5.788057e-01
5.797992e-01
5.804686e-01
5.807057e-01
5.804686e-01
5.797992e-01
5.788057e-01
5.776235e-01
5.763767e-01
5.751576e-01
5.740229e-01
0.000000e+00
1.000000e+00
5.740379e-01
5.751893e-01
5.764263e-01
5.776914e-01
5.788910e-01
5.798991e-01
5.805784e-01
5.808190e-01
5.805784e-01
5.798991e-01
5.788910e-01
5.776914e-01
5.764263e-01
5.751893e-01
5.740379e-01
0.000000e+00
1.000000e+00
5.740225e-01
5.751569e-01
5.763755e-01
5.776218e-01
5.788036e-01
5.797968e-01
5.804660e-01
5.807030e-01
5.804660e-01
5.797968e-01
5.788036e-01
5.776218e-01
5.763755e-01
5.751569e-01
5.740225e-01
0.000000e+00
1.000000e+00
5.739783e-01
5.750636e-01
5.762295e-01
5.774220e-01
5.785527e-01
5.795029e-01
5.801431e-01
5.803699e-01
5.801431e-01
5.795029e-01
5.785527e-01
5.774220e-01
5.762295e-01
5.750636e-01
5.739783e-01
0.000000e+00
1.000000e+00
5.739089e-01
5.749172e-01
5.760004e-01
5.771082e-01
5.781587e-01
5.790415e-01
5.796363e-01
5.798470e-01
5.796363e-01
5.790415e-01
5.781587e-01
5.771082e-01
5.760004e-01
5.749172e-01
5.739089e-01
0.000000e+00
1.000000e+00
5.738192e-01
5.747281e-01
5.757044e-01
5.767029e-01
5.776498e-01
5.784455e-01
5.789816e-01
5.791715e-01
5.789816e-01
5.784455e-01
5.776498e-01
5.767029e-01
5.757044e-01
5.747281e-01
5.738192e-01
0.000000e+00
1.000000e+00
5.737148e-01
5.745078e-01
5.753597e-01
5.762310e-01
5.770572e-01
5.777515e-01
5.782193e-01
5.783850e-01
5.782193e-01
5.777515e-01
5.770572e-01
5.762310e-01
5.753597e-01
5.745078e-01
5.737148e-01
0.000000e+00
1.000000e+00
5.736011e-01
5.742679e-01
5.749842e-01
5.757169e-01
5.764116e-01
5.769954e-01
5.773887e-01
5.775281e-01
5.773887e-01
5.769954e-01
5.764116e-01
5.757169e-01
5.749842e-01
5.742679e-01
5.736011e-01
0.000000e+00
1.000000e+00
5.732109e-01
5.734449e-01
5.736963e-01
5.739533e-01
5.741971e-01
5.744019e-01
5.745400e-01
5.745889e-01
5.745400e-01
5.744019e-01
5.741971e-01
5.739533e-01
5.736963e-01
5.734449e-01
5.732109e-01
0.000000e+00
1.000000e+00
5.732898e-01
5.736113e-01
5.739567e-01
5.743099e-01
5.746448e-01
5.749263e-01
5.751160e-01
5.751831e-01
5.751160e-01
5.749263e-01
5.746448e-01
5.743099e-01
5.739567e-01
5.736113e-01
5.732898e-01
0.000000e+00
1.000000e+00
5.733813e-01
5.738043e-01
5.742587e-01
5.747234e-01
5.751641e-01
5.755344e-01
5.757839e-01
5.758723e-01
5.757839e-01
5.755344e-01
5.751641e-01
5.747234e-01
5.742587e-01
5.738043e-01
5.733813e-01
0.000000e+00
1.000000e+00
5.734829e-01
5.740186e-01
5.745941e-01
5.751827e-01
5.757409e-01
5.762099e-01
5.765259e-01
5.766379e-01
5.765259e-01
5.762099e-01
5.757409e-01
5.751827e-01
5.745941e-01
5.740186e-01
5.734829e-01
0.000000e+00
1.000000e+00
5.735906e-01
5.742458e-01
5.749496e-01
5.756695e-01
5.763521e-01
5.769257e-01
5.773122e-01
5.774491e-01
5.773122e-01
5.769257e-01
5.763521e-01
5.756695e-01
5.749496e-01
5.742458e-01
5.735906e-01
0.000000e+00
1.000000e+00
5.736987e-01
5.744737e-01
5.753064e-01
5.761580e-01
5.769655e-01
5.776441e-01
5.781013e-01
5.782633e-01
5.781013e-01
5.776441e-01
5.769655e-01
5.761580e-01
5.753064e-01
5.744737e-01
5.736987e-01
0.000000e+00
1.000000e+00
5.738002e-01
5.746880e-01
5.756416e-01
5.766170e-01
5.775419e-01
5.783191e-01
5.788429e-01
5.790283e-01
5.788429e-01
5.783191e-01
5.775419e-01
5.766170e-01
5.756416e-01
5.746880e-01
5.738002e-01
0.000000e+00
1.000000e+00
5.738878e-01
5.748727e-01
5.759307e-01
5.770129e-01
5.780390e-01
5.789013e-01
5.794823e-01
5.796881e-01
5.794823e-01
5.789013e-01
5.780390e-01
5.770129e-01
5.759307e-01
5.748727e-01
5.738878e-01
0.000000e+00
1.000000e+00
5.739543e-01
5.750131e-01
5.761504e-01
5.773137e-01
5.784167e-01
5.793436e-01
5.799682e-01
5.801894e-01
5.799682e-01
5.793436e-01
5.784167e-01
5.773137e-01
5.761504e-01
5.750131e-01
5.739543e-01
0.000000e+00
1.000000e+00
5.739943e-01
5.750973e-01
5.762822e-01
5.774941e-01
5.786432e-01
5.796089e-01
5.802596e-01
5.804901e-01
5.802596e-01
5.796089e-01
5.786432e-01
5.774941e-01
5.762822e-01
5.750973e-01
5.739943e-01
0.000000e+00
1.000000e+00
5.740042e-01
5.751182e-01
5.763150e-01
5.775390e-01
5.786996e-01
5.796750e-01
5.803322e-01
5.805650e-01
5.803322e-01
5.796750e-01
5.786996e-01
5.775390e-01
5.763150e-01
5.751182e-01
5.740042e-01
0.000000e+00
1.000000e+00
5.739835e-01
5.750745e-01
5.762466e-01
5.774454e-01
5.785821e-01
5.795373e-01
5.801810e-01
5.804089e-01
5.801810e-01
5.795373e-01
5.785821e-01
5.774454e-01
5.762466e-01
5.750745e-01
5.739835e-01
0.000000e+00
1.000000e+00
5.739340e-01
5.749702e-01
5.760834e-01
5.772219e-01
5.783014e-01
5.792086e-01
5.798199e-01
5.800364e-01
5.798199e-01
5.792086e-01
5.783014e-01
5.772219e-01
5.760834e-01
5.749702e-01
5.739340e-01
0.000000e+00
1.000000e+00
5.738598e-01
5.748137e-01
5.758384e-01
5.768864e-01
5.778802e-01
5.787153e-01
5.792780e-01
5.794773e-01
5.792780e-01
5.787153e-01
5.778802e-01
5.768864e-01
5.758384e-01
5.748137e-01
5.738598e-01
0.000000e+00
1.000000e+00
5.737661e-01
5.746159e-01
5.755289e-01
5.764627e-01
5.773481e-01
5.780922e-01
5.785935e-01
5.787711e-01
5.785935e-01
5.780922e-01
5.773481e-01
5.764627e-01
5.755289e-01
5.746159e-01
5.737661e-01
0.000000e+00
1.000000e+00
5.736585e-01
5.743890e-01
5.751738e-01
5.759765e-01
5.767376e-01
5.773772e-01
5.778082e-01
5.779608e-01
5.778082e-01
5.773772e-01
5.767376e-01
5.759765e-01
5.751738e-01
5.743890e-01
5.736585e-01
0.000000e+00
1.000000e+00
5.735426e-01
5.741446e-01
5.747913e-01
5.754527e-01
5.760799e-01
5.766070e-01
5.769621e-01
5.770879e-01
5.769621e-01
5.766070e-01
5.760799e-01
5.754527e-01
5.747913e-01
5.741446e-01
5.735426e-01
0.000000e+00
1.000000e+00
5.731884e-01
5.733973e-01
5.736218e-01
5.738514e-01
5.740690e-01
5.742520e-01
5.743753e-01
5.744189e-01
5.743753e-01
5.742520e-01
5.740690e-01
5.738514e-01
5.736218e-01
5.733973e-01
5.731884e-01
0.000000e+00
1.000000e+00
5.732628e-01
5.735542e-01
5.738674e-01
5.741876e-01
5.744913e-01
5.747465e-01
5.749185e-01
5.749794e-01
5.749185e-01
5.747465e-01
5.744913e-01
5.741876e-01
5.738674e-01
5.735542e-01
5.732628e-01
0.000000e+00
1.000000e+00
5.733496e-01
5.737374e-01
5.741541e-01
5.745802e-01
5.749842e-01
5.753238e-01
5.755526e-01
5.756336e-01
5.755526e-01
5.753238e-01
5.749842e-01
5.745802e-01
5.741541e-01
5.737374e-01
5.733496e-01
0.000000e+00
1.000000e+00
5.734466e-01
5.739419e-01
5.744741e-01
5.750184e-01
5.755345e-01
5.759683e-01
5.762605e-01
5.763640e-01
5.762605e-01
5.759683e-01
5.755345e-01
5.750184e-01
5.744741e-01
5.739419e-01
5.734466e-01
0.000000e+00
1.000000e+00
5.735496e-01
5.741594e-01
5.748144e-01
5.754844e-01
5.761197e-01
5.766535e-01
5.770132e-01
5.771407e-01
5.770132e-01
5.766535e-01
5.761197e-01
5.754844e-01
5.748144e-01
5.741594e-01
5.735496e-01
0.000000e+00
1.000000e+00
5.736533e-01
5.743780e-01
5.751566e-01
5.759529e-01
5.767079e-01
5.773424e-01
5.777700e-01
5.779214e-01
5.777700e-01
5.773424e-01
5.767079e-01
5.759529e-01
5.751566e-01
5.743780e-01
5.736533e-01
0.000000e+00
1.000000e+00
5.737506e-01
5.745833e-01
5.754779e-01
5.763928e-01
5.772603e-01
5.779894e-01
5.784806e-01
5.786546e-01
5.784806e-01
5.779894e-01
5.772603e-01
5.763928e-01
5.754779e-01
5.745833e-01
5.737506e-01
0.000000e+00
1.000000e+00
5.738342e-01
5.747596e-01
5.757538e-01
5.767706e-01
5.777347e-01
5.785450e-01
5.790909e-01
5.792843e-01
5.790909e-01
5.785450e-01
5.777347e-01
5.767706e-01
5.757538e-01
5.747596e-01
5.738342e-01
0.000000e+00
1.000000e+00
5.738970e-01
5.748921e-01
5.759612e-01
5.770545e-01
5.780913e-01
5.789625e-01
5.795496e-01
5.797575e-01
5.795496e-01
5.789625e-01
5.780913e-01
5.770545e-01
5.759612e-01
5.748921e-01
5.738970e-01
0.000000e+00
1.000000e+00
5.739335e-01
5.749691e-01
5.760816e-01
5.772195e-01
5.782984e-01
5.792051e-01
5.798160e-01
5.800324e-01
5.798160e-01
5.792051e-01
5.782984e-01
5.772195e-01
5.760816e-01
5.749691e-01
5.739335e-01
0.000000e+00
1.000000e+00
5.739404e-01
5.749837e-01
5.761044e-01
5.772507e-01
5.783376e-01
5.792509e-01
5.798664e-01
5.800844e-01
5.798664e-01
5.792509e-01
5.783376e-01
5.772507e-01
5.761044e-01
5.749837e-01
5.739404e-01
0.000000e+00
1.000000e+00
5.739172e-01
5.749346e-01
5.760277e-01
5.771456e-01
5.782057e-01
5.790965e-01
5.796967e-01
5.799093e-01
5.796967e-01
5.790965e-01
5.782057e-01
5.771456e-01
5.760277e-01
5.749346e-01
5.739172e-01
0.000000e+00
1.000000e+00
5.738658e-01
5.748264e-01
5.758582e-01
5.769136e-01
5.779143e-01
5.787552e-01
5.793219e-01
5.795226e-01
5.793219e-01
5.787552e-01
5.779143e-01
5.769136e-01
5.758582e-01
5.748264e-01
5.738658e-01
0.000000e+00
1.000000e+00
5.737905e-01
5.746674e-01
5.756095e-01
5.765730e-01
5.774867e-01
5.782544e-01
5.787718e-01
5.789550e-01
5.787718e-01
5.782544e-01
5.774867e-01
5.765730e-01
5.756095e-01
5.746674e-01
5.737905e-01
0.000000e+00
1.000000e+00
5.736965e-01
5.744691e-01
5.752991e-01
5.761480e-01
5.769529e-01
5.776294e-01
5.780852e-01
5.782466e-01
5.780852e-01
5.776294e-01
5.769529e-01
5.761480e-01
5.752991e-01
5.744691e-01
5.736965e-01
0.000000e+00
1.000000e+00
5.735895e-01
5.742434e-01
5.749459e-01
5.756644e-01
5.763457e-01
5.769182e-01
5.773040e-01
5.774406e-01
5.773040e-01
5.769182e-01
5.763457e-01
5.756644e-01
5.749459e-01
5.742434e-01
5.735895e-01
0.000000e+00
1.000000e+00
5.734750e-01
5.740019e-01
5.745680e-01
5.751469e-01
5.756959e-01
5.761572e-01
5.764681e-01
5.765782e-01
5.764681e-01
5.761572e-01
5.756959e-01
5.751469e-01
5.745680e-01
5.740019e-01
5.734750e-01
0.000000e+00
1.000000e+00
5.731427e-01
5.733009e-01
5.734709e-01
5.736448e-01
5.738097e-01
5.739482e-01
5.740416e-01
5.740747e-01
5.740416e-01
5.739482e-01
5.738097e-01
5.736448e-01
5.734709e-01
5.733009e-01
5.731427e-01
0.000000e+00
1.000000e+00
5.732107e-01
5.734444e-01
5.736955e-01
5.739523e-01
5.741958e-01
5.744004e-01
5.745383e-01
5.745872e-01
5.745383e-01
5.744004e-01
5.741958e-01
5.739523e-01
5.736955e-01
5.734444e-01
5.732107e-01
0.000000e+00
1.000000e+00
5.732910e-01
5.736137e-01
5.739605e-01
5.743151e-01
5.746514e-01
5.749340e-01
5.751244e-01
5.751919e-01
5.751244e-01
5.749340e-01
5.746514e-01
5.743151e-01
5.739605e-01
5.736137e-01
5.732910e-01
0.000000e+00
1.000000e+00
5.733813e-01
5.738044e-01
5.742588e-01
5.747237e-01
5.751644e-01
5.755348e-01
5.757843e-01
5.758727e-01
5.757843e-01
5.755348e-01
5.751644e-01
5.747237e-01
5.742588e-01
5.738044e-01
5.733813e-01
0.000000e+00
1.000000e+00
5.734781e-01
5.740085e-01
5.745782e-01
5.751610e-01
5.757136e-01
5.761779e-01
5.764908e-01
5.766016e-01
5.764908e-01
5.761779e-01
5.757136e-01
5.751610e-01
5.745782e-01
5.740085e-01
5.734781e-01
0.000000e+00
1.000000e+00
5.735759e-01
5.742148e-01
5.749011e-01
5.756030e-01
5.762686e-01
5.768280e-01
5.772049e-01
5.773384e-01
5.772049e-01
5.768280e-01
5.762686e-01
5.756030e-01
5.749011e-01
5.742148e-01
5.735759e-01
0.000000e+00
1.000000e+00
5.736681e-01
5.744093e-01
5.752055e-01
5.760199e-01
5.767921e-01
5.774410e-01
5.778783e-01
5.780332e-01
5.778783e-01
5.774410e-01
5.767921e-01
5.760199e-01
5.752055e-01
5.744093e-01
5.736681e-01
0.000000e+00
1.000000e+00
5.737476e-01
5.745769e-01
5.754678e-01
5.763790e-01
5.772430e-01
5.779690e-01
5.784583e-01
5.786316e-01
5.784583e-01
5.779690e-01
5.772430e-01
5.763790e-01
5.754678e-01
5.745769e-01
5.737476e-01
0.000000e+00
1.000000e+00
5.738073e-01
5.747030e-01
5.756651e-01
5.766492e-01
5.775823e-01
5.783664e-01
5.788948e-01
5.790819e-01
5.788948e-01
5.783664e-01
5.775823e-01
5.766492e-01
5.756651e-01
5.747030e-01
5.738073e-01
0.000000e+00
1.000000e+00
5.738420e-01
5.747761e-01
5.757796e-01
5.768059e-01
5.777791e-01
5.785969e-01
5.791479e-01
5.793431e-01
5.791479e-01
5.785969e-01
5.777791e-01
5.768059e-01
5.757796e-01
5.747761e-01
5.738420e-01
0.000000e+00
1.000000e+00
5.738483e-01
5.747894e-01
5.758004e-01
5.768345e-01
5.778150e-01
5.786389e-01
5.791941e-01
5.793908e-01
5.791941e-01
5.786389e-01
5.778150e-01
5.768345e-01
5.758004e-01
5.747894e-01
5.738483e-01
0.000000e+00
1.000000e+00
5.738257e-01
5.747418e-01
5.757259e-01
5.767324e-01
5.776868e-01
5.784888e-01
5.790292e-01
5.792206e-01
5.790292e-01
5.784888e-01
5.776868e-01
5.767324e-01
5.757259e-01
5.747418e-01
5.738257e-01
0.000000e+00
1.000000e+00
5.737762e-01
5.746373e-01
5.755624e-01
5.765085e-01
5.774056e-01
5.781595e-01
5.786675e-01
5.788475e-01
5.786675e-01
5.781595e-01
5.774056e-01
5.765085e-01
5.755624e-01
5.746373e-01
5.737762e-01
0.000000e+00
1.000000e+00
5.737037e-01
5.744844e-01
5.753230e-01
5.761807e-01
5.769941e-01
5.776775e-01
5.781381e-01
5.783012e-01
5.781381e-01
5.776775e-01
5.769941e-01
5.761807e-01
5.753230e-01
5.744844e-01
5.737037e-01
0.000000e+00
1.000000e+00
5.736134e-01
5.742938e-01
5.750248e-01
5.757725e-01
5.764814e-01
5.770771e-01
5.774786e-01
5.776207e-01
5.774786e-01
5.770771e-01
5.764814e-01
5.757725e-01
5.750248e-01
5.742938e-01
5.736134e-01
0.000000e+00
1.000000e+00
5.735108e-01
5.740774e-01
5.746861e-01
5.753087e-01
5.758991e-01
5.763952e-01
5.767295e-01