<?xml version="1.0"?>
<VTKFile type="StructuredGrid" version="0.1">
  <StructuredGrid WholeExtent="0 16 0 16 0 16">
    <Piece Extent="0 16 0 16 0 16">
      <PointData Scalars="temperature" Vectors="velocity">
        <DataArray type="Float32" Name="temperature" format="ascii">
1.000000e+00
5.733786e-01
5.736903e-01
5.740783e-01
5.744754e-01
5.748521e-01
5.751689e-01
5.753825e-01
5.754577e-01
5.753808e-01
5.751650e-01
5.748486e-01
5.745115e-01
5.741386e-01
5.737487e-01
5.731607e-01
0.000000e+00
1.000000e+00
5.726145e-01
5.721647e-01
5.716855e-01
5.711991e-01
5.707383e-01
5.703517e-01
5.700918e-01
5.699999e-01
5.700922e-01
5.703523e-01
5.707456e-01
5.712706e-01
5.717544e-01
5.722269e-01
5.724366e-01
0.000000e+00
1.000000e+00
5.717232e-01
5.703577e-01
5.688539e-01
5.673224e-01
5.658708e-01
5.646523e-01
5.638325e-01
5.635437e-01
5.638375e-01
5.646624e-01
5.658969e-01
5.674172e-01
5.689375e-01
5.704275e-01
5.715789e-01
0.000000e+00
1.000000e+00
5.707194e-01
5.683049e-01
5.656390e-01
5.629207e-01
5.603442e-01
5.581811e-01
5.567260e-01
5.562144e-01
5.567375e-01
5.582035e-01
5.603896e-01
5.630221e-01
5.657284e-01
5.683742e-01
5.706035e-01
0.000000e+00
1.000000e+00
5.696382e-01
5.660670e-01
5.621355e-01
5.581239e-01
5.543214e-01
5.511287e-01
5.489815e-01
5.482274e-01
5.490004e-01
5.511641e-01
5.543835e-01
5.582318e-01
5.622273e-01
5.661353e-01
5.695421e-01
0.000000e+00
1.000000e+00
5.685173e-01
5.637304e-01
5.584774e-01
5.531151e-01
5.480323e-01
5.437649e-01
5.408951e-01
5.398883e-01
5.409221e-01
5.438142e-01
5.481105e-01
5.532332e-01
5.585701e-01
5.637978e-01
5.684311e-01
0.000000e+00
1.000000e+00
5.673974e-01
5.614009e-01
5.548314e-01
5.481226e-01
5.417638e-01
5.364254e-01
5.328361e-01
5.315775e-01
5.328713e-01
5.364896e-01
5.418578e-01
5.482539e-01
5.549256e-01
5.614680e-01
5.673241e-01
0.000000e+00
1.000000e+00
5.663362e-01
5.591967e-01
5.513838e-01
5.434021e-01
5.358372e-01
5.294869e-01
5.252179e-01
5.237214e-01
5.252613e-01
5.295658e-01
5.359465e-01
5.435503e-01
5.514804e-01
5.592639e-01
5.662775e-01
0.000000e+00
1.000000e+00
5.654001e-01
5.572389e-01
5.483237e-01
5.392123e-01
5.305775e-01
5.233299e-01
5.184580e-01
5.167508e-01
5.185086e-01
5.234221e-01
5.307007e-01
5.393780e-01
5.484287e-01
5.573056e-01
5.653591e-01
0.000000e+00
1.000000e+00
5.646474e-01
5.556380e-01
5.458218e-01
5.357871e-01
5.262782e-01
5.182976e-01
5.129332e-01
5.110532e-01
5.129886e-01
5.183997e-01
5.264124e-01
5.359630e-01
5.459439e-01
5.556991e-01
5.646229e-01
0.000000e+00
1.000000e+00
5.641121e-01
5.544788e-01
5.440111e-01
5.333087e-01
5.231680e-01
5.146572e-01
5.089363e-01
5.069309e-01
5.089943e-01
5.147654e-01
5.233125e-01
5.334777e-01
5.441584e-01
5.545391e-01
5.640526e-01
0.000000e+00
1.000000e+00
5.638158e-01
5.538135e-01
5.429737e-01
5.318898e-01
5.213877e-01
5.125734e-01
5.066478e-01
5.045699e-01
5.067062e-01
5.126830e-01
5.215415e-01
5.320344e-01
5.431352e-01
5.538979e-01
5.635905e-01
0.000000e+00
1.000000e+00
5.637689e-01
5.536616e-01
5.427361e-01
5.315653e-01
5.209805e-01
5.120963e-01
5.061233e-01
5.040280e-01
5.061802e-01
5.122039e-01
5.211382e-01
5.316840e-01
5.429038e-01
5.537891e-01
5.633255e-01
0.000000e+00
1.000000e+00
5.639463e-01
5.540038e-01
5.432699e-01
5.322958e-01
5.218972e-01
5.131688e-01
5.073000e-01
5.052406e-01
5.073541e-01
5.132708e-01
5.220447e-01
5.324121e-01
5.434409e-01
5.542385e-01
5.631029e-01
0.000000e+00
1.000000e+00
5.643129e-01
5.547911e-01
5.445012e-01
5.339817e-01
5.240130e-01
5.156452e-01
5.100185e-01
5.080435e-01
5.100687e-01
5.157396e-01
5.241429e-01
5.341125e-01
5.446519e-01
5.550828e-01
5.634163e-01
0.000000e+00
1.000000e+00
5.648526e-01
5.559576e-01
5.463266e-01
5.364809e-01
5.271505e-01
5.193182e-01
5.140514e-01
5.122024e-01
5.140973e-01
5.194038e-01
5.272630e-01
5.366198e-01
5.464680e-01
5.563059e-01
5.641291e-01
0.000000e+00
1.000000e+00
5.654877e-01
5.574295e-01
5.486247e-01
5.396276e-01
5.311016e-01
5.239448e-01
5.191328e-01
5.174442e-01
5.191767e-01
5.240258e-01
5.312063e-01
5.397735e-01
5.487562e-01
5.578954e-01
5.640235e-01
0.000000e+00
1.000000e+00
5.726584e-01
5.722327e-01
5.717949e-01
5.713486e-01
5.709257e-01
5.705708e-01
5.703318e-01
5.702471e-01
5.703314e-01
5.705705e-01
5.709323e-01
5.713989e-01
5.718445e-01
5.722867e-01
5.724586e-01
0.000000e+00
1.000000e+00
5.718781e-01
5.706454e-01
5.693072e-01
5.679428e-01
5.666494e-01
5.655634e-01
5.648325e-01
5.645747e-01
5.648364e-01
5.655722e-01
5.666740e-01
5.680152e-01
5.693703e-01
5.707037e-01
5.717098e-01
0.000000e+00
1.000000e+00
5.709629e-01
5.687724e-01
5.663734e-01
5.639259e-01
5.616060e-01
5.596580e-01
5.583473e-01
5.578860e-01
5.583566e-01
5.596770e-01
5.616464e-01
5.640087e-01
5.664544e-01
5.688401e-01
5.708231e-01
0.000000e+00
1.000000e+00
5.699303e-01
5.666523e-01
5.630537e-01
5.593809e-01
5.558995e-01
5.529761e-01
5.510096e-01
5.503185e-01
5.510255e-01
5.530067e-01
5.559546e-01
5.594704e-01
5.631368e-01
5.667184e-01
5.698088e-01
0.000000e+00
1.000000e+00
5.688203e-01
5.643514e-01
5.594522e-01
5.544499e-01
5.497082e-01
5.457271e-01
5.430493e-01
5.421092e-01
5.430727e-01
5.457704e-01
5.497785e-01
5.545495e-01
5.595397e-01
5.644206e-01
5.687139e-01
0.000000e+00
1.000000e+00
5.676710e-01
5.619639e-01
5.557159e-01
5.493340e-01
5.432851e-01
5.382067e-01
5.347918e-01
5.335936e-01
5.348231e-01
5.382642e-01
5.433716e-01
5.494470e-01
5.558064e-01
5.620348e-01
5.675780e-01
0.000000e+00
1.000000e+00
5.665382e-01
5.596059e-01
5.520274e-01
5.442837e-01
5.369445e-01
5.307836e-01
5.266415e-01
5.251887e-01
5.266811e-01
5.308559e-01
5.370483e-01
5.444127e-01
5.521213e-01
5.596797e-01
5.664559e-01
0.000000e+00
1.000000e+00
5.654916e-01
5.574076e-01
5.485907e-01
5.395782e-01
5.310373e-01
5.238685e-01
5.190493e-01
5.173597e-01
5.190967e-01
5.239549e-01
5.311582e-01
5.397256e-01
5.486893e-01
5.574837e-01
5.654083e-01
0.000000e+00
1.000000e+00
5.645909e-01
5.555000e-01
5.456095e-01
5.354967e-01
5.259141e-01
5.178717e-01
5.124656e-01
5.105704e-01
5.125192e-01
5.179703e-01
5.260503e-01
5.356595e-01
5.457180e-01
5.555790e-01
5.645009e-01
0.000000e+00
1.000000e+00
5.638857e-01
5.539984e-01
5.432639e-01
5.322860e-01
5.218849e-01
5.131558e-01
5.072880e-01
5.052305e-01
5.073455e-01
5.132630e-01
5.220328e-01
5.324546e-01
5.433889e-01
5.540776e-01
5.637919e-01
0.000000e+00
1.000000e+00
5.634214e-01
5.529903e-01
5.416893e-01
5.301317e-01
5.191816e-01
5.099917e-01
5.038136e-01
5.016467e-01
5.038730e-01
5.101034e-01
5.193373e-01
5.302899e-01
5.418361e-01
5.530707e-01
5.633558e-01
0.000000e+00
1.000000e+00
5.632166e-01
5.525250e-01
5.409622e-01
5.291370e-01
5.179334e-01
5.085301e-01
5.022082e-01
4.999904e-01
5.022679e-01
5.086428e-01
5.180931e-01
5.292771e-01
5.411132e-01
5.526174e-01
5.631553e-01
0.000000e+00
1.000000e+00
5.632493e-01
5.526111e-01
5.410940e-01
5.293170e-01
5.181585e-01
5.087929e-01
5.024961e-01
5.002867e-01
5.025545e-01
5.089032e-01
5.183169e-01
5.294432e-01
5.412435e-01
5.526963e-01
5.632476e-01
0.000000e+00
1.000000e+00
5.635144e-01
5.532173e-01
5.420360e-01
5.306053e-01
5.197745e-01
5.106838e-01
5.045716e-01
5.024268e-01
5.046275e-01
5.107888e-01
5.199216e-01
5.307384e-01
5.421840e-01
5.533150e-01
5.633290e-01
0.000000e+00
1.000000e+00
5.639953e-01
5.542800e-01
5.436925e-01
5.328727e-01
5.226197e-01
5.140136e-01
5.082273e-01
5.061966e-01
5.082796e-01
5.141111e-01
5.227509e-01
5.330182e-01
5.438094e-01
5.543950e-01
5.637437e-01
0.000000e+00
1.000000e+00
5.646600e-01
5.557188e-01
5.459388e-01
5.359486e-01
5.264810e-01
5.185336e-01
5.131899e-01
5.113145e-01
5.132378e-01
5.186220e-01
5.265969e-01
5.360946e-01
5.460548e-01
5.558961e-01
5.644881e-01
0.000000e+00
1.000000e+00
5.654975e-01
5.574446e-01
5.486395e-01
5.396467e-01
5.311240e-01
5.239694e-01
5.191583e-01
5.174695e-01
5.192008e-01
5.240475e-01
5.312272e-01
5.397942e-01
5.487647e-01
5.578089e-01
5.643067e-01
0.000000e+00
1.000000e+00
5.720448e-01
5.709705e-01
5.698185e-01
5.686426e-01
5.675278e-01
5.665914e-01
5.659609e-01
5.657382e-01
5.659631e-01
5.665972e-01
5.675456e-01
5.686927e-01
5.698647e-01
5.710209e-01
5.718543e-01
0.000000e+00
1.000000e+00
5.712486e-01
5.693362e-01
5.672581e-01
5.651369e-01
5.631262e-01
5.614374e-01
5.603007e-01
5.599002e-01
5.603076e-01
5.614526e-01
5.631591e-01
5.651959e-01
5.673132e-01
5.693870e-01
5.710878e-01
0.000000e+00
1.000000e+00
5.703140e-01
5.674127e-01
5.642458e-01
5.610127e-01
5.579478e-01
5.553741e-01
5.536422e-01
5.530329e-01
5.536546e-01
5.553992e-01
5.579945e-01
5.610824e-01
5.643153e-01
5.674720e-01
5.701841e-01
0.000000e+00
1.000000e+00
5.692609e-01
5.652414e-01
5.608468e-01
5.563590e-01
5.521050e-01
5.485328e-01
5.461296e-01
5.452850e-01
5.461484e-01
5.485692e-01
5.521656e-01
5.564386e-01
5.609212e-01
5.653028e-01
5.691483e-01
0.000000e+00
1.000000e+00
5.681298e-01
5.628942e-01
5.571737e-01
5.513299e-01
5.457908e-01
5.411400e-01
5.380119e-01
5.369133e-01
5.380381e-01
5.411896e-01
5.458677e-01
5.514220e-01
5.572532e-01
5.629608e-01
5.680363e-01
0.000000e+00
1.000000e+00
5.669641e-01
5.604727e-01
5.533856e-01
5.461435e-01
5.392794e-01
5.335168e-01
5.296417e-01
5.282814e-01
5.296759e-01
5.335808e-01
5.393749e-01
5.462512e-01
5.534699e-01
5.605438e-01
5.668877e-01
0.000000e+00
1.000000e+00
5.658294e-01
5.581034e-01
5.496810e-01
5.410713e-01
5.329118e-01
5.260626e-01
5.214575e-01
5.198417e-01
5.214998e-01
5.261412e-01
5.330276e-01
5.411966e-01
5.497703e-01
5.581796e-01
5.657638e-01
0.000000e+00
1.000000e+00
5.647997e-01
5.559280e-01
5.462798e-01
5.364146e-01
5.270665e-01
5.192205e-01
5.139456e-01
5.120952e-01
5.139950e-01
5.193127e-01
5.272019e-01
5.365576e-01
5.463751e-01
5.560074e-01
5.647293e-01
0.000000e+00
1.000000e+00
5.639349e-01
5.540850e-01
5.433993e-01
5.324716e-01
5.221180e-01
5.134285e-01
5.075866e-01
5.055372e-01
5.076414e-01
5.135316e-01
5.222694e-01
5.326269e-01
5.435037e-01
5.541669e-01
5.638556e-01
0.000000e+00
1.000000e+00
5.632920e-01
5.526944e-01
5.412277e-01
5.295004e-01
5.183900e-01
5.090652e-01
5.027958e-01
5.005961e-01
5.028540e-01
5.091758e-01
5.185503e-01
5.296657e-01
5.413420e-01
5.527781e-01
5.631955e-01
0.000000e+00
1.000000e+00
5.629146e-01
5.518451e-01
5.399014e-01
5.276869e-01
5.161149e-01
5.064020e-01
4.998712e-01
4.975794e-01
4.999311e-01
5.065163e-01
5.162763e-01
5.278567e-01
5.400347e-01
5.519273e-01
5.627957e-01
0.000000e+00
1.000000e+00
5.628007e-01
5.515808e-01
5.394888e-01
5.271227e-01
5.154066e-01
5.055725e-01
4.989600e-01
4.966392e-01
4.990200e-01
5.056872e-01
5.155657e-01
5.272797e-01
5.396403e-01
5.516796e-01
5.626654e-01
0.000000e+00
1.000000e+00
5.629206e-01
5.518990e-01
5.399851e-01
5.278007e-01
5.162567e-01
5.065670e-01
5.000517e-01
4.977649e-01
5.001105e-01
5.066788e-01
5.164104e-01
5.279474e-01
5.401379e-01
5.519956e-01
5.628561e-01
0.000000e+00
1.000000e+00
5.632908e-01
5.527572e-01
5.413209e-01
5.296273e-01
5.185478e-01
5.092484e-01
5.029956e-01
5.008011e-01
5.030519e-01
5.093545e-01
5.186890e-01
5.297830e-01
5.414678e-01
5.528491e-01
5.631493e-01
0.000000e+00
1.000000e+00
5.638921e-01
5.540776e-01
5.433785e-01
5.324432e-01
5.220812e-01
5.133839e-01
5.075361e-01
5.054838e-01
5.075888e-01
5.134820e-01
5.222085e-01
5.326056e-01
5.434919e-01
5.541662e-01
5.637458e-01
0.000000e+00
1.000000e+00
5.646870e-01
5.557658e-01
5.460138e-01
5.360513e-01
5.266097e-01
5.186843e-01
5.133555e-01
5.114855e-01
5.134036e-01
5.187727e-01
5.267239e-01
5.362049e-01
5.461227e-01
5.558970e-01
5.646048e-01
0.000000e+00
1.000000e+00
5.656301e-01
5.577218e-01
5.490733e-01
5.402409e-01
5.318700e-01
5.248424e-01
5.201166e-01
5.184582e-01
5.201591e-01
5.249199e-01
5.319732e-01
5.403887e-01
5.491885e-01
5.579950e-01
5.647098e-01
0.000000e+00
1.000000e+00
5.715680e-01
5.699854e-01
5.682768e-01
5.665316e-01
5.648770e-01
5.634871e-01
5.625512e-01
5.622210e-01
5.625556e-01
5.634977e-01
5.649008e-01
5.665724e-01
5.683145e-01
5.700229e-01
5.713683e-01
0.000000e+00
1.000000e+00
5.707621e-01
5.683260e-01
5.656776e-01
5.629729e-01
5.604088e-01
5.582552e-01
5.568056e-01
5.562950e-01
5.568145e-01
5.582743e-01
5.604439e-01
5.630210e-01
5.657214e-01
5.683712e-01
5.706149e-01
0.000000e+00
1.000000e+00
5.698200e-01
5.663756e-01
5.626235e-01
5.587913e-01
5.551586e-01
5.521078e-01
5.500549e-01
5.493325e-01
5.500691e-01
5.521365e-01
5.552063e-01
5.588514e-01
5.626828e-01
5.664304e-01
5.697000e-01
0.000000e+00
1.000000e+00
5.687578e-01
5.641779e-01
5.591834e-01
5.540812e-01
5.492450e-01
5.451839e-01
5.424518e-01
5.414913e-01
5.424724e-01
5.452242e-01
5.493077e-01
5.541524e-01
5.592484e-01
5.642375e-01
5.686464e-01
0.000000e+00
1.000000e+00
5.676186e-01
5.618089e-01
5.554768e-01
5.490064e-01
5.428736e-01
5.377244e-01
5.342610e-01
5.330443e-01
5.342892e-01
5.377782e-01
5.429548e-01
5.490914e-01
5.555492e-01
5.618751e-01
5.675203e-01
0.000000e+00
1.000000e+00
5.664538e-01
5.593772e-01
5.516738e-01
5.437996e-01
5.363370e-01
5.300720e-01
5.258589e-01
5.243797e-01
5.258952e-01
5.301404e-01
5.364398e-01
5.439003e-01
5.517526e-01
5.594499e-01
5.663654e-01
0.000000e+00
1.000000e+00
5.653320e-01
5.570180e-01
5.479859e-01
5.387507e-01
5.299992e-01
5.226530e-01
5.177134e-01
5.159797e-01
5.177574e-01
5.227358e-01
5.301249e-01
5.388674e-01
5.480716e-01
5.570975e-01
5.652474e-01
0.000000e+00
1.000000e+00
5.643229e-01
5.548816e-01
5.446468e-01
5.341801e-01
5.242628e-01
5.159386e-01
5.103415e-01
5.083772e-01
5.103919e-01
5.160339e-01
5.244088e-01
5.343123e-01
5.447381e-01
5.549670e-01
5.642354e-01
0.000000e+00
1.000000e+00
5.634969e-01
5.531146e-01
5.418858e-01
5.304022e-01
5.195222e-01
5.103899e-01
5.042492e-01
5.020939e-01
5.043043e-01
5.104948e-01
5.196814e-01
5.305533e-01
5.419836e-01
5.532040e-01
5.633975e-01
0.000000e+00
1.000000e+00
5.629249e-01
5.518431e-01
5.398982e-01
5.276841e-01
5.161118e-01
5.063978e-01
4.998656e-01
4.975725e-01
4.999236e-01
5.065089e-01
5.162746e-01
5.278572e-01
5.400049e-01
5.519347e-01
5.627922e-01
0.000000e+00
1.000000e+00
5.626441e-01
5.511545e-01
5.388191e-01
5.262093e-01
5.142609e-01
5.042306e-01
4.974854e-01
4.951173e-01
4.975448e-01
5.043446e-01
5.144194e-01
5.263958e-01
5.389471e-01
5.512375e-01
5.624682e-01
0.000000e+00
1.000000e+00
5.626006e-01
5.510807e-01
5.387066e-01
5.260550e-01
5.140668e-01
5.040031e-01
4.972353e-01
4.948592e-01
4.972946e-01
5.041166e-01
5.142196e-01
5.262326e-01
5.388609e-01
5.511649e-01
5.624279e-01
0.000000e+00
1.000000e+00
5.627855e-01
5.516127e-01
5.395394e-01
5.271925e-01
5.154938e-01
5.056734e-01
4.990695e-01
4.967511e-01
4.991275e-01
5.057835e-01
5.156407e-01
5.273577e-01
5.396928e-01
5.516952e-01
5.627084e-01
0.000000e+00
1.000000e+00
5.632656e-01
5.526986e-01
5.412292e-01
5.295023e-01
5.183913e-01
5.090651e-01
5.027939e-01
5.005925e-01
5.028493e-01
5.091692e-01
5.185267e-01
5.296690e-01
5.413700e-01
5.527781e-01
5.631660e-01
0.000000e+00
1.000000e+00
5.639774e-01
5.542420e-01
5.436371e-01
5.327978e-01
5.225266e-01
5.139052e-01
5.081081e-01
5.060736e-01
5.081599e-01
5.140009e-01
5.226490e-01
5.329642e-01
5.437492e-01
5.543148e-01
5.638871e-01
0.000000e+00
1.000000e+00
5.648668e-01
5.561402e-01
5.466011e-01
5.368555e-01
5.276201e-01
5.198682e-01
5.146555e-01
5.128260e-01
5.147023e-01
5.199541e-01
5.277320e-01
5.370085e-01
5.467063e-01
5.562368e-01
5.648595e-01
0.000000e+00
1.000000e+00
5.659043e-01
5.582855e-01
5.499560e-01
5.414492e-01
5.333871e-01
5.266193e-01
5.220686e-01
5.204710e-01
5.221093e-01
5.266949e-01
5.334894e-01
5.415923e-01
5.500631e-01
5.584734e-01
5.652778e-01
0.000000e+00
1.000000e+00
5.712680e-01
5.693565e-01
5.672933e-01
5.651849e-01
5.631860e-01
5.615069e-01
5.603763e-01
5.599777e-01
5.603821e-01
5.615203e-01
5.632109e-01
5.652173e-01
5.673247e-01
5.693563e-01
5.710742e-01
0.000000e+00
1.000000e+00
5.704692e-01
5.677026e-01
5.647024e-01
5.616376e-01
5.587320e-01
5.562916e-01
5.546489e-01
5.540703e-01
5.546588e-01
5.563125e-01
5.587665e-01
5.616770e-01
5.647383e-01
5.677338e-01
5.702617e-01
0.000000e+00
1.000000e+00
5.695280e-01
5.657574e-01
5.616565e-01
5.574671e-01
5.534957e-01
5.501606e-01
5.479163e-01
5.471265e-01
5.479314e-01
5.501910e-01
5.535430e-01
5.575191e-01
5.617078e-01
5.658078e-01
5.693796e-01
0.000000e+00
1.000000e+00
5.684654e-01
5.635659e-01
5.582267e-01
5.527711e-01
5.475998e-01
5.432574e-01
5.403361e-01
5.393089e-01
5.403575e-01
5.432995e-01
5.476634e-01
5.528343e-01
5.582857e-01
5.636243e-01
5.683448e-01
0.000000e+00
1.000000e+00
5.673311e-01
5.612071e-01
5.545370e-01
5.477197e-01
5.412579e-01
5.358325e-01
5.321835e-01
5.309013e-01
5.322124e-01
5.358883e-01
5.413419e-01
5.477956e-01
5.546050e-01
5.612742e-01
5.672300e-01
0.000000e+00
1.000000e+00
5.661815e-01
5.587950e-01
5.507653e-01
5.425561e-01
5.347759e-01
5.282442e-01
5.238518e-01
5.223092e-01
5.238885e-01
5.283144e-01
5.348832e-01
5.426450e-01
5.508417e-01
5.588712e-01
5.660886e-01
0.000000e+00
1.000000e+00
5.650848e-01
5.564716e-01
5.471331e-01
5.375841e-01
5.285348e-01
5.209386e-01
5.158307e-01
5.140373e-01
5.158747e-01
5.210225e-01
5.286658e-01
5.376877e-01
5.472149e-01
5.565555e-01
5.649859e-01
0.000000e+00
1.000000e+00
5.641162e-01
5.543931e-01
5.438848e-01
5.331384e-01
5.229554e-01
5.144079e-01
5.086601e-01
5.066421e-01
5.087100e-01
5.145031e-01
5.231051e-01
5.332630e-01
5.439711e-01
5.544833e-01
5.640003e-01
0.000000e+00
1.000000e+00
5.633438e-01
5.527126e-01
5.412579e-01
5.295450e-01
5.184466e-01
5.091301e-01
5.028646e-01
5.006647e-01
5.029186e-01
5.092333e-01
5.186062e-01
5.296948e-01
5.413478e-01
5.528075e-01
5.632036e-01
0.000000e+00
1.000000e+00
5.628495e-01
5.515636e-01
5.394527e-01
5.270770e-01
5.153492e-01
5.055034e-01
4.988816e-01
4.965564e-01
4.989382e-01
5.056115e-01
5.155093e-01
5.272527e-01
5.395491e-01
5.516500e-01
5.626561e-01
0.000000e+00
1.000000e+00
5.626823e-01
5.510295e-01
5.386014e-01
5.259125e-01
5.138867e-01
5.037904e-01
4.970002e-01
4.946157e-01
4.970579e-01
5.039004e-01
5.140408e-01
5.261031e-01
5.387146e-01
5.510963e-01
5.623968e-01
0.000000e+00
1.000000e+00
5.626460e-01
5.511134e-01
5.387493e-01
5.261146e-01
5.141404e-01
5.040875e-01
4.973266e-01
4.949524e-01
4.973840e-01
5.041965e-01
5.142882e-01
5.263024e-01
5.388794e-01
5.511902e-01
5.624403e-01
0.000000e+00
1.000000e+00
5.628903e-01
5.518182e-01
5.398626e-01
5.276363e-01
5.160504e-01
5.063241e-01
4.997832e-01
4.974864e-01
4.998391e-01
5.064295e-01
5.161926e-01
5.278116e-01
5.399873e-01
5.519015e-01
5.627936e-01
0.000000e+00
1.000000e+00
5.634572e-01
5.530849e-01
5.418368e-01
5.303358e-01
5.194382e-01
5.102904e-01
5.041383e-01
5.019784e-01
5.041913e-01
5.103891e-01
5.195691e-01
5.305050e-01
5.419560e-01
5.531657e-01
5.633839e-01
0.000000e+00
1.000000e+00
5.642542e-01
5.548020e-01
5.445167e-01
5.340025e-01
5.240402e-01
5.156785e-01
5.100551e-01
5.080807e-01
5.101038e-01
5.157689e-01
5.241593e-01
5.341663e-01
5.446173e-01
5.548691e-01
5.642411e-01
0.000000e+00
1.000000e+00
5.652170e-01
5.568584e-01
5.477269e-01
5.383966e-01
5.295553e-01
5.221346e-01
5.171453e-01
5.153936e-01
5.171892e-01
5.222166e-01
5.296641e-01
5.385431e-01
5.478232e-01
5.569330e-01
5.653035e-01
0.000000e+00
1.000000e+00
5.663175e-01
5.591385e-01
5.512915e-01
5.432769e-01
5.356815e-01
5.293062e-01
5.250203e-01
5.235162e-01
5.250589e-01
5.293790e-01
5.357813e-01
5.434112e-01
5.513902e-01
5.592684e-01
5.659212e-01
0.000000e+00
1.000000e+00
5.711795e-01
5.691526e-01
5.669744e-01
5.647482e-01
5.626377e-01
5.608648e-01
5.596712e-01
5.592503e-01
5.596773e-01
5.608789e-01
5.626610e-01
5.647733e-01
5.670004e-01
5.690933e-01
5.712874e-01
0.000000e+00
1.000000e+00
5.703908e-01
5.675410e-01
5.644495e-01
5.612912e-01
5.582970e-01
5.557821e-01
5.540894e-01
5.534931e-01
5.540994e-01
5.558033e-01
5.583295e-01
5.613233e-01
5.644806e-01
5.675275e-01
5.701796e-01
0.000000e+00
1.000000e+00
5.694627e-01
5.656393e-01
5.614727e-01
5.572154e-01
5.531798e-01
5.497905e-01
5.475099e-01
5.467072e-01
5.475248e-01
5.498209e-01
5.532254e-01
5.572592e-01
5.615188e-01
5.656661e-01
5.692888e-01
0.000000e+00
1.000000e+00
5.684264e-01
5.634930e-01
5.581150e-01
5.526181e-01
5.474080e-01
5.430331e-01
5.400898e-01
5.390548e-01
5.401111e-01
5.430753e-01
5.474710e-01
5.526723e-01
5.581710e-01
5.635404e-01
5.682862e-01
0.000000e+00
1.000000e+00
5.673248e-01
5.611824e-01
5.545022e-01
5.476716e-01
5.411982e-01
5.357636e-01
5.321079e-01
5.308232e-01
5.321363e-01
5.358194e-01
5.412828e-01
5.477377e-01
5.545678e-01
5.612491e-01
5.672076e-01
0.000000e+00
1.000000e+00
5.662125e-01
5.588248e-01
5.508155e-01
5.426244e-01
5.348623e-01
5.283473e-01
5.239649e-01
5.224255e-01
5.240007e-01
5.284168e-01
5.349707e-01
5.427054e-01
5.508918e-01
5.589044e-01
5.660973e-01
0.000000e+00
1.000000e+00
5.651500e-01
5.565648e-01
5.472812e-01
5.377868e-01
5.287908e-01
5.212406e-01
5.161614e-01
5.143779e-01
5.162041e-01
5.213224e-01
5.289221e-01
5.378848e-01
5.473648e-01
5.566554e-01
5.650271e-01
0.000000e+00
1.000000e+00
5.642127e-01
5.545616e-01
5.441491e-01
5.335019e-01
5.234142e-01
5.149462e-01
5.092497e-01
5.072494e-01
5.092977e-01
5.150378e-01
5.235625e-01
5.336217e-01
5.442348e-01
5.546579e-01
5.640765e-01
0.000000e+00
1.000000e+00
5.634967e-01
5.529756e-01
5.416636e-01
5.301031e-01
5.191485e-01
5.099504e-01
5.037638e-01
5.015912e-01
5.038155e-01
5.100489e-01
5.193046e-01
5.302459e-01
5.417497e-01
5.530692e-01
5.633199e-01
0.000000e+00
1.000000e+00
5.631473e-01
5.519533e-01
5.400273e-01
5.278627e-01
5.163337e-01
5.066537e-01
5.001437e-01
4.978571e-01
5.001976e-01
5.067563e-01
5.164902e-01
5.280270e-01
5.401125e-01
5.520144e-01
5.628149e-01
0.000000e+00
1.000000e+00
5.631853e-01
5.515582e-01
5.393636e-01
5.269520e-01
5.151889e-01
5.053133e-01
4.986714e-01
4.963385e-01
4.987262e-01
5.054167e-01
5.153401e-01
5.271312e-01
5.394549e-01
5.515802e-01
5.626073e-01
0.000000e+00
1.000000e+00
5.630555e-01
5.517495e-01
5.397083e-01
5.274254e-01
5.157834e-01
5.060095e-01
4.994363e-01
4.971275e-01
4.994905e-01
5.061113e-01
5.159277e-01
5.276052e-01
5.398112e-01
5.517997e-01
5.627028e-01
0.000000e+00
1.000000e+00
5.632661e-01
5.525588e-01
5.410192e-01
5.292212e-01
5.180389e-01
5.086511e-01
5.023366e-01
5.001189e-01
5.023887e-01
5.087477e-01
5.181762e-01
5.293879e-01
5.411214e-01
5.526398e-01
5.631043e-01
0.000000e+00
1.000000e+00
5.638855e-01
5.539400e-01
5.431811e-01
5.321785e-01
5.217533e-01
5.130017e-01
5.071142e-01
5.050457e-01
5.071620e-01
5.130909e-01
5.218798e-01
5.323378e-01
5.432860e-01
5.540245e-01
5.637478e-01
0.000000e+00
1.000000e+00
5.647223e-01
5.557671e-01
5.460305e-01
5.360754e-01
5.266441e-01
5.187287e-01
5.134058e-01
5.115351e-01
5.134489e-01
5.188119e-01
5.267598e-01
5.362280e-01
5.461238e-01
5.558363e-01
5.646592e-01
0.000000e+00
1.000000e+00
5.657289e-01
5.579154e-01
5.493821e-01
5.406618e-01
5.323988e-01
5.254644e-01
5.208033e-01
5.191673e-01
5.208439e-01
5.255414e-01
5.325035e-01
5.407957e-01
5.494719e-01
5.579812e-01
5.657904e-01
0.000000e+00
1.000000e+00
5.668617e-01
5.602630e-01
5.530523e-01
5.456871e-01
5.387069e-01
5.328480e-01
5.289099e-01
5.275296e-01
5.289472e-01
5.329164e-01
5.388011e-01
5.458081e-01
5.531444e-01
5.603573e-01
5.666410e-01
0.000000e+00
1.000000e+00
5.713031e-01
5.694200e-01
5.673932e-01
5.653217e-01
5.633578e-01
5.617082e-01
5.605976e-01
5.602061e-01
5.606033e-01
5.617217e-01
5.633784e-01
5.653415e-01
5.674184e-01
5.693681e-01
5.721106e-01
0.000000e+00
1.000000e+00
5.705533e-01
5.678904e-01
5.649982e-01
5.620424e-01
5.592403e-01
5.568868e-01
5.553028e-01
5.547449e-01
5.553123e-01
5.569073e-01
5.592701e-01
5.620678e-01
5.650258e-01
5.678314e-01
5.707566e-01
0.000000e+00
1.000000e+00
5.696850e-01
5.660750e-01
5.621578e-01
5.581533e-01
5.543573e-01
5.511698e-01
5.490251e-01
5.482702e-01
5.490394e-01
5.511996e-01
5.544005e-01
5.581898e-01
5.621993e-01
5.660575e-01
5.697181e-01
0.000000e+00
1.000000e+00
5.687060e-01
5.640185e-01
5.589404e-01
5.537481e-01
5.488266e-01
5.446947e-01
5.419154e-01
5.409380e-01
5.419358e-01
5.447364e-01
5.488870e-01
5.537967e-01
5.589968e-01
5.640333e-01
5.686460e-01
0.000000e+00
1.000000e+00
5.676507e-01
5.617991e-01
5.554693e-01
5.489956e-01
5.428606e-01
5.377107e-01
5.342471e-01
5.330297e-01
5.342741e-01
5.377655e-01
5.429415e-01
5.490570e-01
5.555397e-01
5.618552e-01
5.674898e-01
0.000000e+00
1.000000e+00
5.665838e-01
5.595323e-01
5.519238e-01
5.441417e-01
5.367681e-01
5.305794e-01
5.264169e-01
5.249540e-01
5.264504e-01
5.306468e-01
5.368718e-01
5.442172e-01
5.520032e-01
5.596155e-01
5.664305e-01
0.000000e+00
1.000000e+00
5.655705e-01
5.573626e-01
5.485290e-01
5.394958e-01
5.309380e-01
5.237552e-01
5.189234e-01
5.172252e-01
5.189624e-01
5.238331e-01
5.310636e-01
5.395875e-01
5.486143e-01
5.574573e-01
5.654147e-01
0.000000e+00
1.000000e+00
5.646939e-01
5.554504e-01
5.455353e-01
5.354014e-01
5.258003e-01
5.177401e-01
5.123176e-01
5.104118e-01
5.123610e-01
5.178257e-01
5.259423e-01
5.355109e-01
5.456232e-01
5.555471e-01
5.645062e-01
0.000000e+00
1.000000e+00
5.640612e-01
5.539611e-01
5.431877e-01
5.321909e-01
5.217693e-01
5.130186e-01
5.071322e-01
5.050635e-01
5.071792e-01
5.131094e-01
5.219197e-01
5.323176e-01
5.432731e-01
5.540424e-01
5.637899e-01
0.000000e+00
1.000000e+00
5.638423e-01
5.530410e-01
5.416860e-01
5.301323e-01
5.191821e-01
5.099883e-01
5.038039e-01
5.016313e-01
5.038537e-01
5.100821e-01
5.193340e-01
5.302764e-01
5.417644e-01
5.530655e-01
5.633492e-01
0.000000e+00
1.000000e+00
5.640483e-01
5.527244e-01
5.411474e-01
5.293925e-01
5.182518e-01
5.088997e-01
5.026090e-01
5.003994e-01
5.026599e-01
5.089946e-01
5.184009e-01
5.295507e-01
5.412259e-01
5.527031e-01
5.631964e-01
0.000000e+00
1.000000e+00
5.639644e-01
5.529948e-01
5.416084e-01
5.300244e-01
5.190442e-01
5.098269e-01
5.036269e-01
5.014490e-01
5.036767e-01
5.099188e-01
5.191850e-01
5.301834e-01
5.416913e-01
5.529865e-01
5.633261e-01
0.000000e+00
1.000000e+00
5.639815e-01
5.538479e-01
5.430145e-01
5.319535e-01
5.214694e-01
5.126668e-01
5.067437e-01
5.046622e-01
5.067894e-01
5.127507e-01
5.215998e-01
5.320995e-01
5.430994e-01
5.538809e-01
5.637641e-01
0.000000e+00
1.000000e+00
5.645344e-01
5.552598e-01
5.452476e-01
5.350092e-01
5.253087e-01
5.171657e-01
5.116872e-01
5.097598e-01
5.117273e-01
5.172441e-01
5.254299e-01
5.351507e-01
5.453411e-01
5.553089e-01
5.644338e-01
0.000000e+00
1.000000e+00
5.653756e-01
5.571175e-01
5.481458e-01
5.389710e-01
5.302795e-01
5.229858e-01
5.180821e-01
5.163584e-01
5.181197e-01
5.230609e-01
5.303898e-01
5.391056e-01
5.482301e-01
5.571556e-01
5.653393e-01
0.000000e+00
1.000000e+00
5.663882e-01
5.592786e-01
5.515167e-01
5.435836e-01
5.360666e-01
5.297585e-01
5.255191e-01
5.240323e-01
5.255567e-01
5.298281e-01
5.361652e-01
5.437009e-01
5.515989e-01
5.593161e-01
5.664297e-01
0.000000e+00
1.000000e+00
5.675145e-01
5.616197e-01
5.551768e-01
5.485954e-01
5.423578e-01
5.371222e-01
5.336033e-01
5.323707e-01
5.336385e-01
5.371834e-01
5.424467e-01
5.487016e-01
5.552627e-01
5.616795e-01
5.673855e-01
0.000000e+00
1.000000e+00
5.716777e-01
5.701753e-01
5.685767e-01
5.669422e-01
5.653926e-01
5.640910e-01
5.632149e-01
5.629061e-01
5.632196e-01
5.641026e-01
5.654093e-01
5.669595e-01
5.686088e-01
5.702457e-01
5.727641e-01
0.000000e+00
1.000000e+00
5.709955e-01
5.687689e-01
5.663746e-01
5.639272e-01
5.616071e-01
5.596587e-01
5.583475e-01
5.578858e-01
5.583558e-01
5.596776e-01
5.616342e-01
5.639530e-01
5.664112e-01
5.687454e-01
5.716857e-01
0.000000e+00
1.000000e+00
5.701925e-01
5.670838e-01
5.637371e-01
5.603158e-01
5.570727e-01
5.543497e-01
5.525179e-01
5.518736e-01
5.525312e-01
5.543782e-01
5.571125e-01
5.603516e-01
5.637854e-01
5.670492e-01
5.705093e-01
0.000000e+00
1.000000e+00
5.692699e-01
5.651606e-01
5.607267e-01
5.561937e-01
5.518972e-01
5.482905e-01
5.458651e-01
5.450124e-01
5.458841e-01
5.483306e-01
5.519528e-01
5.562402e-01
5.607867e-01
5.651405e-01
5.694440e-01
0.000000e+00
1.000000e+00
5.682682e-01
5.630719e-01
5.574594e-01
5.517201e-01
5.462812e-01
5.417162e-01
5.386471e-01
5.375682e-01
5.386718e-01
5.417686e-01
5.463556e-01
5.517790e-01
5.575332e-01
5.630939e-01
5.681371e-01
0.000000e+00
1.000000e+00
5.672499e-01
5.609283e-01
5.541071e-01
5.471307e-01
5.405207e-01
5.349735e-01
5.312443e-01
5.299328e-01
5.312739e-01
5.350376e-01
5.406161e-01
5.472022e-01
5.541921e-01
5.609987e-01
5.670213e-01
0.000000e+00
1.000000e+00
5.662867e-01
5.588706e-01
5.508881e-01
5.427251e-01
5.349918e-01
5.285023e-01
5.241389e-01
5.226037e-01
5.241724e-01
5.285756e-01
5.351080e-01
5.428090e-01
5.509792e-01
5.589632e-01
5.660778e-01
0.000000e+00
1.000000e+00
5.654478e-01
5.570550e-01
5.480458e-01
5.388373e-01
5.301135e-01
5.227916e-01
5.178673e-01
5.161342e-01
5.179037e-01
5.228705e-01
5.302464e-01
5.389342e-01
5.481385e-01
5.571508e-01
5.652399e-01
0.000000e+00
1.000000e+00
5.648104e-01
5.556365e-01
5.458189e-01
5.357925e-01
5.262916e-01
5.183156e-01
5.129500e-01
5.110620e-01
5.129892e-01
5.183969e-01
5.264335e-01
5.359013e-01
5.459078e-01
5.557190e-01
5.646118e-01
0.000000e+00
1.000000e+00
5.644833e-01
5.547520e-01
5.444047e-01
5.338551e-01
5.238569e-01
5.154627e-01
5.098151e-01
5.078293e-01
5.098573e-01
5.155451e-01
5.240008e-01
5.339745e-01
5.444825e-01
5.547927e-01
5.642730e-01
0.000000e+00
1.000000e+00
5.645813e-01
5.544656e-01
5.439190e-01
5.331881e-01
5.230175e-01
5.144780e-01
5.087339e-01
5.067153e-01
5.087783e-01
5.145615e-01
5.231587e-01
5.333165e-01
5.439900e-01
5.544563e-01
5.642263e-01
0.000000e+00
1.000000e+00
5.647654e-01
5.547762e-01
5.443962e-01
5.338412e-01
5.238369e-01
5.154372e-01
5.097860e-01
5.078003e-01
5.098294e-01
5.155169e-01
5.239702e-01
5.339697e-01
5.444653e-01
5.547433e-01
5.644309e-01
0.000000e+00
1.000000e+00
5.648529e-01
5.556238e-01
5.457821e-01
5.357419e-01
5.262264e-01
5.182371e-01
5.128603e-01
5.109685e-01
5.128979e-01
5.183088e-01
5.263495e-01
5.358596e-01
5.458539e-01
5.556215e-01
5.649118e-01
0.000000e+00
1.000000e+00
5.653894e-01
5.569977e-01
5.479623e-01
5.387251e-01
5.299735e-01
5.226272e-01
5.176857e-01
5.159455e-01
5.177181e-01
5.226950e-01
5.300863e-01
5.388392e-01
5.480426e-01
5.570146e-01
5.656133e-01
0.000000e+00
1.000000e+00
5.661918e-01
5.587984e-01
5.507770e-01
5.425730e-01
5.348013e-01
5.282796e-01
5.238955e-01
5.223547e-01
5.239278e-01
5.283445e-01
5.349038e-01
5.426828e-01
5.508517e-01
5.588116e-01
5.664725e-01
0.000000e+00
1.000000e+00
5.671642e-01
5.608896e-01
5.540396e-01
5.470374e-01
5.404024e-01
5.348345e-01
5.310930e-01