<?xml version="1.0"?>
<VTKFile type="StructuredGrid" version="0.1">
  <StructuredGrid WholeExtent="0 16 0 16 0 16">
    <Piece Extent="0 16 0 16 0 16">
      <PointData Scalars="temperature" Vectors="velocity">
        <DataArray type="Float32" Name="temperature" format="ascii">
1.000000e+00
5.734909e-01
5.736697e-01
5.740540e-01
5.744392e-01
5.748048e-01
5.751122e-01
5.753190e-01
5.753902e-01
5.753117e-01
5.750972e-01
5.747893e-01
5.745140e-01
5.741975e-01
5.738257e-01
5.728207e-01
0.000000e+00
1.000000e+00
5.726925e-01
5.721473e-01
5.716582e-01
5.711587e-01
5.706858e-01
5.702895e-01
5.700230e-01
5.699282e-01
5.700211e-01
5.702859e-01
5.706968e-01
5.713196e-01
5.718208e-01
5.723081e-01
5.721030e-01
0.000000e+00
1.000000e+00
5.717635e-01
5.703422e-01
5.688232e-01
5.672775e-01
5.658133e-01
5.645852e-01
5.637601e-01
5.634708e-01
5.637695e-01
5.646059e-01
5.658683e-01
5.674952e-01
5.690259e-01
5.705185e-01
5.712383e-01
0.000000e+00
1.000000e+00
5.707235e-01
5.682900e-01
5.656046e-01
5.628711e-01
5.602814e-01
5.581091e-01
5.566508e-01
5.561423e-01
5.566758e-01
5.581593e-01
5.603797e-01
5.631006e-01
5.658198e-01
5.684648e-01
5.702575e-01
0.000000e+00
1.000000e+00
5.696048e-01
5.660517e-01
5.620973e-01
5.580696e-01
5.542533e-01
5.510522e-01
5.489040e-01
5.481574e-01
5.489461e-01
5.511319e-01
5.543892e-01
5.583083e-01
5.623142e-01
5.662242e-01
5.692026e-01
0.000000e+00
1.000000e+00
5.684484e-01
5.637132e-01
5.584353e-01
5.530559e-01
5.479592e-01
5.436844e-01
5.408165e-01
5.398220e-01
5.408763e-01
5.437947e-01
5.481314e-01
5.533128e-01
5.586520e-01
5.638841e-01
5.680856e-01
0.000000e+00
1.000000e+00
5.673017e-01
5.613811e-01
5.547854e-01
5.480587e-01
5.416860e-01
5.363419e-01
5.327580e-01
5.315162e-01
5.328354e-01
5.364839e-01
5.418955e-01
5.483396e-01
5.550030e-01
5.615534e-01
5.669744e-01
0.000000e+00
1.000000e+00
5.662269e-01
5.591744e-01
5.513347e-01
5.433341e-01
5.357556e-01
5.294017e-01
5.251418e-01
5.236669e-01
5.252369e-01
5.295752e-01
5.360029e-01
5.436468e-01
5.515521e-01
5.593444e-01
5.659171e-01
0.000000e+00
1.000000e+00
5.652857e-01
5.572138e-01
5.482720e-01
5.391409e-01
5.304933e-01
5.232445e-01
5.183856e-01
5.167043e-01
5.184961e-01
5.234464e-01
5.307766e-01
5.394885e-01
5.484978e-01
5.573793e-01
5.650097e-01
0.000000e+00
1.000000e+00
5.645357e-01
5.556094e-01
5.457681e-01
5.357136e-01
5.261930e-01
5.182138e-01
5.128658e-01
5.110154e-01
5.129874e-01
5.184376e-01
5.265033e-01
5.360867e-01
5.460230e-01
5.557515e-01
5.643138e-01
0.000000e+00
1.000000e+00
5.640203e-01
5.544474e-01
5.439561e-01
5.332344e-01
5.230835e-01
5.145766e-01
5.088746e-01
5.069009e-01
5.090026e-01
5.148142e-01
5.234129e-01
5.335995e-01
5.442756e-01
5.545680e-01
5.637104e-01
0.000000e+00
1.000000e+00
5.637604e-01
5.537824e-01
5.429189e-01
5.318163e-01
5.213055e-01
5.124965e-01
5.065914e-01
5.045461e-01
5.067210e-01
5.127388e-01
5.216468e-01
5.321413e-01
5.432966e-01
5.539463e-01
5.629892e-01
0.000000e+00
1.000000e+00
5.637366e-01
5.536305e-01
5.426821e-01
5.314937e-01
5.209013e-01
5.120232e-01
5.060707e-01
5.040077e-01
5.061981e-01
5.122622e-01
5.212501e-01
5.317757e-01
5.430569e-01
5.539068e-01
5.624316e-01
0.000000e+00
1.000000e+00
5.639124e-01
5.539722e-01
5.432168e-01
5.322265e-01
5.218208e-01
5.130982e-01
5.072492e-01
5.052209e-01
5.073711e-01
5.133268e-01
5.221581e-01
5.324856e-01
5.436010e-01
5.544970e-01
5.614988e-01
0.000000e+00
1.000000e+00
5.642698e-01
5.547605e-01
5.444497e-01
5.339145e-01
5.239387e-01
5.155758e-01
5.099672e-01
5.080214e-01
5.100813e-01
5.157887e-01
5.242415e-01
5.341898e-01
5.448460e-01
5.554440e-01
5.615380e-01
0.000000e+00
1.000000e+00
5.647910e-01
5.559264e-01
5.462758e-01
5.364147e-01
5.270766e-01
5.192479e-01
5.139972e-01
5.121750e-01
5.141024e-01
5.194424e-01
5.273370e-01
5.367198e-01
5.466538e-01
5.567571e-01
5.624355e-01
0.000000e+00
1.000000e+00
5.653351e-01
5.574005e-01
5.485709e-01
5.395570e-01
5.310215e-01
5.238663e-01
5.190688e-01
5.174058e-01
5.191703e-01
5.240522e-01
5.312603e-01
5.398825e-01
5.489292e-01
5.587306e-01
5.611443e-01
0.000000e+00
1.000000e+00
5.727418e-01
5.722181e-01
5.717756e-01
5.713193e-01
5.708868e-01
5.705241e-01
5.702798e-01
5.701924e-01
5.702770e-01
5.705201e-01
5.708974e-01
5.714321e-01
5.718944e-01
5.723649e-01
5.721013e-01
0.000000e+00
1.000000e+00
5.719205e-01
5.706333e-01
5.692847e-01
5.679091e-01
5.666055e-01
5.655117e-01
5.647763e-01
5.645179e-01
5.647836e-01
5.655295e-01
5.666578e-01
5.680769e-01
5.694319e-01
5.707851e-01
5.713586e-01
0.000000e+00
1.000000e+00
5.709709e-01
5.687609e-01
5.663470e-01
5.638874e-01
5.615566e-01
5.596011e-01
5.582876e-01
5.578286e-01
5.583078e-01
5.596438e-01
5.616448e-01
5.640773e-01
5.665379e-01
5.689326e-01
5.704727e-01
0.000000e+00
1.000000e+00
5.699102e-01
5.666400e-01
5.630233e-01
5.593371e-01
5.558442e-01
5.529139e-01
5.509467e-01
5.502617e-01
5.509821e-01
5.529830e-01
5.559651e-01
5.595378e-01
5.632162e-01
5.668080e-01
5.694420e-01
0.000000e+00
1.000000e+00
5.687724e-01
5.643372e-01
5.594174e-01
5.544004e-01
5.496469e-01
5.456596e-01
5.429837e-01
5.420543e-01
5.430358e-01
5.457570e-01
5.498018e-01
5.546193e-01
5.596175e-01
5.645127e-01
5.683322e-01
0.000000e+00
1.000000e+00
5.675988e-01
5.619466e-01
5.556765e-01
5.492787e-01
5.432177e-01
5.381346e-01
5.347248e-01
5.335420e-01
5.347942e-01
5.382628e-01
5.434100e-01
5.495232e-01
5.558825e-01
5.621270e-01
5.671868e-01
0.000000e+00
1.000000e+00
5.664480e-01
5.595848e-01
5.519836e-01
5.442228e-01
5.368715e-01
5.307078e-01
5.265747e-01
5.251422e-01
5.266622e-01
5.308682e-01
5.371056e-01
5.444965e-01
5.521958e-01
5.597739e-01
5.660544e-01
0.000000e+00
1.000000e+00
5.653859e-01
5.573823e-01
5.485427e-01
5.395120e-01
5.309596e-01
5.237904e-01
5.189842e-01
5.173197e-01
5.190886e-01
5.239817e-01
5.312366e-01
5.398196e-01
5.487617e-01
5.575764e-01
5.649935e-01
0.000000e+00
1.000000e+00
5.644791e-01
5.554703e-01
5.455578e-01
5.354261e-01
5.258330e-01
5.177930e-01
5.124038e-01
5.105377e-01
5.125219e-01
5.180111e-01
5.261490e-01
5.357612e-01
5.457911e-01
5.556720e-01
5.640787e-01
0.000000e+00
1.000000e+00
5.637836e-01
5.539656e-01
5.432097e-01
5.322126e-01
5.218022e-01
5.130779e-01
5.072301e-01
5.052048e-01
5.073578e-01
5.133157e-01
5.221440e-01
5.325708e-01
5.434591e-01
5.541653e-01
5.633691e-01
0.000000e+00
1.000000e+00
5.633377e-01
5.529566e-01
5.416340e-01
5.300572e-01
5.190990e-01
5.099156e-01
5.037596e-01
5.016267e-01
5.038923e-01
5.101646e-01
5.194501e-01
5.304281e-01
5.419182e-01
5.531412e-01
5.630138e-01
0.000000e+00
1.000000e+00
5.631437e-01
5.524927e-01
5.409071e-01
5.290631e-01
5.178519e-01
5.084561e-01
5.021567e-01
4.999734e-01
5.022907e-01
5.087078e-01
5.182020e-01
5.294157e-01
5.412410e-01
5.526667e-01
5.628517e-01
0.000000e+00
1.000000e+00
5.631706e-01
5.525803e-01
5.410399e-01
5.292445e-01
5.180785e-01
5.087200e-01
5.024452e-01
5.002698e-01
5.025770e-01
5.089671e-01
5.184256e-01
5.295600e-01
5.413939e-01
5.527555e-01
5.630650e-01
0.000000e+00
1.000000e+00
5.634016e-01
5.531885e-01
5.419832e-01
5.305346e-01
5.196956e-01
5.106108e-01
5.045193e-01
5.024069e-01
5.046457e-01
5.108470e-01
5.200266e-01
5.308425e-01
5.423364e-01
5.534097e-01
5.627829e-01
0.000000e+00
1.000000e+00
5.638497e-01
5.542560e-01
5.436412e-01
5.328037e-01
5.225417e-01
5.139398e-01
5.081717e-01
5.061712e-01
5.082903e-01
5.141593e-01
5.228399e-01
5.331316e-01
5.439601e-01
5.545145e-01
5.630233e-01
0.000000e+00
1.000000e+00
5.645074e-01
5.556986e-01
5.458889e-01
5.358812e-01
5.264037e-01
5.184583e-01
5.131301e-01
5.112818e-01
5.132388e-01
5.186578e-01
5.266645e-01
5.362190e-01
5.462035e-01
5.561041e-01
5.637861e-01
0.000000e+00
1.000000e+00
5.653617e-01
5.574248e-01
5.485908e-01
5.395814e-01
5.310486e-01
5.238943e-01
5.190956e-01
5.174303e-01
5.191917e-01
5.240700e-01
5.312752e-01
5.399191e-01
5.489293e-01
5.584157e-01
5.616999e-01
0.000000e+00
1.000000e+00
5.721094e-01
5.709605e-01
5.698049e-01
5.686210e-01
5.674988e-01
5.665566e-01
5.659227e-01
5.656993e-01
5.659269e-01
5.665688e-01
5.675376e-01
5.687354e-01
5.699146e-01
5.710998e-01
5.714881e-01
0.000000e+00
1.000000e+00
5.712753e-01
5.693275e-01
5.672410e-01
5.651109e-01
5.630922e-01
5.613978e-01
5.602587e-01
5.598599e-01
5.602739e-01
5.614316e-01
5.631647e-01
5.652472e-01
5.673675e-01
5.694680e-01
5.707491e-01
0.000000e+00
1.000000e+00
5.703097e-01
5.674037e-01
5.642247e-01
5.609816e-01
5.579083e-01
5.553292e-01
5.535968e-01
5.529923e-01
5.536247e-01
5.553859e-01
5.580103e-01
5.611402e-01
5.643871e-01
5.675598e-01
5.698491e-01
0.000000e+00
1.000000e+00
5.692320e-01
5.652310e-01
5.608213e-01
5.563222e-01
5.520591e-01
5.484824e-01
5.460809e-01
5.452449e-01
5.461232e-01
5.485641e-01
5.521916e-01
5.564990e-01
5.609913e-01
5.653908e-01
5.688021e-01
0.000000e+00
1.000000e+00
5.680772e-01
5.628813e-01
5.571433e-01
5.512870e-01
5.457383e-01
5.410840e-01
5.379605e-01
5.368749e-01
5.380190e-01
5.411944e-01
5.459073e-01
5.514881e-01
5.573245e-01
5.630514e-01
5.676823e-01
0.000000e+00
1.000000e+00
5.668937e-01
5.604565e-01
5.533504e-01
5.460942e-01
5.392203e-01
5.334557e-01
5.295888e-01
5.282463e-01
5.296649e-01
5.335978e-01
5.394321e-01
5.463249e-01
5.535417e-01
5.606354e-01
5.665243e-01
0.000000e+00
1.000000e+00
5.657459e-01
5.580832e-01
5.496408e-01
5.410156e-01
5.328464e-01
5.259973e-01
5.214045e-01
5.198115e-01
5.214984e-01
5.261721e-01
5.331062e-01
5.412784e-01
5.498434e-01
5.582732e-01
5.653948e-01
0.000000e+00
1.000000e+00
5.647039e-01
5.559020e-01
5.462344e-01
5.363526e-01
5.269955e-01
5.191524e-01
5.138940e-01
5.120712e-01
5.140039e-01
5.193579e-01
5.273026e-01
5.366462e-01
5.464482e-01
5.561014e-01
5.643479e-01
0.000000e+00
1.000000e+00
5.638393e-01
5.540532e-01
5.433490e-01
5.324041e-01
5.220429e-01
5.133593e-01
5.075376e-01
5.055197e-01
5.076601e-01
5.135899e-01
5.223875e-01
5.327312e-01
5.435697e-01
5.542600e-01
5.634715e-01
0.000000e+00
1.000000e+00
5.632118e-01
5.526590e-01
5.411737e-01
5.294291e-01
5.183126e-01
5.089962e-01
5.027499e-01
5.005843e-01
5.028809e-01
5.092446e-01
5.186756e-01
5.298030e-01
5.414034e-01
5.528655e-01
5.628068e-01
0.000000e+00
1.000000e+00
5.628554e-01
5.518086e-01
5.398454e-01
5.276138e-01
5.160368e-01
5.063338e-01
4.998277e-01
4.975714e-01
4.999632e-01
5.065918e-01
5.164000e-01
5.280211e-01
5.401116e-01
5.520151e-01
5.624128e-01
0.000000e+00
1.000000e+00
5.627471e-01
5.515437e-01
5.394322e-01
5.270494e-01
5.153286e-01
5.055047e-01
4.989171e-01
4.966322e-01
4.990536e-01
5.057642e-01
5.156823e-01
5.274501e-01
5.397548e-01
5.517413e-01
5.622722e-01
0.000000e+00
1.000000e+00
5.628407e-01
5.518616e-01
5.399293e-01
5.277281e-01
5.161788e-01
5.064986e-01
5.000073e-01
4.977557e-01
5.001412e-01
5.067517e-01
5.165234e-01
5.280864e-01
5.402836e-01
5.520588e-01
5.625487e-01
0.000000e+00
1.000000e+00
5.631639e-01
5.527237e-01
5.412670e-01
5.295563e-01
5.184702e-01
5.091784e-01
5.029478e-01
5.007867e-01
5.030759e-01
5.094185e-01
5.187936e-01
5.299039e-01
5.416214e-01
5.529393e-01
5.626313e-01
0.000000e+00
1.000000e+00
5.637502e-01
5.540514e-01
5.433276e-01
5.323750e-01
5.220048e-01
5.133124e-01
5.074837e-01
5.054621e-01
5.076033e-01
5.135337e-01
5.222942e-01
5.327402e-01
5.436212e-01
5.542681e-01
5.631623e-01
0.000000e+00
1.000000e+00
5.645445e-01
5.557455e-01
5.459650e-01
5.359852e-01
5.265345e-01
5.186119e-01
5.132988e-01
5.114558e-01
5.134072e-01
5.188101e-01
5.267897e-01
5.363422e-01
5.462452e-01
5.560584e-01
5.640851e-01
0.000000e+00
1.000000e+00
5.655148e-01
5.577027e-01
5.490264e-01
5.401774e-01
5.317963e-01
5.247696e-01
5.200568e-01
5.184218e-01
5.201525e-01
5.249437e-01
5.320216e-01
5.405203e-01
5.493255e-01
5.584332e-01
5.626257e-01
0.000000e+00
1.000000e+00
5.716259e-01
5.699788e-01
5.682690e-01
5.665181e-01
5.648584e-01
5.634648e-01
5.625274e-01
5.621983e-01
5.625373e-01
5.634888e-01
5.649107e-01
5.666102e-01
5.683590e-01
5.700808e-01
5.709629e-01
0.000000e+00
1.000000e+00
5.707887e-01
5.683202e-01
5.656664e-01
5.629551e-01
5.603853e-01
5.582282e-01
5.567782e-01
5.562710e-01
5.567982e-01
5.582708e-01
5.604624e-01
5.630637e-01
5.657671e-01
5.684438e-01
5.702807e-01
0.000000e+00
1.000000e+00
5.698174e-01
5.663688e-01
5.626081e-01
5.587682e-01
5.551294e-01
5.520755e-01
5.500241e-01
5.493081e-01
5.500560e-01
5.521394e-01
5.552333e-01
5.589020e-01
5.627449e-01
5.665151e-01
5.693772e-01
0.000000e+00
1.000000e+00
5.687330e-01
5.641690e-01
5.591632e-01
5.540521e-01
5.492091e-01
5.451459e-01
5.424176e-01
5.414673e-01
5.424637e-01
5.452350e-01
5.493460e-01
5.542077e-01
5.593121e-01
5.643265e-01
5.683000e-01
0.000000e+00
1.000000e+00
5.675737e-01
5.617972e-01
5.554515e-01
5.489705e-01
5.428306e-01
5.376804e-01
5.342240e-01
5.330219e-01
5.342866e-01
5.377993e-01
5.430086e-01
5.491533e-01
5.556169e-01
5.619689e-01
5.671652e-01
0.000000e+00
1.000000e+00
5.663923e-01
5.593619e-01
5.516431e-01
5.437567e-01
5.362866e-01
5.300225e-01
5.258202e-01
5.243605e-01
5.259006e-01
5.301740e-01
5.365132e-01
5.439683e-01
5.518236e-01
5.595479e-01
5.659982e-01
0.000000e+00
1.000000e+00
5.652578e-01
5.569980e-01
5.479494e-01
5.387004e-01
5.299419e-01
5.225990e-01
5.176743e-01
5.159652e-01
5.177722e-01
5.227832e-01
5.302204e-01
5.389424e-01
5.481426e-01
5.571981e-01
5.648810e-01
0.000000e+00
1.000000e+00
5.642470e-01
5.548555e-01
5.446042e-01
5.341227e-01
5.241994e-01
5.158815e-01
5.103035e-01
5.083683e-01
5.104163e-01
5.160953e-01
5.245248e-01
5.344039e-01
5.448076e-01
5.550674e-01
5.638666e-01
0.000000e+00
1.000000e+00
5.634338e-01
5.530826e-01
5.418374e-01
5.303389e-01
5.194545e-01
5.103314e-01
5.042134e-01
5.020907e-01
5.043374e-01
5.105683e-01
5.198122e-01
5.306699e-01
5.420443e-01
5.533049e-01
5.630196e-01
0.000000e+00
1.000000e+00
5.628847e-01
5.518078e-01
5.398451e-01
5.276168e-01
5.160419e-01
5.063393e-01
4.998320e-01
4.975737e-01
4.999634e-01
5.065915e-01
5.164128e-01
5.280071e-01
5.400628e-01
5.520291e-01
5.624060e-01
0.000000e+00
1.000000e+00
5.626332e-01
5.511198e-01
5.387637e-01
5.261401e-01
5.141902e-01
5.041722e-01
4.974529e-01
4.951207e-01
4.975881e-01
5.044318e-01
5.145559e-01
5.265719e-01
5.390192e-01
5.513203e-01
5.620868e-01
0.000000e+00
1.000000e+00
5.625908e-01
5.510449e-01
5.386508e-01
5.259855e-01
5.139955e-01
5.039438e-01
4.972018e-01
4.948617e-01
4.973373e-01
5.042025e-01
5.143472e-01
5.264178e-01
5.389570e-01
5.512363e-01
5.620361e-01
0.000000e+00
1.000000e+00
5.627147e-01
5.515744e-01
5.394848e-01
5.271232e-01
5.154214e-01
5.056120e-01
4.990328e-01
4.967494e-01
4.991651e-01
5.058623e-01
5.157599e-01
5.275195e-01
5.398016e-01
5.517644e-01
5.623835e-01
0.000000e+00
1.000000e+00
5.631434e-01
5.526647e-01
5.411771e-01
5.294347e-01
5.183187e-01
5.090012e-01
5.027523e-01
5.005839e-01
5.028782e-01
5.092367e-01
5.186325e-01
5.298111e-01
5.414927e-01
5.528594e-01
5.627450e-01
0.000000e+00
1.000000e+00
5.638484e-01
5.542159e-01
5.435879e-01
5.327322e-01
5.224541e-01
5.138390e-01
5.080614e-01
5.060568e-01
5.081780e-01
5.140545e-01
5.227341e-01
5.331102e-01
5.438615e-01
5.543949e-01
5.634321e-01
0.000000e+00
1.000000e+00
5.647413e-01
5.561199e-01
5.465547e-01
5.367928e-01
5.275486e-01
5.197992e-01
5.146028e-01
5.128006e-01
5.147091e-01
5.199928e-01
5.277981e-01
5.371467e-01
5.468135e-01
5.563452e-01
5.645076e-01
0.000000e+00
1.000000e+00
5.657975e-01
5.582663e-01
5.499108e-01
5.413883e-01
5.333166e-01
5.265489e-01
5.220101e-01
5.204365e-01
5.221047e-01
5.267199e-01
5.335394e-01
5.417196e-01
5.501774e-01
5.587535e-01
5.637855e-01
0.000000e+00
1.000000e+00
5.713295e-01
5.693524e-01
5.672913e-01
5.651794e-01
5.631776e-01
5.614966e-01
5.603661e-01
5.599696e-01
5.603791e-01
5.615261e-01
5.632309e-01
5.652500e-01
5.673642e-01
5.693435e-01
5.706755e-01
0.000000e+00
1.000000e+00
5.705030e-01
5.676990e-01
5.646970e-01
5.616277e-01
5.587187e-01
5.562767e-01
5.546352e-01
5.540609e-01
5.546572e-01
5.563224e-01
5.587928e-01
5.617140e-01
5.647797e-01
5.677802e-01
5.698021e-01
0.000000e+00
1.000000e+00
5.695406e-01
5.657527e-01
5.616468e-01
5.574519e-01
5.534765e-01
5.501403e-01
5.478991e-01
5.471165e-01
5.479324e-01
5.502067e-01
5.535780e-01
5.575645e-01
5.617644e-01
5.658873e-01
5.689959e-01
0.000000e+00
1.000000e+00
5.684601e-01
5.635593e-01
5.582119e-01
5.527495e-01
5.475737e-01
5.432311e-01
5.403153e-01
5.392991e-01
5.403628e-01
5.433233e-01
5.477105e-01
5.528847e-01
5.583477e-01
5.637149e-01
5.679704e-01
0.000000e+00
1.000000e+00
5.673066e-01
5.611978e-01
5.545168e-01
5.476908e-01
5.412242e-01
5.358000e-01
5.321597e-01
5.308931e-01
5.322237e-01
5.359226e-01
5.414051e-01
5.478505e-01
5.546719e-01
5.613718e-01
5.668607e-01
0.000000e+00
1.000000e+00
5.661384e-01
5.587817e-01
5.507390e-01
5.425196e-01
5.347344e-01
5.282060e-01
5.238261e-01
5.223039e-01
5.239077e-01
5.283614e-01
5.349663e-01
5.427083e-01
5.509112e-01
5.589754e-01
5.657144e-01
0.000000e+00
1.000000e+00
5.650273e-01
5.564523e-01
5.471001e-01
5.375394e-01
5.284861e-01
5.208957e-01
5.158044e-01
5.140364e-01
5.159028e-01
5.210832e-01
5.287698e-01
5.377666e-01
5.472889e-01
5.566639e-01
5.646046e-01
0.000000e+00
1.000000e+00
5.640564e-01
5.543669e-01
5.438447e-01
5.330865e-01
5.229008e-01
5.143618e-01
5.086346e-01
5.066461e-01
5.087469e-01
5.145770e-01
5.232296e-01
5.333573e-01
5.440406e-01
5.545957e-01
5.636198e-01
0.000000e+00
1.000000e+00
5.633131e-01
5.526820e-01
5.412121e-01
5.294876e-01
5.183879e-01
5.090826e-01
5.028408e-01
5.006733e-01
5.029630e-01
5.093180e-01
5.187464e-01
5.298126e-01
5.414081e-01
5.529133e-01
5.628197e-01
0.000000e+00
1.000000e+00
5.628732e-01
5.515342e-01
5.394022e-01
5.270158e-01
5.152884e-01
5.054556e-01
4.988592e-01
4.965682e-01
4.989877e-01
5.057035e-01
5.156583e-01
5.273970e-01
5.396066e-01
5.517501e-01
5.622721e-01
0.000000e+00
1.000000e+00
5.627887e-01
5.510073e-01
5.385487e-01
5.258500e-01
5.138251e-01
5.037421e-01
4.969777e-01
4.946282e-01
4.971091e-01
5.039946e-01
5.141878e-01
5.262745e-01
5.387750e-01
5.511867e-01
5.620078e-01
0.000000e+00
1.000000e+00
5.627160e-01
5.510873e-01
5.386967e-01
5.260512e-01
5.140772e-01
5.040372e-01
4.973017e-01
4.949624e-01
4.974326e-01
5.042868e-01
5.144246e-01
5.264852e-01
5.389539e-01
5.512757e-01
5.620416e-01
0.000000e+00
1.000000e+00
5.628437e-01
5.517833e-01
5.398111e-01
5.275725e-01
5.159855e-01
5.062708e-01
4.997538e-01
4.974907e-01
4.998809e-01
5.065105e-01
5.163169e-01
5.279773e-01
5.400681e-01
5.519857e-01
5.624312e-01
0.000000e+00
1.000000e+00
5.633673e-01
5.530516e-01
5.417877e-01
5.302731e-01
5.193723e-01
5.102339e-01
5.041038e-01
5.019751e-01
5.042233e-01
5.104575e-01
5.196767e-01
5.306534e-01
5.420467e-01
5.532512e-01
5.630209e-01
0.000000e+00
1.000000e+00
5.641408e-01
5.547755e-01
5.444702e-01
5.339417e-01
5.239739e-01
5.156184e-01
5.100143e-01
5.080693e-01
5.101248e-01
5.158227e-01
5.242450e-01
5.343115e-01
5.447031e-01
5.549410e-01
5.639641e-01
0.000000e+00
1.000000e+00
5.651056e-01
5.568384e-01
5.476834e-01
5.383375e-01
5.294884e-01
5.220711e-01
5.170968e-01
5.153718e-01
5.171985e-01
5.222557e-01
5.297308e-01
5.386742e-01
5.479095e-01
5.570093e-01
5.651698e-01
0.000000e+00
1.000000e+00
5.662215e-01
5.591203e-01
5.512495e-01
5.432201e-01
5.356160e-01
5.292412e-01
5.249661e-01
5.234833e-01
5.250554e-01
5.294049e-01
5.358325e-01
5.435283e-01
5.514846e-01
5.594442e-01
5.648923e-01
0.000000e+00
1.000000e+00
5.712532e-01
5.691502e-01
5.669777e-01
5.647500e-01
5.626384e-01
5.608653e-01
5.596728e-01
5.592546e-01
5.596861e-01
5.608950e-01
5.626857e-01
5.648018e-01
5.670359e-01
5.689741e-01
5.715118e-01
0.000000e+00
1.000000e+00
5.704477e-01
5.675394e-01
5.644493e-01
5.612885e-01
5.582927e-01
5.557778e-01
5.540874e-01
5.534958e-01
5.541092e-01
5.558229e-01
5.583599e-01
5.613553e-01
5.645188e-01
5.674923e-01
5.697208e-01
0.000000e+00
1.000000e+00
5.695052e-01
5.656377e-01
5.614683e-01
5.572072e-01
5.531694e-01
5.497807e-01
5.475041e-01
5.467090e-01
5.475370e-01
5.498461e-01
5.532643e-01
5.572982e-01
5.615706e-01
5.656996e-01
5.688417e-01
0.000000e+00
1.000000e+00
5.684500e-01
5.634906e-01
5.581058e-01
5.526037e-01
5.473907e-01
5.430171e-01
5.400803e-01
5.390565e-01
5.401272e-01
5.431084e-01
5.475218e-01
5.527179e-01
5.582308e-01
5.636064e-01
5.678669e-01
0.000000e+00
1.000000e+00
5.673229e-01
5.611780e-01
5.544877e-01
5.476503e-01
5.411734e-01
5.357412e-01
5.320952e-01
5.308262e-01
5.321582e-01
5.358630e-01
5.413486e-01
5.477935e-01
5.546402e-01
5.613426e-01
5.668199e-01
0.000000e+00
1.000000e+00
5.661840e-01
5.588155e-01
5.507948e-01
5.425954e-01
5.348298e-01
5.283190e-01
5.239500e-01
5.224311e-01
5.240300e-01
5.284728e-01
5.350558e-01
5.427693e-01
5.509674e-01
5.590153e-01
5.657200e-01
0.000000e+00
1.000000e+00
5.651148e-01
5.565485e-01
5.472536e-01
5.377500e-01
5.287511e-01
5.212074e-01
5.161457e-01
5.143872e-01
5.162415e-01
5.213915e-01
5.290285e-01
5.379618e-01
5.474406e-01
5.567731e-01
5.646422e-01
0.000000e+00
1.000000e+00
5.642068e-01
5.545405e-01
5.441153e-01
5.334582e-01
5.233683e-01
5.149101e-01
5.092345e-01
5.072630e-01
5.093430e-01
5.151191e-01
5.236900e-01
5.337117e-01
5.443082e-01
5.547755e-01
5.636893e-01
0.000000e+00
1.000000e+00
5.635406e-01
5.529534e-01
5.416235e-01
5.300531e-01
5.190985e-01
5.099133e-01
5.037496e-01
5.016083e-01
5.038670e-01
5.101395e-01
5.194487e-01
5.303533e-01
5.418157e-01
5.531834e-01
5.629239e-01
0.000000e+00
1.000000e+00
5.632454e-01
5.519347e-01
5.399815e-01
5.278099e-01
5.162830e-01
5.066162e-01
5.001300e-01
4.978763e-01
5.002526e-01
5.068521e-01
5.166434e-01
5.281563e-01
5.401708e-01
5.521187e-01
5.624030e-01
0.000000e+00
1.000000e+00
5.633703e-01
5.515449e-01
5.393162e-01
5.268986e-01
5.151373e-01
5.052743e-01
4.986568e-01
4.963571e-01
4.987812e-01
5.055124e-01
5.154914e-01
5.272835e-01
5.395106e-01
5.516711e-01
5.621892e-01
0.000000e+00
1.000000e+00
5.632256e-01
5.517324e-01
5.396611e-01
5.273701e-01
5.157297e-01
5.059680e-01
4.994185e-01
4.971425e-01
4.995415e-01
5.062012e-01
5.160683e-01
5.277683e-01
5.398749e-01
5.518835e-01
5.622604e-01
0.000000e+00
1.000000e+00
5.633125e-01
5.525356e-01
5.409734e-01
5.291655e-01
5.179834e-01
5.086061e-01
5.023144e-01
5.001277e-01
5.024322e-01
5.088274e-01
5.183033e-01
5.295372e-01
5.411919e-01
5.527234e-01
5.626652e-01
0.000000e+00
1.000000e+00
5.638262e-01
5.539094e-01
5.431361e-01
5.321233e-01
5.216963e-01
5.129533e-01
5.070866e-01
5.050475e-01
5.071956e-01
5.131578e-01
5.219882e-01
5.324741e-01
5.433638e-01
5.541080e-01
5.632901e-01
0.000000e+00
1.000000e+00
5.646335e-01
5.557411e-01
5.459878e-01
5.360200e-01
5.265852e-01
5.186767e-01
5.133709e-01
5.115280e-01
5.134720e-01
5.188642e-01
5.268459e-01
5.363586e-01
5.461984e-01
5.559108e-01
5.642981e-01
0.000000e+00
1.000000e+00
5.656308e-01
5.578966e-01
5.493425e-01
5.406075e-01
5.323383e-01
5.254084e-01
5.207615e-01
5.191486e-01
5.208550e-01
5.255797e-01
5.325711e-01
5.409103e-01
5.495479e-01
5.580488e-01
5.656473e-01
0.000000e+00
1.000000e+00
5.667809e-01
5.602476e-01
5.530151e-01
5.456356e-01
5.386468e-01
5.327890e-01
5.288625e-01
5.275004e-01
5.289441e-01
5.329422e-01
5.388535e-01
5.459087e-01
5.532281e-01
5.604736e-01
5.659825e-01
0.000000e+00
1.000000e+00
5.714050e-01
5.694186e-01
5.674007e-01
5.653292e-01
5.633658e-01
5.617173e-01
5.606086e-01
5.602196e-01
5.606204e-01
5.617441e-01
5.634046e-01
5.653677e-01
5.674537e-01
5.692766e-01
5.737118e-01
0.000000e+00
1.000000e+00
5.706427e-01
5.678917e-01
5.650021e-01
5.620453e-01
5.592430e-01
5.568908e-01
5.553098e-01
5.547565e-01
5.553300e-01
5.569331e-01
5.593014e-01
5.620976e-01
5.650635e-01
5.677168e-01
5.711186e-01
0.000000e+00
1.000000e+00
5.697352e-01
5.660777e-01
5.621576e-01
5.581509e-01
5.543541e-01
5.511681e-01
5.490280e-01
5.482805e-01
5.490590e-01
5.512306e-01
5.544392e-01
5.582283e-01
5.622541e-01
5.660091e-01
5.697161e-01
0.000000e+00
1.000000e+00
5.687172e-01
5.640202e-01
5.589355e-01
5.537395e-01
5.488166e-01
5.446868e-01
5.419142e-01
5.409478e-01
5.419590e-01
5.447749e-01
5.489365e-01
5.538426e-01
5.590613e-01
5.640362e-01
5.684469e-01
0.000000e+00
1.000000e+00
5.676364e-01
5.617978e-01
5.554589e-01
5.489797e-01
5.428430e-01
5.376963e-01
5.342424e-01
5.330401e-01
5.343024e-01
5.378139e-01
5.430053e-01
5.491119e-01
5.556150e-01
5.619252e-01
5.670762e-01
0.000000e+00
1.000000e+00
5.665515e-01
5.595256e-01
5.519070e-01
5.441177e-01
5.367427e-01
5.305589e-01
5.264095e-01
5.249664e-01
5.264852e-01
5.307070e-01
5.369534e-01
5.442801e-01
5.520848e-01
5.597267e-01
5.660466e-01
0.000000e+00
1.000000e+00
5.655389e-01
5.573495e-01
5.485056e-01
5.394637e-01
5.309052e-01
5.237298e-01
5.189146e-01
5.172408e-01
5.190045e-01
5.239055e-01
5.311660e-01
5.396582e-01
5.486978e-01
5.575820e-01
5.650538e-01
0.000000e+00
1.000000e+00
5.646792e-01
5.554329e-01
5.455051e-01
5.353618e-01
5.257619e-01
5.177117e-01
5.123087e-01
5.104308e-01
5.124100e-01
5.179090e-01
5.260656e-01
5.355909e-01
5.457038e-01
5.556712e-01
5.641415e-01
0.000000e+00
1.000000e+00
5.640611e-01
5.539388e-01
5.431504e-01
5.321466e-01
5.217287e-01
5.129891e-01
5.071242e-01
5.050853e-01
5.072332e-01
5.132005e-01
5.220599e-01
5.324100e-01
5.433459e-01
5.541571e-01
5.634109e-01
0.000000e+00
1.000000e+00
5.639061e-01
5.530255e-01
5.416469e-01
5.300890e-01
5.191408e-01
5.099579e-01
5.037966e-01
5.016542e-01
5.039099e-01
5.101766e-01
5.194834e-01
5.303856e-01
5.418268e-01
5.531559e-01
5.629969e-01
0.000000e+00
1.000000e+00
5.642554e-01
5.527367e-01
5.411103e-01
5.293497e-01
5.182096e-01
5.088683e-01
5.026003e-01
5.004210e-01
5.027150e-01
5.090872e-01
5.185492e-01
5.296769e-01
5.412813e-01
5.527627e-01
5.628703e-01
0.000000e+00
1.000000e+00
5.641757e-01
5.529989e-01
5.415698e-01
5.299786e-01
5.189995e-01
5.097929e-01
5.036146e-01
5.014668e-01
5.037273e-01
5.100050e-01
5.193239e-01
5.303197e-01
5.417476e-01
5.530225e-01
5.629824e-01
0.000000e+00
1.000000e+00
5.640755e-01
5.538357e-01
5.429767e-01
5.319082e-01
5.214234e-01
5.126294e-01
5.067274e-01
5.046743e-01
5.068326e-01
5.128270e-01
5.217257e-01
5.322250e-01
5.431594e-01
5.539015e-01
5.634418e-01
0.000000e+00
1.000000e+00
5.645137e-01
5.552328e-01
5.452075e-01
5.349625e-01
5.252629e-01
5.171274e-01
5.116657e-01
5.097651e-01
5.117611e-01
5.173078e-01
5.255362e-01
5.352679e-01
5.454072e-01
5.553209e-01
5.640945e-01
0.000000e+00
1.000000e+00
5.653089e-01
5.570935e-01
5.481074e-01
5.389213e-01
5.302289e-01
5.229443e-01
5.180556e-01
5.163547e-01
5.181436e-01
5.231100e-01
5.304753e-01
5.392161e-01
5.482938e-01
5.571664e-01
5.650498e-01
0.000000e+00
1.000000e+00
5.663069e-01
5.592626e-01
5.514829e-01
5.435360e-01
5.360130e-01
5.297102e-01
5.254861e-01
5.240185e-01
5.255690e-01
5.298637e-01
5.362338e-01
5.437954e-01
5.516663e-01
5.593339e-01
5.662818e-01
0.000000e+00
1.000000e+00
5.674536e-01
5.616077e-01
5.551458e-01
5.485512e-01
5.423053e-01
5.370702e-01
5.335625e-01
5.323476e-01
5.336369e-01
5.372072e-01
5.425010e-01
5.487861e-01
5.553410e-01
5.617417e-01
5.669357e-01
0.000000e+00
1.000000e+00
5.717997e-01
5.701736e-01
5.685864e-01
5.669530e-01
5.654051e-01
5.641056e-01
5.632317e-01
5.629251e-01
5.632407e-01
5.641267e-01
5.654333e-01
5.669872e-01
5.686555e-01
5.703927e-01
5.749341e-01
0.000000e+00
1.000000e+00
5.710874e-01
5.687718e-01
5.663810e-01
5.639334e-01
5.616142e-01
5.596678e-01
5.583599e-01
5.579023e-01
5.583774e-01
5.597058e-01
5.616651e-01
5.639860e-01
5.664585e-01
5.687034e-01
5.730592e-01
0.000000e+00
1.000000e+00
5.702407e-01
5.670878e-01
5.637396e-01
5.603170e-01
5.570739e-01
5.543531e-01
5.525260e-01
5.518883e-01
5.525543e-01
5.544114e-01
5.571500e-01
5.603914e-01
5.638430e-01
5.669734e-01
5.711366e-01
0.000000e+00
1.000000e+00
5.692921e-01
5.651623e-01
5.607243e-01
5.561885e-01
5.518915e-01
5.482876e-01
5.458687e-01
5.450262e-01
5.459101e-01
5.483704e-01
5.519991e-01
5.562865e-01
5.608534e-01
5.650771e-01
5.697590e-01
0.000000e+00
1.000000e+00
5.682816e-01
5.630704e-01
5.574515e-01
5.517078e-01
5.462677e-01
5.417066e-01
5.386466e-01
5.375819e-01
5.387021e-01
5.418172e-01
5.464138e-01
5.518337e-01
5.576139e-01
5.630991e-01
5.678177e-01
0.000000e+00
1.000000e+00
5.672576e-01
5.609232e-01
5.540935e-01
5.471108e-01
5.404996e-01
5.349577e-01
5.312404e-01
5.299477e-01
5.313098e-01
5.350967e-01
5.406895e-01
5.472634e-01
5.542845e-01
5.610847e-01
5.664971e-01
0.000000e+00
1.000000e+00
5.662926e-01
5.588609e-01
5.508683e-01
5.426975e-01
5.349640e-01
5.284817e-01
5.241333e-01
5.226209e-01
5.242145e-01
5.286458e-01
5.351993e-01
5.428745e-01
5.510749e-01
5.590830e-01
5.656134e-01
0.000000e+00
1.000000e+00
5.654690e-01
5.570415e-01
5.480195e-01
5.388030e-01
5.300810e-01
5.227684e-01
5.178615e-01
5.161544e-01
5.179517e-01
5.229505e-01
5.303568e-01
5.390038e-01
5.482305e-01
5.572730e-01
5.648198e-01
0.000000e+00
1.000000e+00
5.648746e-01
5.556234e-01
5.457867e-01
5.357545e-01
5.262570e-01
5.182912e-01
5.129452e-01
5.110848e-01
5.130415e-01
5.184836e-01
5.265605e-01
5.359768e-01
5.459894e-01
5.558218e-01
5.642834e-01
0.000000e+00
1.000000e+00
5.646528e-01
5.547544e-01
5.443709e-01
5.338174e-01
5.238215e-01
5.154384e-01
5.098110e-01
5.078531e-01
5.099112e-01
5.156341e-01
5.241383e-01
5.340589e-01
5.445486e-01
5.548594e-01
5.641236e-01
0.000000e+00
1.000000e+00
5.649333e-01
5.544897e-01
5.438869e-01
5.331511e-01
5.229823e-01
5.144532e-01
5.087287e-01
5.067380e-01
5.088307e-01
5.146484e-01
5.232975e-01
5.334110e-01
5.440434e-01
5.544785e-01
5.642783e-01
0.000000e+00
1.000000e+00
5.652297e-01
5.547964e-01
5.443645e-01
5.338039e-01
5.238002e-01
5.154091e-01
5.097781e-01
5.078192e-01
5.098774e-01
5.155978e-01
5.241022e-01
5.340690e-01
5.445129e-01
5.547338e-01
5.646025e-01
0.000000e+00
1.000000e+00
5.651295e-01
5.556359e-01
5.457523e-01
5.357072e-01
5.261913e-01
5.182083e-01
5.128480e-01
5.109821e-01
5.129390e-01
5.183804e-01
5.264689e-01
5.359500e-01
5.459011e-01
5.555923e-01
5.651998e-01
0.000000e+00
1.000000e+00
5.653992e-01
5.569782e-01
5.479281e-01
5.386864e-01
5.299380e-01
5.226003e-01
5.176710e-01
5.159527e-01
5.177507e-01
5.227543e-01
5.301878e-01
5.389250e-01
5.480958e-01
5.569783e-01
5.659815e-01
0.000000e+00
1.000000e+00
5.661510e-01
5.587788e-01
5.507451e-01
5.425314e-01
5.347595e-01
5.282478e-01
5.238785e-01
5.223549e-01
5.239514e-01
5.283892e-01
5.349886e-01
5.427641e-01
5.509074e-01
5.587811e-01
5.668528e-01
0.000000e+00
1.000000e+00
5.671072e-01
5.608773e-01
5.540127e-01
5.469983e-01
5.403581e-01
5.347952e-01
5.310684e-01