<?xml version="1.0"?>
<VTKFile type="StructuredGrid" version="0.1">
  <StructuredGrid WholeExtent="0 16 0 16 0 16">
    <Piece Extent="0 16 0 16 0 16">
      <PointData Scalars="temperature" Vectors="velocity">
        <DataArray type="Float32" Name="temperature" format="ascii">
1.000000e+00
5.731754e-01
5.730284e-01
5.730481e-01
5.730624e-01
5.730759e-01
5.730872e-01
5.730948e-01
5.730977e-01
5.730954e-01
5.730882e-01
5.730770e-01
5.730648e-01
5.730501e-01
5.730866e-01
5.724340e-01
0.000000e+00
1.000000e+00
5.731260e-01
5.730212e-01
5.730358e-01
5.730449e-01
5.730535e-01
5.730606e-01
5.730653e-01
5.730670e-01
5.730652e-01
5.730606e-01
5.730534e-01
5.730508e-01
5.730444e-01
5.730743e-01
5.723628e-01
0.000000e+00
1.000000e+00
5.729859e-01
5.727791e-01
5.726467e-01
5.725130e-01
5.723861e-01
5.722794e-01
5.722074e-01
5.721816e-01
5.722064e-01
5.722781e-01
5.723846e-01
5.725292e-01
5.726698e-01
5.728569e-01
5.725196e-01
0.000000e+00
1.000000e+00
5.726923e-01
5.722723e-01
5.718467e-01
5.714174e-01
5.710103e-01
5.706682e-01
5.704376e-01
5.703558e-01
5.704371e-01
5.706688e-01
5.710127e-01
5.714609e-01
5.718939e-01
5.723274e-01
5.723998e-01
0.000000e+00
1.000000e+00
5.722971e-01
5.714918e-01
5.706182e-01
5.697351e-01
5.688980e-01
5.681949e-01
5.677217e-01
5.675552e-01
5.677253e-01
5.682048e-01
5.689141e-01
5.698218e-01
5.707053e-01
5.715761e-01
5.718881e-01
0.000000e+00
1.000000e+00
5.717554e-01
5.704476e-01
5.689747e-01
5.674849e-01
5.660730e-01
5.648878e-01
5.640912e-01
5.638125e-01
5.641028e-01
5.649140e-01
5.661112e-01
5.676179e-01
5.691095e-01
5.705748e-01
5.712985e-01
0.000000e+00
1.000000e+00
5.710879e-01
5.691679e-01
5.669631e-01
5.647313e-01
5.626166e-01
5.608426e-01
5.596513e-01
5.592363e-01
5.596739e-01
5.608893e-01
5.626824e-01
5.649091e-01
5.671403e-01
5.693229e-01
5.706884e-01
0.000000e+00
1.000000e+00
5.703321e-01
5.677023e-01
5.646626e-01
5.615825e-01
5.586646e-01
5.562178e-01
5.545767e-01
5.540079e-01
5.546147e-01
5.562899e-01
5.587618e-01
5.618051e-01
5.648793e-01
5.678801e-01
5.700058e-01
0.000000e+00
1.000000e+00
5.695220e-01
5.661211e-01
5.621823e-01
5.581878e-01
5.544043e-01
5.512326e-01
5.491070e-01
5.483728e-01
5.491622e-01
5.513325e-01
5.545347e-01
5.584557e-01
5.624327e-01
5.663168e-01
5.692682e-01
0.000000e+00
1.000000e+00
5.686943e-01
5.645061e-01
5.596497e-01
5.547219e-01
5.500551e-01
5.461439e-01
5.435235e-01
5.426208e-01
5.435956e-01
5.462710e-01
5.502178e-01
5.550322e-01
5.599292e-01
5.647200e-01
5.685112e-01
0.000000e+00
1.000000e+00
5.679042e-01
5.629423e-01
5.571983e-01
5.513672e-01
5.458457e-01
5.412186e-01
5.381199e-01
5.370534e-01
5.382069e-01
5.413713e-01
5.460370e-01
5.517182e-01
5.574992e-01
5.631673e-01
5.677797e-01
0.000000e+00
1.000000e+00
5.671940e-01
5.615093e-01
5.549523e-01
5.482935e-01
5.419889e-01
5.367064e-01
5.331692e-01
5.319519e-01
5.332690e-01
5.368820e-01
5.422050e-01
5.486776e-01
5.552694e-01
5.617447e-01
5.671080e-01
0.000000e+00
1.000000e+00
5.665763e-01
5.602724e-01
5.530143e-01
5.456416e-01
5.386617e-01
5.328135e-01
5.288976e-01
5.275501e-01
5.290079e-01
5.330081e-01
5.388970e-01
5.460540e-01
5.533396e-01
5.605126e-01
5.665278e-01
0.000000e+00
1.000000e+00
5.660917e-01
5.592786e-01
5.514580e-01
5.435121e-01
5.359896e-01
5.296870e-01
5.254670e-01
5.240144e-01
5.255844e-01
5.298950e-01
5.362395e-01
5.439409e-01
5.517891e-01
5.595304e-01
5.660701e-01
0.000000e+00
1.000000e+00
5.657515e-01
5.585526e-01
5.503238e-01
5.419601e-01
5.340429e-01
5.274096e-01
5.229669e-01
5.214357e-01
5.230870e-01
5.276245e-01
5.343040e-01
5.423966e-01
5.506544e-01
5.588102e-01
5.657124e-01
0.000000e+00
1.000000e+00
5.655269e-01
5.580986e-01
5.496195e-01
5.409965e-01
5.328333e-01
5.259936e-01
5.214130e-01
5.198343e-01
5.215364e-01
5.262153e-01
5.331086e-01
5.414278e-01
5.499577e-01
5.583816e-01
5.655655e-01
0.000000e+00
1.000000e+00
5.653624e-01
5.578909e-01
5.493188e-01
5.405886e-01
5.323262e-01
5.254056e-01
5.207732e-01
5.191801e-01
5.209074e-01
5.256474e-01
5.326330e-01
5.410306e-01
5.496968e-01
5.583264e-01
5.649106e-01
0.000000e+00
1.000000e+00
5.730710e-01
5.730340e-01
5.730641e-01
5.730832e-01
5.731013e-01
5.731163e-01
5.731264e-01
5.731300e-01
5.731265e-01
5.731163e-01
5.731013e-01
5.730827e-01
5.730603e-01
5.730272e-01
5.729585e-01
0.000000e+00
1.000000e+00
5.729434e-01
5.728027e-01
5.726923e-01
5.725737e-01
5.724611e-01
5.723663e-01
5.723022e-01
5.722793e-01
5.723014e-01
5.723643e-01
5.724598e-01
5.725786e-01
5.726936e-01
5.728226e-01
5.723277e-01
0.000000e+00
1.000000e+00
5.726302e-01
5.723082e-01
5.719041e-01
5.714941e-01
5.711051e-01
5.707777e-01
5.705568e-01
5.704778e-01
5.705545e-01
5.707744e-01
5.711050e-01
5.715166e-01
5.719219e-01
5.723683e-01
5.724453e-01
0.000000e+00
1.000000e+00
5.722276e-01
5.715241e-01
5.706666e-01
5.697999e-01
5.689778e-01
5.682867e-01
5.678207e-01
5.676554e-01
5.678204e-01
5.682897e-01
5.689905e-01
5.698522e-01
5.707124e-01
5.715834e-01
5.720359e-01
0.000000e+00
1.000000e+00
5.716960e-01
5.704506e-01
5.689766e-01
5.674859e-01
5.660724e-01
5.648849e-01
5.640856e-01
5.638043e-01
5.640926e-01
5.649032e-01
5.661073e-01
5.675737e-01
5.690565e-01
5.705299e-01
5.714376e-01
0.000000e+00
1.000000e+00
5.710078e-01
5.691067e-01
5.668629e-01
5.645920e-01
5.624392e-01
5.606319e-01
5.594172e-01
5.589927e-01
5.594362e-01
5.606717e-01
5.625021e-01
5.647188e-01
5.669838e-01
5.692158e-01
5.707474e-01
0.000000e+00
1.000000e+00
5.701978e-01
5.675340e-01
5.643931e-01
5.612109e-01
5.581950e-01
5.556646e-01
5.539659e-01
5.533754e-01
5.540004e-01
5.557304e-01
5.582901e-01
5.613821e-01
5.645546e-01
5.676679e-01
5.699704e-01
0.000000e+00
1.000000e+00
5.693199e-01
5.657996e-01
5.616724e-01
5.574865e-01
5.535203e-01
5.501941e-01
5.479636e-01
5.471913e-01
5.480162e-01
5.502896e-01
5.536510e-01
5.577052e-01
5.618736e-01
5.659579e-01
5.691499e-01
0.000000e+00
1.000000e+00
5.684095e-01
5.639902e-01
5.588356e-01
5.536036e-01
5.486474e-01
5.444924e-01
5.417080e-01
5.407469e-01
5.417798e-01
5.446191e-01
5.488139e-01
5.538738e-01
5.590727e-01
5.641661e-01
5.682903e-01
0.000000e+00
1.000000e+00
5.675010e-01
5.622021e-01
5.560342e-01
5.497699e-01
5.438369e-01
5.388645e-01
5.355337e-01
5.343863e-01
5.356240e-01
5.390217e-01
5.440375e-01
5.500903e-01
5.563044e-01
5.623973e-01
5.674482e-01
0.000000e+00
1.000000e+00
5.666611e-01
5.605332e-01
5.534200e-01
5.461927e-01
5.393490e-01
5.336140e-01
5.297740e-01
5.284521e-01
5.298807e-01
5.337990e-01
5.395789e-01
5.465618e-01
5.537161e-01
5.607360e-01
5.666605e-01
0.000000e+00
1.000000e+00
5.659331e-01
5.590697e-01
5.511272e-01
5.430558e-01
5.354133e-01
5.290102e-01
5.247231e-01
5.232478e-01
5.248431e-01
5.292181e-01
5.356671e-01
5.434659e-01
5.514460e-01
5.592811e-01
5.659677e-01
0.000000e+00
1.000000e+00
5.653313e-01
5.578769e-01
5.492585e-01
5.404994e-01
5.322065e-01
5.252586e-01
5.206067e-01
5.190058e-01
5.207360e-01
5.254849e-01
5.324775e-01
5.409431e-01
5.495924e-01
5.580874e-01
5.654017e-01
0.000000e+00
1.000000e+00
5.649039e-01
5.569966e-01
5.478781e-01
5.386109e-01
5.298376e-01
5.224873e-01
5.175658e-01
5.158718e-01
5.177013e-01
5.227264e-01
5.301222e-01
5.390726e-01
5.482229e-01
5.572101e-01
5.649914e-01
0.000000e+00
1.000000e+00
5.646507e-01
5.564406e-01
5.470101e-01
5.374236e-01
5.283487e-01
5.207457e-01
5.156533e-01
5.138989e-01
5.157908e-01
5.209904e-01
5.286459e-01
5.378898e-01
5.473508e-01
5.566555e-01
5.647293e-01
0.000000e+00
1.000000e+00
5.645356e-01
5.562016e-01
5.466410e-01
5.369191e-01
5.277157e-01
5.200053e-01
5.148417e-01
5.130629e-01
5.149817e-01
5.202565e-01
5.280327e-01
5.373615e-01
5.469776e-01
5.564658e-01
5.646350e-01
0.000000e+00
1.000000e+00
5.647614e-01
5.562331e-01
5.467410e-01
5.370584e-01
5.278934e-01
5.202152e-01
5.150729e-01
5.133006e-01
5.152106e-01
5.204642e-01
5.282198e-01
5.374737e-01
5.471389e-01
5.568870e-01
5.636395e-01
0.000000e+00
1.000000e+00
5.732714e-01
5.732802e-01
5.734517e-01
5.736128e-01
5.737654e-01
5.738936e-01
5.739801e-01
5.740105e-01
5.739786e-01
5.738898e-01
5.737590e-01
5.736061e-01
5.734543e-01
5.732891e-01
5.734721e-01
0.000000e+00
1.000000e+00
5.730064e-01
5.728112e-01
5.727060e-01
5.725920e-01
5.724839e-01
5.723930e-01
5.723317e-01
5.723096e-01
5.723297e-01
5.723885e-01
5.724819e-01
5.725967e-01
5.727129e-01
5.728153e-01
5.731376e-01
0.000000e+00
1.000000e+00
5.725743e-01
5.720441e-01
5.714992e-01
5.709395e-01
5.704089e-01
5.699629e-01
5.696625e-01
5.695560e-01
5.696620e-01
5.699635e-01
5.704201e-01
5.709715e-01
5.715210e-01
5.720668e-01
5.726368e-01
0.000000e+00
1.000000e+00
5.719994e-01
5.709651e-01
5.698036e-01
5.686179e-01
5.674937e-01
5.665494e-01
5.659139e-01
5.656904e-01
5.659196e-01
5.665657e-01
5.675278e-01
5.686871e-01
5.698603e-01
5.710137e-01
5.719243e-01
0.000000e+00
1.000000e+00
5.712755e-01
5.695811e-01
5.676272e-01
5.656380e-01
5.637524e-01
5.621692e-01
5.611051e-01
5.607333e-01
5.611221e-01
5.622081e-01
5.638141e-01
5.657410e-01
5.677146e-01
5.696600e-01
5.711674e-01
0.000000e+00
1.000000e+00
5.704133e-01
5.679197e-01
5.650180e-01
5.620655e-01
5.592673e-01
5.569195e-01
5.553434e-01
5.547956e-01
5.553760e-01
5.569853e-01
5.593635e-01
5.622070e-01
5.651419e-01
5.680299e-01
5.703087e-01
0.000000e+00
1.000000e+00
5.694523e-01
5.660387e-01
5.620677e-01
5.580265e-01
5.541972e-01
5.509859e-01
5.488327e-01
5.480874e-01
5.488844e-01
5.510829e-01
5.543326e-01
5.582148e-01
5.622289e-01
5.661780e-01
5.693742e-01
0.000000e+00
1.000000e+00
5.684421e-01
5.640247e-01
5.589105e-01
5.537041e-01
5.487723e-01
5.446381e-01
5.418683e-01
5.409127e-01
5.419412e-01
5.447689e-01
5.489489e-01
5.539455e-01
5.591085e-01
5.641895e-01
5.683919e-01
0.000000e+00
1.000000e+00
5.674194e-01
5.619828e-01
5.557106e-01
5.493239e-01
5.432756e-01
5.382074e-01
5.348136e-01
5.336451e-01
5.349076e-01
5.383727e-01
5.434927e-01
5.496225e-01
5.559461e-01
5.621668e-01
5.674100e-01
0.000000e+00
1.000000e+00
5.664427e-01
5.600258e-01
5.526458e-01
5.451297e-01
5.380131e-01
5.320511e-01
5.280604e-01
5.266876e-01
5.281740e-01
5.322491e-01
5.382662e-01
5.454848e-01
5.529158e-01
5.602256e-01
5.664759e-01
0.000000e+00
1.000000e+00
5.655722e-01
5.582643e-01
5.498868e-01
5.413545e-01
5.332767e-01
5.265106e-01
5.219824e-01
5.204253e-01
5.221126e-01
5.267366e-01
5.335587e-01
5.417637e-01
5.501896e-01
5.584701e-01
5.656369e-01
0.000000e+00
1.000000e+00
5.648424e-01
5.567892e-01
5.475756e-01
5.381925e-01
5.293102e-01
5.218707e-01
5.168916e-01
5.151795e-01
5.170340e-01
5.221184e-01
5.296135e-01
5.386433e-01
5.479117e-01
5.569999e-01
5.649296e-01
0.000000e+00
1.000000e+00
5.642768e-01
5.556643e-01
5.458116e-01
5.357800e-01
5.262840e-01
5.183303e-01
5.130067e-01
5.111754e-01
5.131559e-01
5.185945e-01
5.266024e-01
5.362577e-01
5.461762e-01
5.558692e-01
5.643912e-01
0.000000e+00
1.000000e+00
5.639025e-01
5.549232e-01
5.446459e-01
5.341859e-01
5.242844e-01
5.159900e-01
5.104379e-01
5.085280e-01
5.105923e-01
5.162655e-01
5.246159e-01
5.346704e-01
5.450284e-01
5.551249e-01
5.640269e-01
0.000000e+00
1.000000e+00
5.637443e-01
5.545607e-01
5.440814e-01
5.334148e-01
5.233179e-01
5.148590e-01
5.091948e-01
5.072446e-01
5.093499e-01
5.151376e-01
5.236640e-01
5.338888e-01
5.444535e-01
5.547648e-01
5.638691e-01
0.000000e+00
1.000000e+00
5.637455e-01
5.545621e-01
5.440820e-01
5.334159e-01
5.233193e-01
5.148612e-01
5.091978e-01
5.072475e-01
5.093529e-01
5.151420e-01
5.236836e-01
5.338511e-01
5.444474e-01
5.548430e-01
5.638430e-01
0.000000e+00
1.000000e+00
5.641151e-01
5.548604e-01
5.445914e-01
5.341157e-01
5.242001e-01
5.158934e-01
5.103307e-01
5.084139e-01
5.104807e-01
5.161672e-01
5.245699e-01
5.345070e-01
5.450093e-01
5.555881e-01
5.629290e-01
0.000000e+00
1.000000e+00
5.735625e-01
5.737880e-01
5.742387e-01
5.746919e-01
5.751218e-01
5.754831e-01
5.757263e-01
5.758112e-01
5.757225e-01
5.754781e-01
5.751177e-01
5.746943e-01
5.742685e-01
5.738268e-01
5.732363e-01
0.000000e+00
1.000000e+00
5.731302e-01
5.730827e-01
5.731252e-01
5.731666e-01
5.732060e-01
5.732389e-01
5.732607e-01
5.732670e-01
5.732556e-01
5.732297e-01
5.732017e-01
5.731764e-01
5.731599e-01
5.731096e-01
5.730920e-01
0.000000e+00
1.000000e+00
5.726010e-01
5.720448e-01
5.714970e-01
5.709375e-01
5.704073e-01
5.699619e-01
5.696621e-01
5.695557e-01
5.696616e-01
5.699628e-01
5.704275e-01
5.709762e-01
5.715384e-01
5.720638e-01
5.725611e-01
0.000000e+00
1.000000e+00
5.719082e-01
5.706677e-01
5.693387e-01
5.679826e-01
5.666972e-01
5.656181e-01
5.648929e-01
5.646391e-01
5.649034e-01
5.656445e-01
5.667514e-01
5.680622e-01
5.694097e-01
5.707323e-01
5.716316e-01
0.000000e+00
1.000000e+00
5.710147e-01
5.689648e-01
5.666699e-01
5.643283e-01
5.621094e-01
5.602477e-01
5.589979e-01
5.585635e-01
5.590243e-01
5.603058e-01
5.621960e-01
5.644522e-01
5.667793e-01
5.690703e-01
5.707429e-01
0.000000e+00
1.000000e+00
5.699880e-01
5.669783e-01
5.635585e-01
5.600680e-01
5.567610e-01
5.539879e-01
5.521285e-01
5.514851e-01
5.521745e-01
5.540809e-01
5.568850e-01
5.602318e-01
5.636986e-01
5.671088e-01
5.697609e-01
0.000000e+00
1.000000e+00
5.688713e-01
5.647840e-01
5.601233e-01
5.553647e-01
5.508574e-01
5.470796e-01
5.445489e-01
5.436763e-01
5.446176e-01
5.472102e-01
5.510268e-01
5.555794e-01
5.602952e-01
5.649432e-01
5.687002e-01
0.000000e+00
1.000000e+00
5.677198e-01
5.624889e-01
5.565297e-01
5.504447e-01
5.446829e-01
5.398558e-01
5.366244e-01
5.355126e-01
5.367168e-01
5.400251e-01
5.449009e-01
5.507202e-01
5.567353e-01
5.626761e-01
5.676098e-01
0.000000e+00
1.000000e+00
5.665806e-01
5.602173e-01
5.529738e-01
5.455773e-01
5.385755e-01
5.327114e-01
5.287876e-01
5.274390e-01
5.289028e-01
5.329185e-01
5.388387e-01
5.459184e-01
5.532148e-01
5.604239e-01
5.665308e-01
0.000000e+00
1.000000e+00
5.655328e-01
5.581015e-01
5.496613e-01
5.410440e-01
5.328879e-01
5.260585e-01
5.214895e-01
5.199198e-01
5.216248e-01
5.262989e-01
5.331891e-01
5.414507e-01
5.499383e-01
5.583284e-01
5.655262e-01
0.000000e+00
1.000000e+00
5.646310e-01
5.562639e-01
5.467810e-01
5.371024e-01
5.279430e-01
5.202741e-01
5.151434e-01
5.133808e-01
5.152947e-01
5.205412e-01
5.282719e-01
5.375675e-01
5.470945e-01
5.564950e-01
5.646427e-01
0.000000e+00
1.000000e+00
5.639084e-01
5.547980e-01
5.444805e-01
5.339550e-01
5.239946e-01
5.156548e-01
5.100748e-01
5.081569e-01
5.102367e-01
5.159411e-01
5.243419e-01
5.344570e-01
5.448406e-01
5.550254e-01
5.639320e-01
0.000000e+00
1.000000e+00
5.633857e-01
5.537623e-01
5.428524e-01
5.317287e-01
5.212018e-01
5.123868e-01
5.064878e-01
5.044588e-01
5.066547e-01
5.126867e-01
5.215617e-01
5.322405e-01
5.432596e-01
5.539767e-01
5.634333e-01
0.000000e+00
1.000000e+00
5.630704e-01
5.531787e-01
5.419301e-01
5.304680e-01
5.196199e-01
5.105353e-01
5.044558e-01
5.023644e-01
5.046265e-01
5.108458e-01
5.199945e-01
5.309656e-01
5.423667e-01
5.533850e-01
5.631464e-01
0.000000e+00
1.000000e+00
5.630268e-01
5.530255e-01
5.416949e-01
5.301474e-01
5.192178e-01
5.100631e-01
5.039353e-01
5.018265e-01
5.041066e-01
5.103750e-01
5.196067e-01
5.306189e-01
5.421038e-01
5.532346e-01
5.631047e-01
0.000000e+00
1.000000e+00
5.631365e-01
5.532743e-01
5.420811e-01
5.306771e-01
5.198830e-01
5.108419e-01
5.047894e-01
5.027064e-01
5.049588e-01
5.111513e-01
5.202815e-01
5.311143e-01
5.424788e-01
5.535748e-01
5.631837e-01
0.000000e+00
1.000000e+00
5.636284e-01
5.538429e-01
5.430061e-01
5.319462e-01
5.214786e-01
5.127103e-01
5.068398e-01
5.048185e-01
5.070026e-01
5.130097e-01
5.218727e-01
5.323552e-01
5.434455e-01
5.545618e-01
5.624857e-01
0.000000e+00
1.000000e+00
5.739292e-01
5.745624e-01
5.754576e-01
5.763604e-01
5.772165e-01
5.779357e-01
5.784199e-01
5.785902e-01
5.784163e-01
5.779323e-01
5.772221e-01
5.763795e-01
5.755236e-01
5.746473e-01
5.733305e-01
0.000000e+00
1.000000e+00
5.734124e-01
5.736321e-01
5.739856e-01
5.743447e-01
5.746852e-01
5.749712e-01
5.751633e-01
5.752295e-01
5.751573e-01
5.749607e-01
5.746823e-01
5.743654e-01
5.740551e-01
5.737098e-01
5.731509e-01
0.000000e+00
1.000000e+00
5.727561e-01
5.723372e-01
5.719507e-01
5.715591e-01
5.711880e-01
5.708764e-01
5.706668e-01
5.705922e-01
5.706659e-01
5.708763e-01
5.712129e-01
5.716084e-01
5.720340e-01
5.723926e-01
5.725279e-01
0.000000e+00
1.000000e+00
5.718960e-01
5.706726e-01
5.693432e-01
5.679890e-01
5.667060e-01
5.656296e-01
5.649066e-01
5.646543e-01
5.649194e-01
5.656601e-01
5.667768e-01
5.680766e-01
5.694381e-01
5.707639e-01
5.715201e-01
0.000000e+00
1.000000e+00
5.708996e-01
5.686611e-01
5.661955e-01
5.636794e-01
5.612956e-01
5.592968e-01
5.579565e-01
5.574924e-01
5.579901e-01
5.593697e-01
5.614083e-01
5.638192e-01
5.663296e-01
5.688011e-01
5.705761e-01
0.000000e+00
1.000000e+00
5.697324e-01
5.663606e-01
5.625965e-01
5.587518e-01
5.551104e-01
5.520585e-01
5.500144e-01
5.493098e-01
5.500721e-01
5.521755e-01
5.552628e-01
5.589408e-01
5.627628e-01
5.665251e-01
5.694737e-01
0.000000e+00
1.000000e+00
5.684890e-01
5.638631e-01
5.586936e-01
5.534083e-01
5.484042e-01
5.442122e-01
5.414066e-01
5.404420e-01
5.414901e-01
5.443743e-01
5.486026e-01
5.536499e-01
5.588907e-01
5.640542e-01
5.682541e-01
0.000000e+00
1.000000e+00
5.672101e-01
5.612969e-01
5.546837e-01
5.479190e-01
5.415166e-01
5.361555e-01
5.325692e-01
5.313378e-01
5.326784e-01
5.363623e-01
5.417678e-01
5.482242e-01
5.549129e-01
5.615137e-01
5.670144e-01
0.000000e+00
1.000000e+00
5.659742e-01
5.588082e-01
5.507956e-01
5.425976e-01
5.348409e-01
5.283479e-01
5.240051e-01
5.225144e-01
5.241380e-01
5.285952e-01
5.351434e-01
5.429770e-01
5.510577e-01
5.590435e-01
5.658346e-01
0.000000e+00
1.000000e+00
5.648618e-01
5.565496e-01
5.472626e-01
5.377625e-01
5.287759e-01
5.212540e-01
5.162231e-01
5.144960e-01
5.163759e-01
5.215349e-01
5.291206e-01
5.382153e-01
5.475587e-01
5.568032e-01
5.647741e-01
0.000000e+00
1.000000e+00
5.639254e-01
5.546534e-01
5.442897e-01
5.336943e-01
5.236722e-01
5.152837e-01
5.096724e-01
5.077452e-01
5.098401e-01
5.155890e-01
5.240465e-01
5.342080e-01
5.446255e-01
5.549024e-01
5.638788e-01
0.000000e+00
1.000000e+00
5.631977e-01
5.532134e-01
5.420278e-01
5.305999e-01
5.197897e-01
5.107406e-01
5.046863e-01
5.026054e-01
5.048633e-01
5.110612e-01
5.201829e-01
5.311425e-01
5.424225e-01
5.534652e-01
5.631932e-01
0.000000e+00
1.000000e+00
5.627065e-01
5.522828e-01
5.405600e-01
5.285927e-01
5.172707e-01
5.077915e-01
5.014482e-01
4.992662e-01
5.016299e-01
5.081234e-01
5.176770e-01
5.291258e-01
5.410137e-01
5.525400e-01
5.627459e-01
0.000000e+00
1.000000e+00
5.624738e-01
5.518659e-01
5.398982e-01
5.276887e-01
5.161364e-01
5.064638e-01
4.999909e-01
4.977636e-01
5.001745e-01
5.068045e-01
5.165573e-01
5.281869e-01
5.403811e-01
5.521503e-01
5.625203e-01
0.000000e+00
1.000000e+00
5.625338e-01
5.519301e-01
5.399997e-01
5.278273e-01
5.163089e-01
5.066637e-01
5.002090e-01
4.979891e-01
5.003940e-01
5.070059e-01
5.167404e-01
5.282893e-01
5.404503e-01
5.522056e-01
5.625714e-01
0.000000e+00
1.000000e+00
5.627806e-01
5.524269e-01
5.407724e-01
5.288850e-01
5.176354e-01
5.082144e-01
5.019093e-01
4.997411e-01
5.020906e-01
5.085490e-01
5.180583e-01
5.293254e-01
5.412215e-01
5.527610e-01
5.627742e-01
0.000000e+00
1.000000e+00
5.633653e-01
5.532593e-01
5.421014e-01
5.307080e-01
5.199256e-01
5.108954e-01
5.048511e-01
5.027718e-01
5.050242e-01
5.112162e-01
5.203275e-01
5.311611e-01
5.425751e-01
5.539337e-01
5.622223e-01
0.000000e+00
1.000000e+00
5.744933e-01
5.755974e-01
5.770903e-01
5.785971e-01
5.800263e-01
5.812272e-01
5.820358e-01
5.823201e-01
5.820312e-01
5.812301e-01
5.800597e-01
5.786560e-01
5.772118e-01
5.757287e-01
5.737014e-01
0.000000e+00
1.000000e+00
5.738505e-01
5.744633e-01
5.752931e-01
5.761353e-01
5.769338e-01
5.776045e-01
5.780556e-01
5.782130e-01
5.780481e-01
5.775919e-01
5.769371e-01
5.761751e-01
5.754128e-01
5.745917e-01
5.733826e-01
0.000000e+00
1.000000e+00
5.730186e-01
5.729351e-01
5.728835e-01
5.728354e-01
5.727900e-01
5.727520e-01
5.727268e-01
5.727173e-01
5.727253e-01
5.727504e-01
5.728142e-01
5.728966e-01
5.730126e-01
5.730374e-01
5.726776e-01
0.000000e+00
1.000000e+00
5.720440e-01
5.710033e-01
5.698585e-01
5.686943e-01
5.675917e-01
5.666677e-01
5.660486e-01
5.658343e-01
5.660634e-01
5.667000e-01
5.676757e-01
5.687963e-01
5.700017e-01
5.711232e-01
5.715641e-01
0.000000e+00
1.000000e+00
5.709051e-01
5.687086e-01
5.662686e-01
5.637795e-01
5.614225e-01
5.594482e-01
5.581254e-01
5.576694e-01
5.581640e-01
5.595310e-01
5.615617e-01
5.639269e-01
5.664351e-01
5.688734e-01
5.704598e-01
0.000000e+00
1.000000e+00
5.696232e-01
5.661221e-01
5.622237e-01
5.582419e-01
5.544714e-01
5.513135e-01
5.492001e-01
5.484742e-01
5.492669e-01
5.514484e-01
5.546555e-01
5.584472e-01
5.624195e-01
5.663115e-01
5.692620e-01
0.000000e+00
1.000000e+00
5.682859e-01
5.633521e-01
5.578961e-01
5.523173e-01
5.470371e-01
5.426160e-01
5.396594e-01
5.386456e-01
5.397543e-01
5.428020e-01
5.472674e-01
5.525814e-01
5.581216e-01
5.635689e-01
5.679714e-01
0.000000e+00
1.000000e+00
5.669258e-01
5.605446e-01
5.535135e-01
5.463194e-01
5.395136e-01
5.338167e-01
5.300076e-01
5.287014e-01
5.301288e-01
5.340514e-01
5.397953e-01
5.466482e-01
5.537672e-01
5.607888e-01
5.666711e-01
0.000000e+00
1.000000e+00
5.656486e-01
5.578686e-01
5.493361e-01
5.406038e-01
5.323456e-01
5.254344e-01
5.208127e-01
5.192270e-01
5.209572e-01
5.257119e-01
5.326788e-01
5.410076e-01
5.496230e-01
5.581333e-01
5.654288e-01
0.000000e+00
1.000000e+00
5.644864e-01
5.554903e-01
5.456213e-01
5.355221e-01
5.259730e-01
5.179812e-01
5.126357e-01
5.108006e-01
5.127992e-01
5.182926e-01
5.263513e-01
5.359981e-01
5.459470e-01
5.557668e-01
5.642981e-01
0.000000e+00
1.000000e+00
5.635049e-01
5.535509e-01
5.425888e-01
5.313736e-01
5.207694e-01
5.118934e-01
5.059553e-01
5.039152e-01
5.061328e-01
5.122273e-01
5.211828e-01
5.319055e-01
5.429612e-01
5.538279e-01
5.633478e-01
0.000000e+00
1.000000e+00
5.627714e-01
5.521500e-01
5.403915e-01
5.283668e-01
5.169951e-01
5.074757e-01
5.011060e-01
4.989164e-01
5.012927e-01
5.078230e-01
5.174344e-01
5.289217e-01
5.408200e-01
5.524412e-01
5.626458e-01
0.000000e+00
1.000000e+00
5.623023e-01
5.513358e-01
5.390997e-01
5.265976e-01
5.147719e-01
5.048711e-01
4.982458e-01
4.959680e-01
4.984395e-01
5.052305e-01
5.152299e-01
5.271379e-01
5.395740e-01
5.516497e-01
5.622244e-01
0.000000e+00
1.000000e+00
5.622089e-01
5.510866e-01
5.387036e-01
5.260553e-01
5.140897e-01
5.040709e-01
4.973659e-01
4.950598e-01
4.975602e-01
5.044356e-01
5.145562e-01
5.265510e-01
5.391692e-01
5.514561e-01
5.620516e-01
0.000000e+00
1.000000e+00
5.623239e-01
5.513582e-01
5.391257e-01
5.266326e-01
5.148141e-01
5.049195e-01
4.982988e-01
4.960232e-01
4.984933e-01
5.052850e-01
5.152823e-01
5.270988e-01
5.395717e-01
5.517329e-01
5.622132e-01
0.000000e+00
1.000000e+00
5.626984e-01
5.520929e-01
5.402625e-01
5.281859e-01
5.167599e-01
5.071935e-01
5.007927e-01
4.985932e-01
5.009819e-01
5.075468e-01
5.172004e-01
5.286482e-01
5.407289e-01
5.524987e-01
5.625412e-01
0.000000e+00
1.000000e+00
5.633462e-01
5.531687e-01
5.419630e-01
5.305171e-01
5.196869e-01
5.106187e-01
5.045508e-01
5.024657e-01
5.047309e-01
5.109547e-01
5.200944e-01
5.310150e-01
5.424139e-01
5.537392e-01
5.624274e-01
0.000000e+00
1.000000e+00
5.752028e-01
5.768637e-01
5.790943e-01
5.813415e-01
5.834732e-01
5.852652e-01
5.864727e-01
5.868988e-01
5.864729e-01
5.852900e-01
5.835528e-01
5.814559e-01
5.792651e-01
5.770406e-01
5.743646e-01
0.000000e+00
1.000000e+00
5.744598e-01
5.755545e-01
5.770112e-01
5.784889e-01
5.798902e-01
5.810675e-01
5.818596e-01
5.821378e-01
5.818525e-01
5.810596e-01
5.799194e-01
5.785744e-01
5.771985e-01
5.757283e-01
5.739488e-01
0.000000e+00
1.000000e+00
5.734748e-01
5.738236e-01
5.742757e-01
5.747421e-01
5.751843e-01
5.755558e-01
5.758059e-01
5.758933e-01
5.758025e-01
5.755515e-01
5.752074e-01
5.748224e-01
5.744601e-01
5.739798e-01
5.732034e-01
0.000000e+00
1.000000e+00
5.723314e-01
5.716667e-01
5.708901e-01
5.701058e-01
5.693632e-01
5.687423e-01
5.683286e-01
5.681880e-01
5.683452e-01
5.687731e-01
5.694514e-01
5.702301e-01
5.710873e-01
5.718277e-01
5.720192e-01
0.000000e+00
1.000000e+00
5.710888e-01
5.691240e-01
5.669180e-01
5.646678e-01
5.625380e-01
5.607565e-01
5.595661e-01
5.591580e-01
5.596068e-01
5.608429e-01
5.626976e-01
5.648282e-01
5.671399e-01
5.693354e-01
5.708191e-01
0.000000e+00
1.000000e+00
5.697174e-01
5.662915e-01
5.624908e-01
5.586070e-01
5.549320e-01
5.518577e-01
5.498007e-01
5.490970e-01
5.498727e-01
5.520030e-01
5.551472e-01
5.588161e-01
5.627239e-01
5.665311e-01
5.694909e-01
0.000000e+00
1.000000e+00
5.682588e-01
5.632938e-01
5.578066e-01
5.521966e-01
5.468881e-01
5.424462e-01
5.394761e-01
5.384609e-01
5.395789e-01
5.426473e-01
5.471526e-01
5.524657e-01
5.580640e-01
5.635511e-01
5.680092e-01
0.000000e+00
1.000000e+00
5.668611e-01
5.602940e-01
5.531203e-01
5.457844e-01
5.388456e-01
5.330391e-01
5.291582e-01
5.278290e-01
5.292867e-01
5.332906e-01
5.391610e-01
5.461189e-01
5.533992e-01
5.605643e-01
5.665130e-01
0.000000e+00
1.000000e+00
5.655645e-01
5.574754e-01
5.487158e-01
5.397610e-01
5.312945e-01
5.242083e-01
5.194694e-01
5.178442e-01
5.196197e-01
5.245010e-01
5.316586e-01
5.401688e-01
5.490210e-01
5.577593e-01
5.651574e-01
0.000000e+00
1.000000e+00
5.644253e-01
5.550136e-01
5.448707e-01
5.345060e-01
5.247057e-01
5.165015e-01
5.110125e-01
5.091279e-01
5.111804e-01
5.168266e-01
5.251131e-01
5.349809e-01
5.452068e-01
5.553062e-01
5.640119e-01
0.000000e+00
1.000000e+00
5.634337e-01
5.530523e-01
5.418168e-01
5.303303e-01
5.194676e-01
5.103724e-01
5.042861e-01
5.021944e-01
5.044673e-01
5.107202e-01
5.199112e-01
5.308546e-01
5.421869e-01
5.533568e-01
5.631397e-01
0.000000e+00
1.000000e+00
5.626704e-01
5.516993e-01
5.397057e-01
5.274384e-01
5.158362e-01
5.061214e-01
4.996199e-01
4.973847e-01
4.998107e-01
5.064842e-01
5.163113e-01
5.279840e-01
5.401083e-01
5.520238e-01
5.625652e-01
0.000000e+00
1.000000e+00
5.622082e-01
5.509949e-01
5.385895e-01
5.259063e-01
5.139106e-01
5.038672e-01
4.971465e-01
4.948365e-01
4.973450e-01
5.042431e-01
5.144077e-01
5.264427e-01
5.390092e-01
5.513603e-01
5.622577e-01
0.000000e+00
1.000000e+00
5.621854e-01
5.509053e-01
5.384415e-01
5.257010e-01
5.136501e-01
5.035605e-01
4.968090e-01
4.944886e-01
4.970094e-01
5.039415e-01
5.141478e-01
5.262111e-01
5.388538e-01
5.513503e-01
5.622007e-01
0.000000e+00
1.000000e+00
5.623903e-01
5.513674e-01
5.391584e-01
5.266801e-01
5.148782e-01
5.049985e-01
4.983886e-01
4.961179e-01
4.985872e-01
5.053763e-01
5.153627e-01
5.271818e-01
5.395737e-01
5.518378e-01
5.624328e-01
0.000000e+00
1.000000e+00
5.628518e-01
5.523115e-01
5.406134e-01
5.286662e-01
5.173655e-01
5.079058e-01
5.015778e-01
4.994053e-01
5.017704e-01
5.082687e-01
5.178143e-01
5.291639e-01
5.410353e-01
5.527872e-01
5.627893e-01
0.000000e+00
1.000000e+00
5.635530e-01
5.535981e-01
5.426334e-01
5.314327e-01
5.208367e-01
5.119664e-01
5.060331e-01
5.039970e-01
5.062164e-01
5.123102e-01
5.212509e-01
5.319552e-01
5.430314e-01
5.540490e-01
5.631390e-01
0.000000e+00
1.000000e+00
5.759849e-01
5.783176e-01
5.813926e-01
5.844882e-01
5.874252e-01
5.898952e-01
5.915613e-01
5.921528e-01
5.915742e-01
5.899553e-01
5.875558e-01
5.846541e-01
5.816051e-01
5.785580e-01
5.750424e-01
0.000000e+00
1.000000e+00
5.751632e-01
5.768639e-01
5.790744e-01
5.813148e-01
5.834401e-01
5.852260e-01
5.864282e-01
5.868521e-01
5.864239e-01
5.852339e-01
5.835121e-01
5.814588e-01
5.793155e-01
5.770980e-01
5.744764e-01
0.000000e+00
1.000000e+00
5.740950e-01
5.749639e-01
5.760694e-01
5.771990e-01
5.782701e-01
5.791699e-01
5.797753e-01
5.799877e-01
5.797701e-01
5.791649e-01
5.783038e-01
5.773166e-01
5.763226e-01
5.752341e-01
5.735195e-01
0.000000e+00
1.000000e+00
5.728095e-01
5.726330e-01
5.723948e-01
5.721656e-01
5.719486e-01
5.717686e-01
5.716521e-01
5.716172e-01
5.716697e-01
5.717965e-01
5.720298e-01
5.723118e-01
5.726357e-01
5.729491e-01
5.720516e-01
0.000000e+00
1.000000e+00
5.714175e-01
5.698989e-01
5.681215e-01
5.663138e-01
5.646034e-01
5.631757e-01
5.622271e-01
5.619065e-01
5.622705e-01
5.632603e-01
5.647721e-01
5.664992e-01
5.684062e-01
5.703276e-01
5.704862e-01
0.000000e+00
1.000000e+00
5.699522e-01
5.668711e-01
5.633978e-01
5.598476e-01
5.564913e-01
5.536882e-01
5.518171e-01
5.511769e-01
5.518871e-01
5.538351e-01
5.567286e-01
5.600710e-01
5.636974e-01
5.674029e-01
5.691356e-01
0.000000e+00
1.000000e+00
5.684651e-01
5.636984e-01
5.584456e-01
5.530727e-01
5.479931e-01
5.437453e-01
5.409039e-01
5.399340e-01
5.410079e-01
5.439500e-01
5.482833e-01
5.533388e-01
5.587526e-01
5.642523e-01
5.680053e-01
0.000000e+00
1.000000e+00
5.670163e-01
5.605627e-01
5.535429e-01
5.463679e-01
5.395811e-01
5.339036e-01
5.301075e-01
5.288104e-01
5.302391e-01
5.341601e-01
5.399239e-01
5.466879e-01
5.538617e-01
5.610765e-01
5.667353e-01
0.000000e+00
1.000000e+00
5.657113e-01
5.576564e-01
5.489910e-01
5.401463e-01
5.317800e-01
5.247777e-01
5.200951e-01
5.184901e-01
5.202464e-01
5.250736e-01
5.321710e-01
5.405295e-01
5.493244e-01
5.581100e-01
5.654642e-01
0.000000e+00
1.000000e+00
5.646858e-01
5.551722e-01
5.450822e-01
5.348056e-01
5.250832e-01
5.169414e-01
5.114936e-01
5.096235e-01
5.116609e-01
5.172659e-01
5.255132e-01
5.352476e-01
5.454304e-01
5.555584e-01
5.643177e-01
0.000000e+00
1.000000e+00
5.638218e-01
5.532329e-01
5.420507e-01
5.306598e-01
5.198806e-01
5.108525e-01
5.048105e-01
5.027343e-01
5.049906e-01
5.111989e-01
5.203432e-01
5.311463e-01
5.424154e-01
5.536241e-01
5.633210e-01
0.000000e+00
1.000000e+00
5.628987e-01
5.519189e-01
5.400391e-01
5.279019e-01
5.164182e-01
5.068009e-01
5.003644e-01
4.981523e-01
5.005556e-01
5.071660e-01
5.169085e-01
5.284139e-01
5.404197e-01
5.524289e-01
5.625635e-01
0.000000e+00
1.000000e+00
5.625904e-01
5.513107e-01
5.390931e-01
5.266011e-01
5.147840e-01
5.048884e-01
4.982656e-01
4.959891e-01
4.984614e-01
5.052627e-01
5.152821e-01
5.271192e-01
5.394950e-01
5.519757e-01
5.621354e-01
0.000000e+00
1.000000e+00
5.625157e-01
5.513492e-01
5.391546e-01
5.266836e-01
5.148888e-01
5.050138e-01
4.984059e-01
4.961358e-01
4.986049e-01
5.053960e-01
5.153841e-01
5.272072e-01
5.395767e-01
5.521610e-01
5.620976e-01
0.000000e+00
1.000000e+00
5.627412e-01
5.519724e-01
5.401201e-01
5.279994e-01
5.165377e-01
5.069438e-01
5.005259e-01
4.983227e-01
5.007232e-01
5.073222e-01
5.170160e-01
5.285239e-01
5.405417e-01
5.528364e-01
5.624789e-01
0.000000e+00
1.000000e+00
5.632267e-01
5.530823e-01
5.418314e-01
5.303347e-01
5.194620e-01
5.103620e-01
5.042764e-01