<?xml version="1.0"?>
<VTKFile type="StructuredGrid" version="0.1">
  <StructuredGrid WholeExtent="0 16 0 16 0 16">
    <Piece Extent="0 16 0 16 0 16">
      <PointData Scalars="temperature" Vectors="velocity">
        <DataArray type="Float32" Name="temperature" format="ascii">
1.000000e+00
5.730333e-01
5.730702e-01
5.731099e-01
5.731504e-01
5.731889e-01
5.732212e-01
5.732430e-01
5.732507e-01
5.732430e-01
5.732212e-01
5.731889e-01
5.731504e-01
5.731099e-01
5.730702e-01
5.730333e-01
0.000000e+00
1.000000e+00
5.729609e-01
5.729175e-01
5.728708e-01
5.728232e-01
5.727779e-01
5.727399e-01
5.727143e-01
5.727052e-01
5.727143e-01
5.727399e-01
5.727779e-01
5.728232e-01
5.728708e-01
5.729175e-01
5.729609e-01
0.000000e+00
1.000000e+00
5.728752e-01
5.727367e-01
5.725880e-01
5.724359e-01
5.722916e-01
5.721704e-01
5.720887e-01
5.720598e-01
5.720887e-01
5.721704e-01
5.722916e-01
5.724359e-01
5.725880e-01
5.727367e-01
5.728752e-01
0.000000e+00
1.000000e+00
5.727779e-01
5.725315e-01
5.722668e-01
5.719961e-01
5.717394e-01
5.715237e-01
5.713784e-01
5.713269e-01
5.713784e-01
5.715237e-01
5.717394e-01
5.719961e-01
5.722668e-01
5.725315e-01
5.727779e-01
0.000000e+00
1.000000e+00
5.726719e-01
5.723079e-01
5.719168e-01
5.715169e-01
5.711376e-01
5.708189e-01
5.706042e-01
5.705281e-01
5.706042e-01
5.708189e-01
5.711376e-01
5.715169e-01
5.719168e-01
5.723079e-01
5.726719e-01
0.000000e+00
1.000000e+00
5.725612e-01
5.720743e-01
5.715513e-01
5.710164e-01
5.705092e-01
5.700829e-01
5.697957e-01
5.696940e-01
5.697957e-01
5.700829e-01
5.705092e-01
5.710164e-01
5.715513e-01
5.720743e-01
5.725612e-01
0.000000e+00
1.000000e+00
5.724508e-01
5.718415e-01
5.711870e-01
5.705175e-01
5.698827e-01
5.693493e-01
5.689898e-01
5.688625e-01
5.689898e-01
5.693493e-01
5.698827e-01
5.705175e-01
5.711870e-01
5.718415e-01
5.724508e-01
0.000000e+00
1.000000e+00
5.723464e-01
5.716214e-01
5.708425e-01
5.700458e-01
5.692904e-01
5.686556e-01
5.682279e-01
5.680764e-01
5.682279e-01
5.686556e-01
5.692904e-01
5.700458e-01
5.708425e-01
5.716214e-01
5.723464e-01
0.000000e+00
1.000000e+00
5.722538e-01
5.714260e-01
5.705367e-01
5.696272e-01
5.687647e-01
5.680400e-01
5.675516e-01
5.673786e-01
5.675516e-01
5.680400e-01
5.687647e-01
5.696272e-01
5.705367e-01
5.714260e-01
5.722538e-01
0.000000e+00
1.000000e+00
5.721781e-01
5.712663e-01
5.702867e-01
5.692849e-01
5.683349e-01
5.675366e-01
5.669986e-01
5.668081e-01
5.669986e-01
5.675366e-01
5.683349e-01
5.692849e-01
5.702867e-01
5.712663e-01
5.721781e-01
0.000000e+00
1.000000e+00
5.721233e-01
5.711507e-01
5.701058e-01
5.690371e-01
5.680238e-01
5.671723e-01
5.665984e-01
5.663952e-01
5.665984e-01
5.671723e-01
5.680238e-01
5.690371e-01
5.701058e-01
5.711506e-01
5.721233e-01
0.000000e+00
1.000000e+00
5.720919e-01
5.710844e-01
5.700021e-01
5.688952e-01
5.678455e-01
5.669635e-01
5.663691e-01
5.661586e-01
5.663691e-01
5.669635e-01
5.678455e-01
5.688952e-01
5.700021e-01
5.710844e-01
5.720919e-01
0.000000e+00
1.000000e+00
5.720846e-01
5.710691e-01
5.699782e-01
5.688625e-01
5.678045e-01
5.669154e-01
5.663163e-01
5.661041e-01
5.663163e-01
5.669154e-01
5.678045e-01
5.688625e-01
5.699782e-01
5.710691e-01
5.720846e-01
0.000000e+00
1.000000e+00
5.721007e-01
5.711031e-01
5.700314e-01
5.689352e-01
5.678958e-01
5.670224e-01
5.664338e-01
5.662254e-01
5.664338e-01
5.670224e-01
5.678958e-01
5.689352e-01
5.700314e-01
5.711031e-01
5.721007e-01
0.000000e+00
1.000000e+00
5.721380e-01
5.711816e-01
5.701543e-01
5.691035e-01
5.681071e-01
5.672699e-01
5.667057e-01
5.665059e-01
5.667057e-01
5.672699e-01
5.681071e-01
5.691035e-01
5.701543e-01
5.711816e-01
5.721380e-01
0.000000e+00
1.000000e+00
5.721932e-01
5.712982e-01
5.703367e-01
5.693533e-01
5.684208e-01
5.676372e-01
5.671092e-01
5.669222e-01
5.671092e-01
5.676372e-01
5.684208e-01
5.693533e-01
5.703367e-01
5.712982e-01
5.721932e-01
0.000000e+00
1.000000e+00
5.722629e-01
5.714452e-01
5.705667e-01
5.696683e-01
5.688163e-01
5.681004e-01
5.676180e-01
5.674471e-01
5.676180e-01
5.681004e-01
5.688163e-01
5.696683e-01
5.705667e-01
5.714452e-01
5.722629e-01
0.000000e+00
1.000000e+00
5.729640e-01
5.729241e-01
5.728811e-01
5.728373e-01
5.727956e-01
5.727607e-01
5.727371e-01
5.727287e-01
5.727371e-01
5.727607e-01
5.727956e-01
5.728373e-01
5.728811e-01
5.729241e-01
5.729640e-01
0.000000e+00
1.000000e+00
5.728887e-01
5.727653e-01
5.726327e-01
5.724970e-01
5.723684e-01
5.722604e-01
5.721875e-01
5.721617e-01
5.721875e-01
5.722604e-01
5.723684e-01
5.724970e-01
5.726327e-01
5.727653e-01
5.728887e-01
0.000000e+00
1.000000e+00
5.728000e-01
5.725780e-01
5.723396e-01
5.720958e-01
5.718646e-01
5.716703e-01
5.715393e-01
5.714930e-01
5.715393e-01
5.716703e-01
5.718646e-01
5.720958e-01
5.723396e-01
5.725780e-01
5.728000e-01
0.000000e+00
1.000000e+00
5.726995e-01
5.723662e-01
5.720080e-01
5.716418e-01
5.712944e-01
5.710026e-01
5.708059e-01
5.707363e-01
5.708059e-01
5.710026e-01
5.712944e-01
5.716418e-01
5.720080e-01
5.723662e-01
5.726995e-01
0.000000e+00
1.000000e+00
5.725905e-01
5.721363e-01
5.716483e-01
5.711492e-01
5.706759e-01
5.702782e-01
5.700102e-01
5.699152e-01
5.700102e-01
5.702782e-01
5.706759e-01
5.711492e-01
5.716483e-01
5.721363e-01
5.725905e-01
0.000000e+00
1.000000e+00
5.724775e-01
5.718978e-01
5.712750e-01
5.706381e-01
5.700341e-01
5.695266e-01
5.691846e-01
5.690634e-01
5.691846e-01
5.695266e-01
5.700341e-01
5.706381e-01
5.712750e-01
5.718978e-01
5.724775e-01
0.000000e+00
1.000000e+00
5.723658e-01
5.716623e-01
5.709065e-01
5.701335e-01
5.694005e-01
5.687846e-01
5.683695e-01
5.682225e-01
5.683695e-01
5.687846e-01
5.694005e-01
5.701335e-01
5.709065e-01
5.716623e-01
5.723658e-01
0.000000e+00
1.000000e+00
5.722618e-01
5.714429e-01
5.705632e-01
5.696634e-01
5.688102e-01
5.680933e-01
5.676102e-01
5.674391e-01
5.676102e-01
5.680933e-01
5.688102e-01
5.696634e-01
5.705632e-01
5.714429e-01
5.722618e-01
0.000000e+00
1.000000e+00
5.721716e-01
5.712526e-01
5.702654e-01
5.692557e-01
5.682982e-01
5.674936e-01
5.669515e-01
5.667595e-01
5.669515e-01
5.674936e-01
5.682982e-01
5.692557e-01
5.702654e-01
5.712526e-01
5.721716e-01
0.000000e+00
1.000000e+00
5.721007e-01
5.711029e-01
5.700311e-01
5.689349e-01
5.678954e-01
5.670219e-01
5.664333e-01
5.662249e-01
5.664333e-01
5.670219e-01
5.678954e-01
5.689349e-01
5.700311e-01
5.711029e-01
5.721007e-01
0.000000e+00
1.000000e+00
5.720530e-01
5.710025e-01
5.698739e-01
5.687196e-01
5.676251e-01
5.667053e-01
5.660855e-01
5.658660e-01
5.660855e-01
5.667053e-01
5.676251e-01
5.687196e-01
5.698739e-01
5.710025e-01
5.720530e-01
0.000000e+00
1.000000e+00
5.720310e-01
5.709560e-01
5.698012e-01
5.686200e-01
5.675001e-01
5.665589e-01
5.659247e-01
5.657001e-01
5.659247e-01
5.665589e-01
5.675001e-01
5.686200e-01
5.698012e-01
5.709560e-01
5.720310e-01
0.000000e+00
1.000000e+00
5.720349e-01
5.709643e-01
5.698142e-01
5.686378e-01
5.675224e-01
5.665850e-01
5.659534e-01
5.657297e-01
5.659534e-01
5.665850e-01
5.675224e-01
5.686378e-01
5.698142e-01
5.709643e-01
5.720349e-01
0.000000e+00
1.000000e+00
5.720634e-01
5.710243e-01
5.699080e-01
5.687664e-01
5.676838e-01
5.667741e-01
5.661611e-01
5.659440e-01
5.661611e-01
5.667741e-01
5.676838e-01
5.687664e-01
5.699080e-01
5.710243e-01
5.720634e-01
0.000000e+00
1.000000e+00
5.721135e-01
5.711300e-01
5.700734e-01
5.689928e-01
5.679682e-01
5.671071e-01
5.665269e-01
5.663214e-01
5.665269e-01
5.671071e-01
5.679682e-01
5.689928e-01
5.700734e-01
5.711300e-01
5.721135e-01
0.000000e+00
1.000000e+00
5.721815e-01
5.712734e-01
5.702980e-01
5.693003e-01
5.683542e-01
5.675592e-01
5.670235e-01
5.668338e-01
5.670235e-01
5.675592e-01
5.683542e-01
5.693003e-01
5.702980e-01
5.712734e-01
5.721815e-01
0.000000e+00
1.000000e+00
5.722633e-01
5.714460e-01
5.705679e-01
5.696699e-01
5.688184e-01
5.681028e-01
5.676206e-01
5.674499e-01
5.676206e-01
5.681028e-01
5.688184e-01
5.696699e-01
5.705679e-01
5.714459e-01
5.722633e-01
0.000000e+00
1.000000e+00
5.729040e-01
5.727975e-01
5.726831e-01
5.725661e-01
5.724552e-01
5.723619e-01
5.722991e-01
5.722768e-01
5.722991e-01
5.723619e-01
5.724552e-01
5.725661e-01
5.726831e-01
5.727975e-01
5.729040e-01
0.000000e+00
1.000000e+00
5.728265e-01
5.726341e-01
5.724274e-01
5.722159e-01
5.720154e-01
5.718469e-01
5.717334e-01
5.716932e-01
5.717334e-01
5.718469e-01
5.720154e-01
5.722159e-01
5.724274e-01
5.726341e-01
5.728265e-01
0.000000e+00
1.000000e+00
5.727354e-01
5.724418e-01
5.721265e-01
5.718039e-01
5.714981e-01
5.712411e-01
5.710679e-01
5.710066e-01
5.710679e-01
5.712411e-01
5.714981e-01
5.718039e-01
5.721265e-01
5.724418e-01
5.727354e-01
0.000000e+00
1.000000e+00
5.726326e-01
5.722249e-01
5.717870e-01
5.713391e-01
5.709144e-01
5.705575e-01
5.703170e-01
5.702318e-01
5.703170e-01
5.705575e-01
5.709144e-01
5.713391e-01
5.717870e-01
5.722249e-01
5.726326e-01
0.000000e+00
1.000000e+00
5.725214e-01
5.719905e-01
5.714201e-01
5.708367e-01
5.702835e-01
5.698187e-01
5.695055e-01
5.693945e-01
5.695055e-01
5.698187e-01
5.702835e-01
5.708367e-01
5.714201e-01
5.719905e-01
5.725214e-01
0.000000e+00
1.000000e+00
5.724068e-01
5.717487e-01
5.710417e-01
5.703187e-01
5.696330e-01
5.690568e-01
5.686686e-01
5.685311e-01
5.686686e-01
5.690568e-01
5.696330e-01
5.703187e-01
5.710417e-01
5.717487e-01
5.724068e-01
0.000000e+00
1.000000e+00
5.722947e-01
5.715123e-01
5.706717e-01
5.698120e-01
5.689968e-01
5.683118e-01
5.678502e-01
5.676867e-01
5.678502e-01
5.683118e-01
5.689968e-01
5.698120e-01
5.706717e-01
5.715123e-01
5.722947e-01
0.000000e+00
1.000000e+00
5.721918e-01
5.712952e-01
5.703320e-01
5.693469e-01
5.684128e-01
5.676278e-01
5.670988e-01
5.669115e-01
5.670988e-01
5.676278e-01
5.684128e-01
5.693469e-01
5.703320e-01
5.712952e-01
5.721918e-01
0.000000e+00
1.000000e+00
5.721047e-01
5.711114e-01
5.700444e-01
5.689530e-01
5.679182e-01
5.670486e-01
5.664626e-01
5.662551e-01
5.664626e-01
5.670486e-01
5.679182e-01
5.689530e-01
5.700444e-01
5.711114e-01
5.721047e-01
0.000000e+00
1.000000e+00
5.720390e-01
5.709729e-01
5.698276e-01
5.686563e-01
5.675455e-01
5.666122e-01
5.659832e-01
5.657605e-01
5.659832e-01
5.666122e-01
5.675455e-01
5.686563e-01
5.698276e-01
5.709729e-01
5.720390e-01
0.000000e+00
1.000000e+00
5.719989e-01
5.708883e-01
5.696953e-01
5.684751e-01
5.673180e-01
5.663457e-01
5.656905e-01
5.654584e-01
5.656905e-01
5.663457e-01
5.673180e-01
5.684751e-01
5.696953e-01
5.708883e-01
5.719989e-01
0.000000e+00
1.000000e+00
5.719864e-01
5.708620e-01
5.696540e-01
5.684186e-01
5.672471e-01
5.662626e-01
5.655992e-01
5.653643e-01
5.655992e-01
5.662626e-01
5.672471e-01
5.684186e-01
5.696540e-01
5.708620e-01
5.719864e-01
0.000000e+00
1.000000e+00
5.720014e-01
5.708936e-01
5.697034e-01
5.684862e-01
5.673320e-01
5.663621e-01
5.657085e-01
5.654770e-01
5.657085e-01
5.663621e-01
5.673320e-01
5.684862e-01
5.697034e-01
5.708936e-01
5.720014e-01
0.000000e+00
1.000000e+00
5.720418e-01
5.709787e-01
5.698367e-01
5.686686e-01
5.675611e-01
5.666303e-01
5.660032e-01
5.657811e-01
5.660032e-01
5.666303e-01
5.675611e-01
5.686686e-01
5.698367e-01
5.709787e-01
5.720418e-01
0.000000e+00
1.000000e+00
5.721040e-01
5.711100e-01
5.700421e-01
5.689499e-01
5.679143e-01
5.670440e-01
5.664576e-01
5.662499e-01
5.664576e-01
5.670440e-01
5.679143e-01
5.689499e-01
5.700421e-01
5.711100e-01
5.721040e-01
0.000000e+00
1.000000e+00
5.721838e-01
5.712782e-01
5.703054e-01
5.693104e-01
5.683670e-01
5.675742e-01
5.670400e-01
5.668507e-01
5.670400e-01
5.675742e-01
5.683670e-01
5.693104e-01
5.703054e-01
5.712782e-01
5.721838e-01
0.000000e+00
1.000000e+00
5.722764e-01
5.714736e-01
5.706112e-01
5.697292e-01
5.688928e-01
5.681900e-01
5.677164e-01
5.675486e-01
5.677164e-01
5.681900e-01
5.688928e-01
5.697292e-01
5.706112e-01
5.714736e-01
5.722764e-01
0.000000e+00
1.000000e+00
5.728572e-01
5.726987e-01
5.725285e-01
5.723544e-01
5.721894e-01
5.720507e-01
5.719572e-01
5.719241e-01
5.719572e-01
5.720507e-01
5.721894e-01
5.723544e-01
5.725285e-01
5.726987e-01
5.728572e-01
0.000000e+00
1.000000e+00
5.727786e-01
5.725329e-01
5.722689e-01
5.719990e-01
5.717430e-01
5.715279e-01
5.713830e-01
5.713316e-01
5.713830e-01
5.715279e-01
5.717430e-01
5.719990e-01
5.722689e-01
5.725329e-01
5.727786e-01
0.000000e+00
1.000000e+00
5.726861e-01
5.723379e-01
5.719639e-01
5.715813e-01
5.712185e-01
5.709137e-01
5.707082e-01
5.706355e-01
5.707082e-01
5.709137e-01
5.712185e-01
5.715813e-01
5.719639e-01
5.723379e-01
5.726861e-01
0.000000e+00
1.000000e+00
5.725821e-01
5.721184e-01
5.716203e-01
5.711108e-01
5.706278e-01
5.702218e-01
5.699483e-01
5.698514e-01
5.699483e-01
5.702218e-01
5.706278e-01
5.711108e-01
5.716203e-01
5.721184e-01
5.725821e-01
0.000000e+00
1.000000e+00
5.724699e-01
5.718818e-01
5.712501e-01
5.706039e-01
5.699913e-01
5.694764e-01
5.691295e-01
5.690066e-01
5.691295e-01
5.694764e-01
5.699913e-01
5.706039e-01
5.712501e-01
5.718818e-01
5.724699e-01
0.000000e+00
1.000000e+00
5.723549e-01
5.716392e-01
5.708703e-01
5.700839e-01
5.693382e-01
5.687116e-01
5.682894e-01
5.681398e-01
5.682894e-01
5.687116e-01
5.693382e-01
5.700839e-01
5.708703e-01
5.716392e-01
5.723549e-01
0.000000e+00
1.000000e+00
5.722433e-01
5.714038e-01
5.705020e-01
5.695796e-01
5.687050e-01
5.679701e-01
5.674748e-01
5.672994e-01
5.674748e-01
5.679701e-01
5.687050e-01
5.695796e-01
5.705020e-01
5.714038e-01
5.722433e-01
0.000000e+00
1.000000e+00
5.721423e-01
5.711908e-01
5.701686e-01
5.691232e-01
5.681319e-01
5.672988e-01
5.667375e-01
5.665387e-01
5.667375e-01
5.672988e-01
5.681319e-01
5.691232e-01
5.701686e-01
5.711908e-01
5.721423e-01
0.000000e+00
1.000000e+00
5.720589e-01
5.710147e-01
5.698931e-01
5.687459e-01
5.676581e-01
5.667439e-01
5.661280e-01
5.659098e-01
5.661280e-01
5.667439e-01
5.676581e-01
5.687459e-01
5.698931e-01
5.710147e-01
5.720589e-01
0.000000e+00
1.000000e+00
5.719988e-01
5.708880e-01
5.696948e-01
5.684743e-01
5.673171e-01
5.663446e-01
5.656893e-01
5.654572e-01
5.656893e-01
5.663446e-01
5.673171e-01
5.684743e-01
5.696948e-01
5.708880e-01
5.719988e-01
0.000000e+00
1.000000e+00
5.719662e-01
5.708192e-01
5.695871e-01
5.683269e-01
5.671320e-01
5.661278e-01
5.654512e-01
5.652115e-01
5.654512e-01
5.661278e-01
5.671320e-01
5.683269e-01
5.695871e-01
5.708192e-01
5.719662e-01
0.000000e+00
1.000000e+00
5.719627e-01
5.708120e-01
5.695758e-01
5.683114e-01
5.671125e-01
5.661051e-01
5.654262e-01
5.651857e-01
5.654262e-01
5.661051e-01
5.671125e-01
5.683114e-01
5.695758e-01
5.708120e-01
5.719627e-01
0.000000e+00
1.000000e+00
5.719879e-01
5.708651e-01
5.696588e-01
5.684251e-01
5.672553e-01
5.662723e-01
5.656098e-01
5.653752e-01
5.656098e-01
5.662723e-01
5.672553e-01
5.684251e-01
5.696588e-01
5.708650e-01
5.719879e-01
0.000000e+00
1.000000e+00
5.720390e-01
5.709728e-01
5.698274e-01
5.686559e-01
5.675451e-01
5.666117e-01
5.659827e-01
5.657599e-01
5.659827e-01
5.666117e-01
5.675451e-01
5.686559e-01
5.698274e-01
5.709728e-01
5.720390e-01
0.000000e+00
1.000000e+00
5.721118e-01
5.711264e-01
5.700679e-01
5.689852e-01
5.679586e-01
5.670959e-01
5.665146e-01
5.663087e-01
5.665146e-01
5.670959e-01
5.679586e-01
5.689852e-01
5.700679e-01
5.711264e-01
5.721118e-01
0.000000e+00
1.000000e+00
5.722015e-01
5.713157e-01
5.703641e-01
5.693908e-01
5.684679e-01
5.676923e-01
5.671697e-01
5.669846e-01
5.671697e-01
5.676923e-01
5.684679e-01
5.693908e-01
5.703641e-01
5.713157e-01
5.722015e-01
0.000000e+00
1.000000e+00
5.723031e-01
5.715300e-01
5.706994e-01
5.698499e-01
5.690444e-01
5.683675e-01
5.679114e-01
5.677498e-01
5.679114e-01
5.683675e-01
5.690444e-01
5.698499e-01
5.706994e-01
5.715299e-01
5.723031e-01
0.000000e+00
1.000000e+00
5.728273e-01
5.726357e-01
5.724298e-01
5.722193e-01
5.720196e-01
5.718519e-01
5.717388e-01
5.716988e-01
5.717388e-01
5.718519e-01
5.720196e-01
5.722193e-01
5.724298e-01
5.726357e-01
5.728273e-01
0.000000e+00
1.000000e+00
5.727489e-01
5.724703e-01
5.721710e-01
5.718650e-01
5.715747e-01
5.713308e-01
5.711665e-01
5.711083e-01
5.711665e-01
5.713308e-01
5.715747e-01
5.718650e-01
5.721710e-01
5.724703e-01
5.727489e-01
0.000000e+00
1.000000e+00
5.726567e-01
5.722759e-01
5.718668e-01
5.714484e-01
5.710516e-01
5.707182e-01
5.704936e-01
5.704140e-01
5.704936e-01
5.707182e-01
5.710516e-01
5.714484e-01
5.718668e-01
5.722759e-01
5.726567e-01
0.000000e+00
1.000000e+00
5.725530e-01
5.720570e-01
5.715243e-01
5.709794e-01
5.704627e-01
5.700285e-01
5.697359e-01
5.696323e-01
5.697359e-01
5.700285e-01
5.704627e-01
5.709794e-01
5.715243e-01
5.720570e-01
5.725530e-01
0.000000e+00
1.000000e+00
5.724414e-01
5.718216e-01
5.711558e-01
5.704748e-01
5.698291e-01
5.692865e-01
5.689209e-01
5.687914e-01
5.689209e-01
5.692865e-01
5.698291e-01
5.704748e-01
5.711558e-01
5.718216e-01
5.724414e-01
0.000000e+00
1.000000e+00
5.723273e-01
5.715809e-01
5.707792e-01
5.699591e-01
5.691816e-01
5.685281e-01
5.680878e-01
5.679319e-01
5.680878e-01
5.685281e-01
5.691816e-01
5.699591e-01
5.707792e-01
5.715809e-01
5.723273e-01
0.000000e+00
1.000000e+00
5.722174e-01
5.713492e-01
5.704165e-01
5.694626e-01
5.685580e-01
5.677979e-01
5.672857e-01
5.671043e-01
5.672857e-01
5.677979e-01
5.685580e-01
5.694626e-01
5.704165e-01
5.713492e-01
5.722174e-01
0.000000e+00
1.000000e+00
5.721192e-01
5.711420e-01
5.700922e-01
5.690186e-01
5.680005e-01
5.671450e-01
5.665685e-01
5.663643e-01
5.665685e-01
5.671450e-01
5.680005e-01
5.690186e-01
5.700922e-01
5.711420e-01
5.721192e-01
0.000000e+00
1.000000e+00
5.720398e-01
5.709745e-01
5.698301e-01
5.686597e-01
5.675498e-01
5.666172e-01
5.659887e-01
5.657662e-01
5.659887e-01
5.666172e-01
5.675498e-01
5.686597e-01
5.698301e-01
5.709745e-01
5.720398e-01
0.000000e+00
1.000000e+00
5.719852e-01
5.708594e-01
5.696500e-01
5.684130e-01
5.672401e-01
5.662544e-01
5.655903e-01
5.653550e-01
5.655903e-01
5.662544e-01
5.672401e-01
5.684130e-01
5.696500e-01
5.708594e-01
5.719852e-01
0.000000e+00
1.000000e+00
5.719594e-01
5.708050e-01
5.695649e-01
5.682965e-01
5.670938e-01
5.660831e-01
5.654021e-01
5.651609e-01
5.654021e-01
5.660831e-01
5.670938e-01
5.682965e-01
5.695649e-01
5.708050e-01
5.719594e-01
0.000000e+00
1.000000e+00
5.719639e-01
5.708145e-01
5.695797e-01
5.683168e-01
5.671193e-01
5.661129e-01
5.654348e-01
5.651947e-01
5.654348e-01
5.661129e-01
5.671193e-01
5.683168e-01
5.695797e-01
5.708145e-01
5.719639e-01
0.000000e+00
1.000000e+00
5.719976e-01
5.708856e-01
5.696909e-01
5.684691e-01
5.673105e-01
5.663369e-01
5.656808e-01
5.654485e-01
5.656808e-01
5.663369e-01
5.673105e-01
5.684691e-01
5.696909e-01
5.708856e-01
5.719976e-01
0.000000e+00
1.000000e+00
5.720573e-01
5.710115e-01
5.698880e-01
5.687389e-01
5.676494e-01
5.667337e-01
5.661168e-01
5.658982e-01
5.661168e-01
5.667337e-01
5.676494e-01
5.687389e-01
5.698880e-01
5.710115e-01
5.720573e-01
0.000000e+00
1.000000e+00
5.721384e-01
5.711826e-01
5.701557e-01
5.691055e-01
5.681096e-01
5.672728e-01
5.667089e-01
5.665092e-01
5.667089e-01
5.672728e-01
5.681096e-01
5.691055e-01
5.701557e-01
5.711826e-01
5.721384e-01
0.000000e+00
1.000000e+00
5.722356e-01
5.713875e-01
5.704765e-01
5.695447e-01
5.686612e-01
5.679187e-01
5.674184e-01
5.672412e-01
5.674184e-01
5.679187e-01
5.686612e-01
5.695447e-01
5.704765e-01
5.713875e-01
5.722356e-01
0.000000e+00
1.000000e+00
5.723435e-01
5.716152e-01
5.708327e-01
5.700325e-01
5.692737e-01
5.686360e-01
5.682063e-01
5.680542e-01
5.682063e-01
5.686360e-01
5.692737e-01
5.700325e-01
5.708327e-01
5.716152e-01
5.723435e-01
0.000000e+00
1.000000e+00
5.728175e-01
5.726151e-01
5.723976e-01
5.721752e-01
5.719643e-01
5.717870e-01
5.716676e-01
5.716253e-01
5.716676e-01
5.717870e-01
5.719643e-01
5.721752e-01
5.723976e-01
5.726151e-01
5.728175e-01
0.000000e+00
1.000000e+00
5.727411e-01
5.724540e-01
5.721454e-01
5.718299e-01
5.715307e-01
5.712793e-01
5.711098e-01
5.710498e-01
5.711098e-01
5.712793e-01
5.715307e-01
5.718299e-01
5.721454e-01
5.724540e-01
5.727411e-01
0.000000e+00
1.000000e+00
5.726511e-01
5.722640e-01
5.718481e-01
5.714228e-01
5.710195e-01
5.706806e-01
5.704523e-01
5.703714e-01
5.704523e-01
5.706806e-01
5.710195e-01
5.714228e-01
5.718481e-01
5.722640e-01
5.726511e-01
0.000000e+00
1.000000e+00
5.725495e-01
5.720497e-01
5.715128e-01
5.709637e-01
5.704430e-01
5.700054e-01
5.697106e-01
5.696062e-01
5.697106e-01
5.700054e-01
5.704430e-01
5.709637e-01
5.715128e-01
5.720497e-01
5.725495e-01
0.000000e+00
1.000000e+00
5.724402e-01
5.718192e-01
5.711521e-01
5.704698e-01
5.698228e-01
5.692791e-01
5.689127e-01
5.687829e-01
5.689127e-01
5.692791e-01
5.698228e-01
5.704698e-01
5.711521e-01
5.718192e-01
5.724402e-01
0.000000e+00
1.000000e+00
5.723287e-01
5.715840e-01
5.707840e-01
5.699658e-01
5.691899e-01
5.685379e-01
5.680985e-01
5.679429e-01
5.680985e-01
5.685379e-01
5.691899e-01
5.699658e-01
5.707840e-01
5.715840e-01
5.723287e-01
0.000000e+00
1.000000e+00
5.722219e-01
5.713586e-01
5.704312e-01
5.694827e-01
5.685833e-01
5.678275e-01
5.673182e-01
5.671378e-01
5.673182e-01
5.678275e-01
5.685833e-01
5.694827e-01
5.704312e-01
5.713586e-01
5.722219e-01
0.000000e+00
1.000000e+00
5.721272e-01
5.711589e-01
5.701186e-01
5.690547e-01
5.680459e-01
5.671982e-01
5.666269e-01
5.664246e-01
5.666269e-01
5.671982e-01
5.680459e-01
5.690547e-01
5.701186e-01
5.711589e-01
5.721272e-01
0.000000e+00
1.000000e+00
5.720520e-01
5.710003e-01
5.698706e-01
5.687150e-01
5.676193e-01
5.666986e-01
5.660782e-01
5.658584e-01
5.660782e-01
5.666986e-01
5.676193e-01
5.687150e-01
5.698706e-01
5.710003e-01
5.720520e-01
0.000000e+00
1.000000e+00
5.720024e-01
5.708957e-01
5.697068e-01
5.684909e-01
5.673379e-01
5.663689e-01
5.657160e-01
5.654848e-01
5.657160e-01
5.663689e-01
5.673379e-01
5.684909e-01
5.697068e-01
5.708957e-01
5.720024e-01
0.000000e+00
1.000000e+00
5.719823e-01
5.708532e-01
5.696403e-01
5.683997e-01
5.672234e-01
5.662349e-01
5.655688e-01
5.653329e-01
5.655688e-01
5.662349e-01
5.672234e-01
5.683997e-01
5.696403e-01
5.708532e-01
5.719823e-01
0.000000e+00
1.000000e+00
5.719928e-01
5.708753e-01
5.696749e-01
5.684472e-01
5.672830e-01
5.663047e-01
5.656455e-01
5.654120e-01
5.656455e-01
5.663047e-01
5.672830e-01
5.684472e-01
5.696749e-01
5.708753e-01
5.719928e-01
0.000000e+00
1.000000e+00
5.720325e-01
5.709592e-01
5.698062e-01
5.686269e-01
5.675087e-01
5.665690e-01
5.659358e-01
5.657116e-01
5.659358e-01
5.665690e-01
5.675087e-01
5.686269e-01
5.698062e-01
5.709592e-01
5.720325e-01
0.000000e+00
1.000000e+00
5.720980e-01
5.710973e-01
5.700223e-01
5.689229e-01
5.678803e-01
5.670042e-01
5.664139e-01
5.662048e-01
5.664139e-01
5.670042e-01
5.678803e-01
5.689229e-01
5.700223e-01
5.710973e-01
5.720980e-01
0.000000e+00
1.000000e+00
5.721842e-01
5.712792e-01
5.703070e-01
5.693126e-01
5.683697e-01
5.675773e-01
5.670434e-01
5.668543e-01
5.670434e-01
5.675773e-01
5.683697e-01
5.693126e-01
5.703070e-01
5.712792e-01
5.721842e-01
0.000000e+00
1.000000e+00
5.722856e-01
5.714931e-01
5.706417e-01
5.697709e-01
5.689453e-01
5.682514e-01
5.677838e-01
5.676183e-01
5.677838e-01
5.682514e-01
5.689453e-01
5.697709e-01
5.706417e-01
5.714931e-01
5.722856e-01
0.000000e+00
1.000000e+00
5.723967e-01
5.717275e-01
5.710085e-01
5.702732e-01
5.695759e-01
5.689899e-01
5.685951e-01
5.684553e-01
5.685951e-01
5.689899e-01
5.695759e-01
5.702732e-01
5.710085e-01
5.717275e-01
5.723967e-01
0.000000e+00
1.000000e+00
5.728302e-01
5.726417e-01
5.724393e-01
5.722322e-01
5.720359e-01
5.718709e-01
5.717598e-01
5.717204e-01
5.717598e-01
5.718709e-01
5.720359e-01
5.722322e-01
5.724393e-01
5.726417e-01
5.728302e-01
0.000000e+00
1.000000e+00
5.727577e-01
5.724889e-01
5.722001e-01
5.719047e-01
5.716247e-01
5.713893e-01
5.712307e-01
5.711745e-01
5.712307e-01
5.713893e-01
5.716247e-01
5.719047e-01
5.722001e-01
5.724889e-01
5.727577e-01
0.000000e+00
1.000000e+00
5.726718e-01
5.723076e-01
5.719165e-01
5.715164e-01
5.711370e-01
5.708182e-01
5.706033e-01
5.705273e-01
5.706033e-01
5.708182e-01
5.711370e-01
5.715164e-01
5.719165e-01
5.723076e-01
5.726718e-01
0.000000e+00
1.000000e+00
5.725745e-01
5.721024e-01
5.715952e-01
5.710765e-01
5.705846e-01
5.701713e-01
5.698928e-01
5.697941e-01
5.698928e-01
5.701713e-01
5.705846e-01
5.710765e-01
5.715952e-01
5.721024e-01
5.725745e-01
0.000000e+00
1.000000e+00
5.724695e-01
5.718809e-01
5.712486e-01
5.706019e-01
5.699887e-01
5.694734e-01
5.691262e-01
5.690032e-01
5.691262e-01
5.694734e-01
5.699887e-01
5.706019e-01
5.712486e-01
5.718809e-01
5.724695e-01
0.000000e+00
1.000000e+00
5.723623e-01
5.716547e-01
5.708947e-01
5.701173e-01
5.693802e-01
5.687607e-01
5.683433e-01
5.681955e-01
5.683433e-01
5.687607e-01
5.693802e-01
5.701173e-01
5.708947e-01
5.716547e-01
5.723623e-01
0.000000e+00
1.000000e+00
5.722596e-01
5.714382e-01
5.705559e-01
5.696534e-01
5.687976e-01
5.680785e-01
5.675939e-01
5.674223e-01
5.675939e-01
5.680785e-01
5.687976e-01
5.696534e-01
5.705559e-01
5.714382e-01
5.722596e-01
0.000000e+00
1.000000e+00
5.721691e-01
5.712474e-01
5.702571e-01
5.692444e-01
5.682840e-01
5.674770e-01
5.669332e-01
5.667406e-01
5.669332e-01
5.674770e-01
5.682840e-01
5.692444e-01
5.702571e-01
5.712474e-01
5.721691e-01
0.000000e+00
1.000000e+00
5.720981e-01
5.710975e-01
5.700227e-01
5.689233e-01
5.678809e-01
5.670049e-01
5.664146e-01
5.662056e-01
5.664146e-01
5.670049e-01
5.678809e-01
5.689233e-01
5.700227e-01
5.710975e-01
5.720981e-01
0.000000e+00
1.000000e+00
5.720525e-01
5.710014e-01
5.698722e-01
5.687173e-01
5.676222e-01
5.667019e-01
5.660818e-01
5.658622e-01
5.660818e-01
5.667019e-01
5.676222e-01
5.687173e-01
5.698722e-01
5.710014e-01
5.720525e-01
0.000000e+00
1.000000e+00
5.720362e-01
5.709669e-01
5.698182e-01
5.686434e-01
5.675294e-01
5.665932e-01
5.659624e-01
5.657390e-01
5.659624e-01
5.665932e-01
5.675294e-01
5.686434e-01
5.698182e-01
5.709669e-01
5.720362e-01
0.000000e+00
1.000000e+00
5.720501e-01
5.709964e-01
5.698643e-01
5.687065e-01
5.676086e-01
5.666860e-01
5.660644e-01
5.658442e-01
5.660644e-01
5.666860e-01
5.676086e-01
5.687065e-01
5.698643e-01
5.709964e-01
5.720501e-01
0.000000e+00
1.000000e+00
5.720928e-01
5.710864e-01
5.700053e-01
5.688995e-01
5.678510e-01
5.669698e-01
5.663761e-01
5.661658e-01
5.663761e-01
5.669698e-01
5.678510e-01
5.688995e-01
5.700053e-01
5.710864e-01
5.720928e-01
0.000000e+00
1.000000e+00
5.721606e-01
5.712293e-01
5.702288e-01
5.692056e-01
5.682353e-01
5.674200e-01
5.668706e-01
5.666760e-01
5.668706e-01
5.674200e-01
5.682353e-01
5.692056e-01
5.702288e-01
5.712293e-01
5.721606e-01
0.000000e+00
1.000000e+00
5.722482e-01
5.714142e-01
5.705182e-01
5.696018e-01
5.687328e-01
5.680026e-01
5.675106e-01
5.673363e-01
5.675106e-01
5.680026e-01
5.687328e-01
5.696018e-01
5.705182e-01
5.714142e-01
5.722482e-01
0.000000e+00
1.000000e+00
5.723502e-01
5.716292e-01
5.708548e-01
5.700627e-01
5.693116e-01
5.686804e-01
5.682551e-01
5.681044e-01
5.682551e-01
5.686804e-01
5.693116e-01
5.700627e-01
5.708548e-01
5.716292e-01
5.723502e-01
0.000000e+00
1.000000e+00
5.724610e-01
5.718630e-01
5.712205e-01
5.705635e-01
5.699405e-01
5.694169e-01
5.690641e-01
5.689392e-01
5.690641e-01
5.694169e-01
5.699405e-01
5.705635e-01
5.712205e-01
5.718630e-01
5.724610e-01
0.000000e+00
1.000000e+00
5.728660e-01
5.727173e-01
5.725575e-01
5.723941e-01
5.722392e-01
5.721090e-01
5.720213e-01
5.719902e-01
5.720213e-01
5.721090e-01
5.722392e-01
5.723941e-01
5.725575e-01
5.727173e-01
5.728660e-01
0.000000e+00
1.000000e+00
5.727994e-01
5.725768e-01
5.723377e-01
5.720931e-01
5.718612e-01
5.716663e-01
5.715350e-01
5.714885e-01
5.715350e-01
5.716663e-01
5.718612e-01
5.720931e-01
5.723377e-01
5.725768e-01
5.727994e-01
0.000000e+00
1.000000e+00
5.727196e-01
5.724085e-01
5.720743e-01
5.717325e-01
5.714084e-01
5.711360e-01
5.709525e-01
5.708875e-01
5.709525e-01
5.711360e-01
5.714084e-01
5.717325e-01
5.720743e-01
5.724085e-01
5.727196e-01
0.000000e+00
1.000000e+00
5.726285e-01
5.722164e-01
5.717737e-01
5.713209e-01
5.708915e-01
5.705307e-01
5.702876e-01
5.702015e-01
5.702876e-01
5.705307e-01
5.708915e-01
5.713209e-01
5.717737e-01
5.722164e-01
5.726285e-01
0.000000e+00
1.000000e+00
5.725297e-01
5.720080e-01
5.714475e-01
5.708742e-01
5.703306e-01
5.698738e-01
5.695660e-01
5.694570e-01
5.695660e-01
5.698738e-01
5.703306e-01
5.708742e-01
5.714475e-01
5.720080e-01
5.725297e-01
0.000000e+00
1.000000e+00
5.724283e-01
5.717941e-01
5.711128e-01
5.704160e-01
5.697552e-01
5.692000e-01
5.688258e-01
5.686933e-01
5.688258e-01
5.692000e-01
5.697552e-01
5.704160e-01
5.711128e-01
5.717941e-01
5.724283e-01
0.000000e+00
1.000000e+00
5.723310e-01
5.715888e-01
5.707915e-01
5.699761e-01
5.692028e-01
5.685530e-01
5.681152e-01
5.679601e-01
5.681152e-01
5.685530e-01
5.692028e-01
5.699761e-01
5.707915e-01
5.715888e-01
5.723310e-01
0.000000e+00
1.000000e+00
5.722451e-01
5.714076e-01
5.705079e-01
5.695877e-01
5.687152e-01
5.679819e-01
5.674878e-01
5.673129e-01
5.674878e-01
5.679819e-01
5.687152e-01
5.695877e-01
5.705079e-01
5.714076e-01
5.722451e-01
0.000000e+00
1.000000e+00
5.721777e-01
5.712655e-01
5.702855e-01
5.692833e-01
5.683329e-01
5.675342e-01
5.669960e-01
5.668054e-01
5.669960e-01
5.675342e-01
5.683329e-01
5.692833e-01
5.702855e-01
5.712655e-01
5.721777e-01
0.000000e+00
1.000000e+00
5.721348e-01
5.711750e-01
5.701438e-01
5.690892e-01
5.680892e-01
5.672489e-01
5.666826e-01
5.664821e-01
5.666826e-01
5.672489e-01
5.680892e-01
5.690892e-01
5.701438e-01
5.711750e-01
5.721348e-01
0.000000e+00
1.000000e+00
5.721200e-01
5.711438e-01
5.700951e-01
5.690224e-01
5.680054e-01
5.671507e-01
5.665747e-01
5.663708e-01
5.665747e-01
5.671507e-01
5.680054e-01
5.690224e-01
5.700951e-01
5.711438e-01
5.721200e-01
0.000000e+00
1.000000e+00
5.721345e-01
5.711742e-01
5.701427e-01
5.690876e-01
5.680872e-01
5.672465e-01
5.666801e-01
5.664794e-01
5.666801e-01
5.672465e-01
5.680872e-01
5.690876e-01
5.701427e-01
5.711742e-01
5.721345e-01
0.000000e+00
1.000000e+00
5.721765e-01
5.712630e-01
5.702816e-01
5.692779e-01
5.683261e-01
5.675263e-01
5.669873e-01
5.667964e-01
5.669873e-01
5.675263e-01
5.683261e-01
5.692779e-01
5.702816e-01
5.712630e-01
5.721765e-01
0.000000e+00
1.000000e+00
5.722426e-01
5.714024e-01
5.704998e-01
5.695766e-01
5.687012e-01
5.679656e-01
5.674699e-01
5.672943e-01
5.674699e-01
5.679656e-01
5.687012e-01
5.695766e-01
5.704998e-01
5.714024e-01
5.722426e-01
0.000000e+00
1.000000e+00
5.723278e-01
5.715820e-01
5.707808e-01
5.699614e-01
5.691844e-01
5.685314e-01
5.680915e-01
5.679356e-01
5.680915e-01
5.685314e-01
5.691844e-01
5.699614e-01
5.707808e-01
5.715820e-01
5.723278e-01
0.000000e+00
1.000000e+00
5.724264e-01
5.717901e-01
5.711066e-01
5.704074e-01
5.697445e-01
5.691874e-01
5.688120e-01