<?xml version="1.0"?>
<VTKFile type="StructuredGrid" version="0.1">
  <StructuredGrid WholeExtent="0 16 0 16 0 16">
    <Piece Extent="0 16 0 16 0 16">
      <PointData Scalars="temperature" Vectors="velocity">
        <DataArray type="Float32" Name="temperature" format="ascii">
1.000000e+00
5.730767e-01
5.730040e-01
5.730086e-01
5.730103e-01
5.730118e-01
5.730129e-01
5.730138e-01
5.730141e-01
5.730138e-01
5.730127e-01
5.730114e-01
5.730092e-01
5.730075e-01
5.730193e-01
5.727516e-01
0.000000e+00
1.000000e+00
5.731152e-01
5.729953e-01
5.730088e-01
5.730102e-01
5.730114e-01
5.730122e-01
5.730128e-01
5.730129e-01
5.730126e-01
5.730121e-01
5.730117e-01
5.730110e-01
5.730104e-01
5.730400e-01
5.727324e-01
0.000000e+00
1.000000e+00
5.731073e-01
5.729690e-01
5.729690e-01
5.729562e-01
5.729439e-01
5.729337e-01
5.729268e-01
5.729246e-01
5.729274e-01
5.729348e-01
5.729451e-01
5.729572e-01
5.729698e-01
5.729976e-01
5.728391e-01
0.000000e+00
1.000000e+00
5.730836e-01
5.729161e-01
5.728900e-01
5.728477e-01
5.728075e-01
5.727737e-01
5.727512e-01
5.727436e-01
5.727521e-01
5.727752e-01
5.728087e-01
5.728482e-01
5.728907e-01
5.729405e-01
5.728723e-01
0.000000e+00
1.000000e+00
5.730518e-01
5.728341e-01
5.727687e-01
5.726812e-01
5.725982e-01
5.725284e-01
5.724817e-01
5.724656e-01
5.724828e-01
5.725302e-01
5.725995e-01
5.726826e-01
5.727704e-01
5.728672e-01
5.727894e-01
0.000000e+00
1.000000e+00
5.729919e-01
5.727319e-01
5.726062e-01
5.724585e-01
5.723184e-01
5.722007e-01
5.721214e-01
5.720937e-01
5.721224e-01
5.722025e-01
5.723200e-01
5.724605e-01
5.726072e-01
5.727665e-01
5.727488e-01
0.000000e+00
1.000000e+00
5.729119e-01
5.726098e-01
5.724068e-01
5.721855e-01
5.719756e-01
5.717992e-01
5.716805e-01
5.716385e-01
5.716809e-01
5.718010e-01
5.719774e-01
5.721872e-01
5.724073e-01
5.726420e-01
5.726546e-01
0.000000e+00
1.000000e+00
5.728268e-01
5.724691e-01
5.721785e-01
5.718729e-01
5.715831e-01
5.713397e-01
5.711758e-01
5.711179e-01
5.711759e-01
5.713415e-01
5.715852e-01
5.718745e-01
5.721792e-01
5.724975e-01
5.725728e-01
0.000000e+00
1.000000e+00
5.727261e-01
5.723166e-01
5.719322e-01
5.715357e-01
5.711597e-01
5.708438e-01
5.706312e-01
5.705562e-01
5.706317e-01
5.708460e-01
5.711619e-01
5.715373e-01
5.719332e-01
5.723414e-01
5.725061e-01
0.000000e+00
1.000000e+00
5.726279e-01
5.721594e-01
5.716805e-01
5.711912e-01
5.707271e-01
5.703373e-01
5.700749e-01
5.699823e-01
5.700761e-01
5.703396e-01
5.707293e-01
5.711930e-01
5.716820e-01
5.721802e-01
5.724459e-01
0.000000e+00
1.000000e+00
5.725317e-01
5.720066e-01
5.714368e-01
5.708575e-01
5.703081e-01
5.698466e-01
5.695360e-01
5.694263e-01
5.695375e-01
5.698494e-01
5.703103e-01
5.708597e-01
5.714385e-01
5.720259e-01
5.723578e-01
0.000000e+00
1.000000e+00
5.724462e-01
5.718673e-01
5.712133e-01
5.705515e-01
5.699239e-01
5.693967e-01
5.690418e-01
5.689166e-01
5.690437e-01
5.694000e-01
5.699264e-01
5.705540e-01
5.712152e-01
5.718827e-01
5.723015e-01
0.000000e+00
1.000000e+00
5.723642e-01
5.717466e-01
5.710203e-01
5.702872e-01
5.695921e-01
5.690082e-01
5.686150e-01
5.684765e-01
5.686176e-01
5.690118e-01
5.695951e-01
5.702900e-01
5.710224e-01
5.717621e-01
5.722319e-01
0.000000e+00
1.000000e+00
5.722977e-01
5.716501e-01
5.708652e-01
5.700747e-01
5.693253e-01
5.686957e-01
5.682720e-01
5.681229e-01
5.682750e-01
5.686997e-01
5.693286e-01
5.700777e-01
5.708674e-01
5.716650e-01
5.722015e-01
0.000000e+00
1.000000e+00
5.722408e-01
5.715809e-01
5.707519e-01
5.699196e-01
5.691306e-01
5.684678e-01
5.680217e-01
5.678651e-01
5.680246e-01
5.684725e-01
5.691343e-01
5.699229e-01
5.707544e-01
5.715988e-01
5.721416e-01
0.000000e+00
1.000000e+00
5.722073e-01
5.715341e-01
5.706816e-01
5.698233e-01
5.690097e-01
5.683262e-01
5.678664e-01
5.677052e-01
5.678692e-01
5.683311e-01
5.690143e-01
5.698272e-01
5.706843e-01
5.715617e-01
5.721326e-01
0.000000e+00
1.000000e+00
5.721568e-01
5.715128e-01
5.706532e-01
5.697842e-01
5.689603e-01
5.682683e-01
5.678030e-01
5.676399e-01
5.678050e-01
5.682731e-01
5.689659e-01
5.697893e-01
5.706570e-01
5.715890e-01
5.718929e-01
0.000000e+00
1.000000e+00
5.730243e-01
5.730048e-01
5.730136e-01
5.730159e-01
5.730174e-01
5.730186e-01
5.730197e-01
5.730202e-01
5.730196e-01
5.730181e-01
5.730160e-01
5.730139e-01
5.730119e-01
5.730055e-01
5.729107e-01
0.000000e+00
1.000000e+00
5.730667e-01
5.729717e-01
5.729749e-01
5.729632e-01
5.729518e-01
5.729421e-01
5.729355e-01
5.729329e-01
5.729349e-01
5.729410e-01
5.729506e-01
5.729617e-01
5.729726e-01
5.729586e-01
5.727230e-01
0.000000e+00
1.000000e+00
5.730559e-01
5.729156e-01
5.728961e-01
5.728554e-01
5.728164e-01
5.727837e-01
5.727615e-01
5.727535e-01
5.727611e-01
5.727834e-01
5.728166e-01
5.728560e-01
5.728968e-01
5.729406e-01
5.728838e-01
0.000000e+00
1.000000e+00
5.730182e-01
5.728372e-01
5.727727e-01
5.726867e-01
5.726048e-01
5.725359e-01
5.724894e-01
5.724729e-01
5.724896e-01
5.725367e-01
5.726060e-01
5.726869e-01
5.727724e-01
5.728608e-01
5.728561e-01
0.000000e+00
1.000000e+00
5.729673e-01
5.727308e-01
5.726050e-01
5.724568e-01
5.723162e-01
5.721980e-01
5.721184e-01
5.720902e-01
5.721186e-01
5.721991e-01
5.723171e-01
5.724570e-01
5.726050e-01
5.727580e-01
5.727456e-01
0.000000e+00
1.000000e+00
5.728926e-01
5.726024e-01
5.723951e-01
5.721694e-01
5.719553e-01
5.717754e-01
5.716543e-01
5.716114e-01
5.716544e-01
5.717768e-01
5.719563e-01
5.721699e-01
5.723949e-01
5.726273e-01
5.726701e-01
0.000000e+00
1.000000e+00
5.727962e-01
5.724521e-01
5.721498e-01
5.718335e-01
5.715335e-01
5.712814e-01
5.711118e-01
5.710518e-01
5.711120e-01
5.712828e-01
5.715345e-01
5.718341e-01
5.721498e-01
5.724742e-01
5.725744e-01
0.000000e+00
1.000000e+00
5.726965e-01
5.722846e-01
5.718795e-01
5.714633e-01
5.710687e-01
5.707372e-01
5.705140e-01
5.704353e-01
5.705147e-01
5.707387e-01
5.710699e-01
5.714642e-01
5.718798e-01
5.723024e-01
5.725165e-01
0.000000e+00
1.000000e+00
5.725908e-01
5.721090e-01
5.715975e-01
5.710773e-01
5.705840e-01
5.701697e-01
5.698907e-01
5.697922e-01
5.698918e-01
5.701714e-01
5.705855e-01
5.710785e-01
5.715982e-01
5.721235e-01
5.724130e-01
0.000000e+00
1.000000e+00
5.724855e-01
5.719335e-01
5.713191e-01
5.706961e-01
5.701054e-01
5.696092e-01
5.692751e-01
5.691570e-01
5.692767e-01
5.696112e-01
5.701070e-01
5.706976e-01
5.713200e-01
5.719454e-01
5.723404e-01
0.000000e+00
1.000000e+00
5.723891e-01
5.717692e-01
5.710591e-01
5.703402e-01
5.696586e-01
5.690859e-01
5.687004e-01
5.685641e-01
5.687022e-01
5.690887e-01
5.696603e-01
5.703420e-01
5.710604e-01
5.717811e-01
5.722406e-01
0.000000e+00
1.000000e+00
5.722984e-01
5.716265e-01
5.708310e-01
5.700279e-01
5.692665e-01
5.686268e-01
5.681961e-01
5.680441e-01
5.681978e-01
5.686303e-01
5.692685e-01
5.700299e-01
5.708325e-01
5.716356e-01
5.721866e-01
0.000000e+00
1.000000e+00
5.722257e-01
5.715075e-01
5.706450e-01
5.697732e-01
5.689467e-01
5.682523e-01
5.677848e-01
5.676203e-01
5.677868e-01
5.682564e-01
5.689491e-01
5.697754e-01
5.706466e-01
5.715187e-01
5.721089e-01
0.000000e+00
1.000000e+00
5.721630e-01
5.714226e-01
5.705074e-01
5.695849e-01
5.687102e-01
5.679754e-01
5.674808e-01
5.673071e-01
5.674833e-01
5.679794e-01
5.687134e-01
5.695872e-01
5.705092e-01
5.714314e-01
5.720818e-01
0.000000e+00
1.000000e+00
5.721164e-01
5.713704e-01
5.704209e-01
5.694663e-01
5.685613e-01
5.678011e-01
5.672895e-01
5.671100e-01
5.672920e-01
5.678055e-01
5.685651e-01
5.694690e-01
5.704228e-01
5.713804e-01
5.720327e-01
0.000000e+00
1.000000e+00
5.720936e-01
5.713453e-01
5.703842e-01
5.694160e-01
5.684981e-01
5.677272e-01
5.672085e-01
5.670264e-01
5.672108e-01
5.677318e-01
5.685022e-01
5.694190e-01
5.703861e-01
5.713732e-01
5.720359e-01
0.000000e+00
1.000000e+00
5.721207e-01
5.713411e-01
5.703933e-01
5.694286e-01
5.685140e-01
5.677459e-01
5.672294e-01
5.670476e-01
5.672311e-01
5.677508e-01
5.685201e-01
5.694342e-01
5.703981e-01
5.714872e-01
5.717046e-01
0.000000e+00
1.000000e+00
5.730305e-01
5.730339e-01
5.730516e-01
5.730669e-01
5.730819e-01
5.730941e-01
5.731024e-01
5.731051e-01
5.731015e-01
5.730921e-01
5.730795e-01
5.730662e-01
5.730511e-01
5.730268e-01
5.731121e-01
0.000000e+00
1.000000e+00
5.730349e-01
5.729823e-01
5.729767e-01
5.729661e-01
5.729558e-01
5.729468e-01
5.729407e-01
5.729385e-01
5.729406e-01
5.729460e-01
5.729542e-01
5.729642e-01
5.729743e-01
5.729757e-01
5.730548e-01
0.000000e+00
1.000000e+00
5.730168e-01
5.729027e-01
5.728567e-01
5.728011e-01
5.727482e-01
5.727035e-01
5.726733e-01
5.726625e-01
5.726724e-01
5.727014e-01
5.727459e-01
5.728004e-01
5.728570e-01
5.729117e-01
5.729743e-01
0.000000e+00
1.000000e+00
5.729684e-01
5.727937e-01
5.726877e-01
5.725697e-01
5.724575e-01
5.723632e-01
5.722995e-01
5.722768e-01
5.722986e-01
5.723617e-01
5.724577e-01
5.725696e-01
5.726864e-01
5.728023e-01
5.728443e-01
0.000000e+00
1.000000e+00
5.728980e-01
5.726577e-01
5.724709e-01
5.722729e-01
5.720850e-01
5.719270e-01
5.718206e-01
5.717829e-01
5.718200e-01
5.719268e-01
5.720855e-01
5.722722e-01
5.724700e-01
5.726696e-01
5.727221e-01
0.000000e+00
1.000000e+00
5.728025e-01
5.724959e-01
5.722112e-01
5.719174e-01
5.716387e-01
5.714044e-01
5.712467e-01
5.711909e-01
5.712467e-01
5.714051e-01
5.716391e-01
5.719172e-01
5.722109e-01
5.725076e-01
5.726413e-01
0.000000e+00
1.000000e+00
5.726982e-01
5.723123e-01
5.719177e-01
5.715156e-01
5.711342e-01
5.708137e-01
5.705979e-01
5.705217e-01
5.705984e-01
5.708145e-01
5.711347e-01
5.715160e-01
5.719178e-01
5.723241e-01
5.725252e-01
0.000000e+00
1.000000e+00
5.725848e-01
5.721153e-01
5.716037e-01
5.710857e-01
5.705944e-01
5.701817e-01
5.699037e-01
5.698056e-01
5.699048e-01
5.701827e-01
5.705953e-01
5.710865e-01
5.716041e-01
5.721253e-01
5.724227e-01
0.000000e+00
1.000000e+00
5.724697e-01
5.719148e-01
5.712854e-01
5.706500e-01
5.700473e-01
5.695411e-01
5.692002e-01
5.690797e-01
5.692018e-01
5.695426e-01
5.700486e-01
5.706512e-01
5.712862e-01
5.719238e-01
5.723123e-01
0.000000e+00
1.000000e+00
5.723593e-01
5.717214e-01
5.709806e-01
5.702327e-01
5.695234e-01
5.689276e-01
5.685263e-01
5.683845e-01
5.685283e-01
5.689297e-01
5.695249e-01
5.702342e-01
5.709817e-01
5.717294e-01
5.722276e-01
0.000000e+00
1.000000e+00
5.722596e-01
5.715476e-01
5.707062e-01
5.698569e-01
5.690516e-01
5.683751e-01
5.679196e-01
5.677585e-01
5.679215e-01
5.683781e-01
5.690534e-01
5.698587e-01
5.707075e-01
5.715554e-01
5.721357e-01
0.000000e+00
1.000000e+00
5.721730e-01
5.714015e-01
5.704762e-01
5.695420e-01
5.686562e-01
5.679122e-01
5.674112e-01
5.672342e-01
5.674125e-01
5.679159e-01
5.686585e-01
5.695440e-01
5.704777e-01
5.714080e-01
5.720842e-01
0.000000e+00
1.000000e+00
5.721064e-01
5.712884e-01
5.703006e-01
5.693016e-01
5.683544e-01
5.675587e-01
5.670230e-01
5.668342e-01
5.670239e-01
5.675630e-01
5.683572e-01
5.693037e-01
5.703022e-01
5.712972e-01
5.720164e-01
0.000000e+00
1.000000e+00
5.720494e-01
5.712163e-01
5.701844e-01
5.691425e-01
5.681547e-01
5.673249e-01
5.667664e-01
5.665700e-01
5.667673e-01
5.673293e-01
5.681581e-01
5.691448e-01
5.701862e-01
5.712238e-01
5.719897e-01
0.000000e+00
1.000000e+00
5.720149e-01
5.711819e-01
5.701281e-01
5.690654e-01
5.680579e-01
5.672116e-01
5.666421e-01
5.664419e-01
5.666433e-01
5.672162e-01
5.680620e-01
5.690679e-01
5.701300e-01
5.711927e-01
5.719465e-01
0.000000e+00
1.000000e+00
5.720061e-01
5.711816e-01
5.701281e-01
5.690654e-01
5.680579e-01
5.672117e-01
5.666423e-01
5.664419e-01
5.666440e-01
5.672166e-01
5.680625e-01
5.690681e-01
5.701299e-01
5.712132e-01
5.719531e-01
0.000000e+00
1.000000e+00
5.720586e-01
5.712047e-01
5.701777e-01
5.691336e-01
5.681438e-01
5.673124e-01
5.667533e-01
5.665559e-01
5.667550e-01
5.673177e-01
5.681501e-01
5.691388e-01
5.701819e-01
5.713509e-01
5.716937e-01
0.000000e+00
1.000000e+00
5.730516e-01
5.730839e-01
5.731286e-01
5.731717e-01
5.732148e-01
5.732511e-01
5.732754e-01
5.732837e-01
5.732747e-01
5.732508e-01
5.732154e-01
5.731733e-01
5.731289e-01
5.730911e-01
5.729903e-01
0.000000e+00
1.000000e+00
5.730330e-01
5.730094e-01
5.730198e-01
5.730230e-01
5.730258e-01
5.730287e-01
5.730307e-01
5.730315e-01
5.730305e-01
5.730282e-01
5.730243e-01
5.730186e-01
5.730134e-01
5.730117e-01
5.730289e-01
0.000000e+00
1.000000e+00
5.729911e-01
5.729057e-01
5.728563e-01
5.728007e-01
5.727480e-01
5.727036e-01
5.726738e-01
5.726633e-01
5.726738e-01
5.727030e-01
5.727465e-01
5.728008e-01
5.728580e-01
5.729085e-01
5.729349e-01
0.000000e+00
1.000000e+00
5.729295e-01
5.727701e-01
5.726417e-01
5.725066e-01
5.723783e-01
5.722705e-01
5.721979e-01
5.721720e-01
5.721973e-01
5.722685e-01
5.723776e-01
5.725068e-01
5.726403e-01
5.727730e-01
5.727831e-01
0.000000e+00
1.000000e+00
5.728415e-01
5.726033e-01
5.723757e-01
5.721425e-01
5.719211e-01
5.717351e-01
5.716098e-01
5.715653e-01
5.716091e-01
5.717342e-01
5.719210e-01
5.721413e-01
5.723741e-01
5.726104e-01
5.726708e-01
0.000000e+00
1.000000e+00
5.727338e-01
5.724089e-01
5.720657e-01
5.717181e-01
5.713884e-01
5.711113e-01
5.709247e-01
5.708586e-01
5.709241e-01
5.711112e-01
5.713881e-01
5.717174e-01
5.720650e-01
5.724167e-01
5.725622e-01
0.000000e+00
1.000000e+00
5.726118e-01
5.721929e-01
5.717237e-01
5.712499e-01
5.708006e-01
5.704230e-01
5.701686e-01
5.700788e-01
5.701686e-01
5.704232e-01
5.708006e-01
5.712498e-01
5.717234e-01
5.722013e-01
5.724492e-01
0.000000e+00
1.000000e+00
5.724868e-01
5.719675e-01
5.713660e-01
5.707603e-01
5.701858e-01
5.697031e-01
5.693780e-01
5.692632e-01
5.693786e-01
5.697039e-01
5.701863e-01
5.707606e-01
5.713662e-01
5.719742e-01
5.723430e-01
0.000000e+00
1.000000e+00
5.723616e-01
5.717427e-01
5.710122e-01
5.702758e-01
5.695775e-01
5.689909e-01
5.685958e-01
5.684563e-01
5.685970e-01
5.689925e-01
5.695787e-01
5.702766e-01
5.710127e-01
5.717496e-01
5.722323e-01
0.000000e+00
1.000000e+00
5.722466e-01
5.715324e-01
5.706825e-01
5.698246e-01
5.690110e-01
5.683274e-01
5.678671e-01
5.677046e-01
5.678687e-01
5.683297e-01
5.690126e-01
5.698257e-01
5.706834e-01
5.715397e-01
5.721296e-01
0.000000e+00
1.000000e+00
5.721457e-01
5.713500e-01
5.703959e-01
5.694321e-01
5.685181e-01
5.677504e-01
5.672334e-01
5.670506e-01
5.672348e-01
5.677533e-01
5.685202e-01
5.694334e-01
5.703969e-01
5.713575e-01
5.720429e-01
0.000000e+00
1.000000e+00
5.720603e-01
5.712045e-01
5.701669e-01
5.691184e-01
5.681244e-01
5.672893e-01
5.667271e-01
5.665282e-01
5.667281e-01
5.672929e-01
5.681270e-01
5.691201e-01
5.701680e-01
5.712116e-01
5.719710e-01
0.000000e+00
1.000000e+00
5.719965e-01
5.711009e-01
5.700047e-01
5.688964e-01
5.678457e-01
5.669630e-01
5.663688e-01
5.661587e-01
5.663692e-01
5.669670e-01
5.678490e-01
5.688983e-01
5.700060e-01
5.711101e-01
5.719041e-01
0.000000e+00
1.000000e+00
5.719558e-01
5.710413e-01
5.699128e-01
5.687707e-01
5.676878e-01
5.667782e-01
5.661658e-01
5.659496e-01
5.661663e-01
5.667826e-01
5.676919e-01
5.687729e-01
5.699144e-01
5.710526e-01
5.718815e-01
0.000000e+00
1.000000e+00
5.719338e-01
5.710272e-01
5.698892e-01
5.687384e-01
5.676474e-01
5.667309e-01
5.661139e-01
5.658964e-01
5.661148e-01
5.667357e-01
5.676521e-01
5.687410e-01
5.698911e-01
5.710424e-01
5.718587e-01
0.000000e+00
1.000000e+00
5.719412e-01
5.710524e-01
5.699278e-01
5.687913e-01
5.677137e-01
5.668086e-01
5.661995e-01
5.659850e-01
5.662010e-01
5.668137e-01
5.677188e-01
5.687941e-01
5.699297e-01
5.710867e-01
5.718705e-01
0.000000e+00
1.000000e+00
5.720047e-01
5.711024e-01
5.700192e-01
5.689167e-01
5.678714e-01
5.669934e-01
5.664027e-01
5.661943e-01
5.664044e-01
5.669987e-01
5.678773e-01
5.689209e-01
5.700227e-01
5.712339e-01
5.716510e-01
0.000000e+00
1.000000e+00
5.730917e-01
5.731605e-01
5.732508e-01
5.733418e-01
5.734283e-01
5.734998e-01
5.735477e-01
5.735638e-01
5.735469e-01
5.734995e-01
5.734285e-01
5.733420e-01
5.732514e-01
5.731786e-01
5.729111e-01
0.000000e+00
1.000000e+00
5.730534e-01
5.730636e-01
5.731072e-01
5.731440e-01
5.731777e-01
5.732059e-01
5.732247e-01
5.732307e-01
5.732230e-01
5.732027e-01
5.731727e-01
5.731380e-01
5.731040e-01
5.730678e-01
5.729880e-01
0.000000e+00
1.000000e+00
5.729949e-01
5.729354e-01
5.729023e-01
5.728638e-01
5.728270e-01
5.727960e-01
5.727752e-01
5.727680e-01
5.727755e-01
5.727967e-01
5.728271e-01
5.728635e-01
5.729027e-01
5.729413e-01
5.728898e-01
0.000000e+00
1.000000e+00
5.729127e-01
5.727729e-01
5.726422e-01
5.725074e-01
5.723795e-01
5.722720e-01
5.721996e-01
5.721740e-01
5.721998e-01
5.722710e-01
5.723786e-01
5.725077e-01
5.726411e-01
5.727793e-01
5.727504e-01
0.000000e+00
1.000000e+00
5.728048e-01
5.725762e-01
5.723285e-01
5.720778e-01
5.718401e-01
5.716403e-01
5.715057e-01
5.714580e-01
5.715059e-01
5.716405e-01
5.718390e-01
5.720765e-01
5.723267e-01
5.725839e-01
5.726559e-01
0.000000e+00
1.000000e+00
5.726790e-01
5.723509e-01
5.719699e-01
5.715869e-01
5.712237e-01
5.709184e-01
5.707129e-01
5.706400e-01
5.707132e-01
5.709198e-01
5.712227e-01
5.715858e-01
5.719689e-01
5.723576e-01
5.725418e-01
0.000000e+00
1.000000e+00
5.725425e-01
5.721046e-01
5.715812e-01
5.710547e-01
5.705555e-01
5.701360e-01
5.698534e-01
5.697535e-01
5.698538e-01
5.701377e-01
5.705552e-01
5.710543e-01
5.715805e-01
5.721127e-01
5.724021e-01
0.000000e+00
1.000000e+00
5.724022e-01
5.718512e-01
5.711819e-01
5.705082e-01
5.698692e-01
5.693324e-01
5.689709e-01
5.688432e-01
5.689714e-01
5.693346e-01
5.698698e-01
5.705082e-01
5.711817e-01
5.718600e-01
5.722703e-01
0.000000e+00
1.000000e+00
5.722686e-01
5.716036e-01
5.707950e-01
5.699784e-01
5.692041e-01
5.685535e-01
5.681154e-01
5.679608e-01
5.681159e-01
5.685561e-01
5.692054e-01
5.699789e-01
5.707951e-01
5.716141e-01
5.721460e-01
0.000000e+00
1.000000e+00
5.721498e-01
5.713785e-01
5.704433e-01
5.694970e-01
5.685996e-01
5.678457e-01
5.673380e-01
5.671588e-01
5.673384e-01
5.678484e-01
5.686015e-01
5.694978e-01
5.704438e-01
5.713895e-01
5.720467e-01
0.000000e+00
1.000000e+00
5.720456e-01
5.711905e-01
5.701473e-01
5.690916e-01
5.680907e-01
5.672498e-01
5.666836e-01
5.664836e-01
5.666841e-01
5.672526e-01
5.680932e-01
5.690928e-01
5.701480e-01
5.712002e-01
5.719592e-01
0.000000e+00
1.000000e+00
5.719647e-01
5.710461e-01
5.699220e-01
5.687831e-01
5.677033e-01
5.667962e-01
5.661855e-01
5.659695e-01
5.661861e-01
5.667993e-01
5.677065e-01
5.687847e-01
5.699228e-01
5.710557e-01
5.719037e-01
0.000000e+00
1.000000e+00
5.719110e-01
5.709518e-01
5.697756e-01
5.685827e-01
5.674518e-01
5.665018e-01
5.658621e-01
5.656357e-01
5.658628e-01
5.665051e-01
5.674558e-01
5.685848e-01
5.697768e-01
5.709634e-01
5.718527e-01
0.000000e+00
1.000000e+00
5.718820e-01
5.709104e-01
5.697097e-01
5.684926e-01
5.673386e-01
5.663693e-01
5.657167e-01
5.654858e-01
5.657177e-01
5.663729e-01
5.673435e-01
5.684951e-01
5.697112e-01
5.709221e-01
5.718418e-01
0.000000e+00
1.000000e+00
5.718749e-01
5.709179e-01
5.697198e-01
5.685064e-01
5.673560e-01
5.663897e-01
5.657391e-01
5.655094e-01
5.657405e-01
5.663938e-01
5.673616e-01
5.685095e-01
5.697216e-01
5.709331e-01
5.718261e-01
0.000000e+00
1.000000e+00
5.718987e-01
5.709663e-01
5.697967e-01
5.686118e-01
5.674884e-01
5.665447e-01
5.659095e-01
5.656855e-01
5.659111e-01
5.665494e-01
5.674945e-01
5.686156e-01
5.697989e-01
5.709995e-01
5.718527e-01
0.000000e+00
1.000000e+00
5.719831e-01
5.710427e-01
5.699287e-01
5.687927e-01
5.677157e-01
5.668111e-01
5.662024e-01
5.659877e-01
5.662040e-01
5.668163e-01
5.677225e-01
5.687976e-01
5.699322e-01
5.711524e-01
5.716568e-01
0.000000e+00
1.000000e+00
5.731468e-01
5.732677e-01
5.734159e-01
5.735647e-01
5.737065e-01
5.738266e-01
5.739079e-01
5.739365e-01
5.739103e-01
5.738326e-01
5.737136e-01
5.735695e-01
5.734174e-01
5.732864e-01
5.729203e-01
0.000000e+00
1.000000e+00
5.730999e-01
5.731501e-01
5.732361e-01
5.733192e-01
5.733991e-01
5.734664e-01
5.735115e-01
5.735267e-01
5.735104e-01
5.734641e-01
5.733964e-01
5.733165e-01
5.732316e-01
5.731647e-01
5.729562e-01
0.000000e+00
1.000000e+00
5.730229e-01
5.729959e-01
5.729947e-01
5.729900e-01
5.729858e-01
5.729822e-01
5.729798e-01
5.729787e-01
5.729792e-01
5.729816e-01
5.729833e-01
5.729858e-01
5.729900e-01
5.730133e-01
5.728760e-01
0.000000e+00
1.000000e+00
5.729156e-01
5.728078e-01
5.726937e-01
5.725780e-01
5.724683e-01
5.723761e-01
5.723140e-01
5.722921e-01
5.723146e-01
5.723772e-01
5.724696e-01
5.725793e-01
5.726940e-01
5.728199e-01
5.727410e-01
0.000000e+00
1.000000e+00
5.727901e-01
5.725828e-01
5.723360e-01
5.720882e-01
5.718531e-01
5.716556e-01
5.715226e-01
5.714756e-01
5.715234e-01
5.716556e-01
5.718526e-01
5.720868e-01
5.723343e-01
5.725950e-01
5.726274e-01
0.000000e+00
1.000000e+00
5.726457e-01
5.723282e-01
5.719328e-01
5.715361e-01
5.711599e-01
5.708438e-01
5.706310e-01
5.705557e-01
5.706320e-01
5.708442e-01
5.711602e-01
5.715354e-01
5.719316e-01
5.723396e-01
5.724997e-01
0.000000e+00
1.000000e+00
5.724922e-01
5.720542e-01
5.715016e-01
5.709458e-01
5.704187e-01
5.699758e-01
5.696776e-01
5.695722e-01
5.696788e-01
5.699767e-01
5.704199e-01
5.709459e-01
5.715008e-01
5.720662e-01
5.723649e-01
0.000000e+00
1.000000e+00
5.723403e-01
5.717744e-01
5.710653e-01
5.703485e-01
5.696687e-01
5.690975e-01
5.687130e-01
5.685771e-01
5.687140e-01
5.690991e-01
5.696705e-01
5.703490e-01
5.710649e-01
5.717877e-01
5.722457e-01
0.000000e+00
1.000000e+00
5.721989e-01
5.715073e-01
5.706496e-01
5.697793e-01
5.689540e-01
5.682607e-01
5.677939e-01
5.676290e-01
5.677946e-01
5.682630e-01
5.689564e-01
5.697802e-01
5.706495e-01
5.715214e-01
5.721271e-01
0.000000e+00
1.000000e+00
5.720721e-01
5.712700e-01
5.702800e-01
5.692731e-01
5.683185e-01
5.675165e-01
5.669765e-01
5.667859e-01
5.669770e-01
5.675193e-01
5.683214e-01
5.692745e-01
5.702801e-01
5.712846e-01
5.720182e-01
0.000000e+00
1.000000e+00
5.719635e-01
5.710770e-01
5.699779e-01
5.688596e-01
5.677993e-01
5.669086e-01
5.663089e-01
5.660972e-01
5.663092e-01
5.669116e-01
5.678028e-01
5.688614e-01
5.699783e-01
5.710929e-01
5.719097e-01
0.000000e+00
1.000000e+00
5.718926e-01
5.709363e-01
5.697587e-01
5.685595e-01
5.674226e-01
5.664675e-01
5.658246e-01
5.655973e-01
5.658251e-01
5.664705e-01
5.674265e-01
5.685619e-01
5.697594e-01
5.709543e-01
5.718379e-01
0.000000e+00
1.000000e+00
5.718476e-01
5.708549e-01
5.696296e-01
5.683828e-01
5.672007e-01
5.662078e-01
5.655394e-01
5.653030e-01
5.655405e-01
5.662110e-01
5.672050e-01
5.683858e-01
5.696307e-01
5.708743e-01
5.717772e-01
0.000000e+00
1.000000e+00
5.718160e-01
5.708326e-01
5.695900e-01
5.683285e-01
5.671327e-01
5.661282e-01
5.654519e-01
5.652128e-01
5.654533e-01
5.661314e-01
5.671372e-01
5.683320e-01
5.695914e-01
5.708495e-01
5.717767e-01
0.000000e+00
1.000000e+00
5.718330e-01
5.708600e-01
5.696325e-01
5.683868e-01
5.672058e-01
5.662139e-01
5.655461e-01
5.653102e-01
5.655478e-01
5.662174e-01
5.672108e-01
5.683908e-01
5.696344e-01
5.708796e-01
5.717836e-01
0.000000e+00
1.000000e+00
5.718856e-01
5.709324e-01
5.697455e-01
5.685415e-01
5.674001e-01
5.664415e-01
5.657961e-01
5.655683e-01
5.657980e-01
5.664452e-01
5.674058e-01
5.685464e-01
5.697481e-01
5.709636e-01
5.718243e-01
0.000000e+00
1.000000e+00
5.719752e-01
5.710337e-01
5.699147e-01
5.687735e-01
5.676916e-01
5.667829e-01
5.661712e-01
5.659555e-01
5.661729e-01
5.667868e-01
5.676979e-01
5.687793e-01
5.699186e-01
5.711136e-01
5.717357e-01
0.000000e+00
1.000000e+00
5.732154e-01
5.733903e-01
5.736110e-01
5.738317e-01
5.740424e-01
5.742221e-01
5.743459e-01
5.743923e-01
5.743536e-01
5.742388e-01
5.740625e-01
5.738499e-01
5.736230e-01
5.734102e-01
5.730009e-01
0.000000e+00
1.000000e+00
5.731570e-01
5.732666e-01
5.734096e-01
5.735584e-01
5.736986e-01
5.738152e-01
5.738925e-01
5.739182e-01
5.738883e-01
5.738092e-01
5.736941e-01
5.735567e-01
5.734081e-01
5.732945e-01
5.730051e-01
0.000000e+00
1.000000e+00
5.730691e-01
5.730893e-01
5.731374e-01
5.731850e-01
5.732295e-01
5.732667e-01
5.732917e-01
5.733002e-01
5.732905e-01
5.732640e-01
5.732240e-01
5.731797e-01
5.731324e-01
5.731134e-01
5.729492e-01
0.000000e+00
1.000000e+00
5.729350e-01
5.728762e-01
5.727976e-01
5.727201e-01
5.726466e-01
5.725847e-01
5.725430e-01
5.725282e-01
5.725431e-01
5.725845e-01
5.726463e-01
5.727206e-01
5.727971e-01
5.728890e-01
5.727752e-01
0.000000e+00
1.000000e+00
5.727952e-01
5.726272e-01
5.724010e-01
5.721772e-01
5.719650e-01
5.717867e-01
5.716666e-01
5.716242e-01
5.716674e-01
5.717861e-01
5.719657e-01
5.721777e-01
5.724000e-01
5.726423e-01
5.726441e-01
0.000000e+00
1.000000e+00
5.726341e-01
5.723467e-01
5.719596e-01
5.715729e-01
5.712061e-01
5.708980e-01
5.706905e-01
5.706172e-01
5.706917e-01
5.708973e-01
5.712072e-01
5.715745e-01
5.719593e-01
5.723645e-01
5.725046e-01
0.000000e+00
1.000000e+00
5.724656e-01
5.720464e-01
5.714929e-01
5.709339e-01
5.704037e-01
5.699582e-01
5.696583e-01
5.695524e-01
5.696598e-01
5.699582e-01
5.704052e-01
5.709359e-01
5.714927e-01
5.720694e-01
5.723533e-01
0.000000e+00
1.000000e+00
5.723034e-01
5.717449e-01
5.710262e-01
5.702948e-01
5.696013e-01
5.690186e-01
5.686264e-01
5.684879e-01
5.686280e-01
5.690194e-01
5.696036e-01
5.702972e-01
5.710263e-01
5.717724e-01
5.721961e-01
0.000000e+00
1.000000e+00
5.721504e-01
5.714605e-01
5.705880e-01
5.696947e-01
5.688477e-01
5.681362e-01
5.676573e-01
5.674883e-01
5.676590e-01
5.681377e-01
5.688508e-01
5.696973e-01
5.705883e-01
5.714911e-01
5.720621e-01
0.000000e+00
1.000000e+00
5.720205e-01
5.712119e-01
5.702054e-01
5.691709e-01
5.681900e-01
5.673661e-01
5.668116e-01
5.666160e-01
5.668132e-01
5.673682e-01
5.681938e-01
5.691738e-01
5.702059e-01
5.712446e-01
5.719492e-01
0.000000e+00
1.000000e+00
5.719197e-01
5.710158e-01
5.699011e-01
5.687543e-01
5.676671e-01
5.667539e-01
5.661393e-01
5.659224e-01
5.661406e-01
5.667567e-01
5.676713e-01
5.687577e-01
5.699021e-01
5.710487e-01
5.718752e-01
0.000000e+00
1.000000e+00
5.718538e-01
5.708832e-01
5.696902e-01
5.684657e-01
5.673047e-01
5.663297e-01
5.656735e-01
5.654417e-01
5.656748e-01
5.663330e-01
5.673093e-01
5.684694e-01
5.696917e-01
5.709126e-01
5.718301e-01
0.000000e+00
1.000000e+00
5.718073e-01
5.708173e-01
5.695786e-01
5.683130e-01
5.671132e-01
5.661055e-01
5.654272e-01
5.651876e-01
5.654288e-01
5.661089e-01
5.671178e-01
5.683170e-01
5.695807e-01
5.708412e-01
5.718128e-01
0.000000e+00
1.000000e+00
5.718147e-01
5.708082e-01
5.695635e-01
5.682924e-01
5.670874e-01
5.660754e-01
5.653941e-01
5.651537e-01
5.653961e-01
5.660792e-01
5.670922e-01
5.682967e-01
5.695662e-01
5.708329e-01
5.718028e-01
0.000000e+00
1.000000e+00
5.718186e-01
5.708559e-01
5.696355e-01
5.683910e-01
5.672112e-01
5.662203e-01
5.655533e-01
5.653178e-01
5.655553e-01
5.662242e-01
5.672160e-01
5.683953e-01
5.696384e-01
5.708813e-01
5.718193e-01
0.000000e+00
1.000000e+00
5.718706e-01
5.709549e-01
5.697803e-01
5.685891e-01
5.674600e-01
5.665116e-01
5.658733e-01
5.656480e-01
5.658754e-01
5.665154e-01
5.674648e-01
5.685938e-01
5.697835e-01
5.709812e-01
5.718502e-01
0.000000e+00
1.000000e+00
5.719785e-01
5.710788e-01
5.699816e-01
5.688649e-01
5.678064e-01
5.669172e-01
5.663188e-01
5.661076e-01
5.663207e-01
5.669204e-01
5.678108e-01
5.688699e-01
5.699853e-01
5.711272e-01
5.718737e-01
0.000000e+00
1.000000e+00
5.732869e-01
5.735331e-01
5.738372e-01
5.741433e-01
5.744347e-01
5.746812e-01
5.748507e-01
5.749165e-01
5.748646e-01
5.747079e-01
5.744663e-01
5.741733e-01
5.738595e-01
5.735710e-01
5.730548e-01
0.000000e+00
1.000000e+00
5.732210e-01
5.733969e-01
5.736155e-01
5.738386e-01
5.740503e-01
5.742278e-01
5.743469e-01
5.743888e-01
5.743454e-01
5.742270e-01
5.740510e-01
5.738397e-01
5.736157e-01
5.734594e-01
5.730126e-01
0.000000e+00
1.000000e+00
5.731341e-01
5.732063e-01
5.733147e-01
5.734282e-01
5.735360e-01
5.736264e-01
5.736869e-01
5.737082e-01
5.736858e-01
5.736241e-01
5.735323e-01
5.734255e-01
5.733140e-01
5.733136e-01
5.728470e-01
0.000000e+00
1.000000e+00
5.729718e-01
5.729743e-01
5.729472e-01
5.729255e-01
5.729050e-01
5.728878e-01
5.728762e-01
5.728722e-01
5.728766e-01
5.728883e-01
5.729041e-01
5.729258e-01
5.729482e-01
5.730819e-01
5.725608e-01
0.000000e+00
1.000000e+00
5.728069e-01
5.727077e-01
5.725218e-01
5.723427e-01
5.721728e-01
5.720299e-01
5.719338e-01
5.718999e-01
5.719344e-01
5.720300e-01
5.721711e-01
5.723432e-01
5.725229e-01
5.728584e-01
5.723304e-01
0.000000e+00
1.000000e+00
5.726340e-01
5.724059e-01
5.720509e-01
5.716979e-01
5.713630e-01
5.710815e-01
5.708921e-01
5.708251e-01
5.708929e-01
5.710822e-01
5.713618e-01
5.716992e-01
5.720530e-01
5.725964e-01
5.722283e-01
0.000000e+00
1.000000e+00
5.724667e-01
5.720843e-01
5.715571e-01
5.710218e-01
5.705140e-01
5.700875e-01
5.698004e-01
5.696991e-01
5.698018e-01
5.700894e-01
5.705146e-01
5.710240e-01
5.715595e-01
5.722597e-01
5.721706e-01
0.000000e+00
1.000000e+00
5.722977e-01
5.717650e-01
5.710687e-01
5.703528e-01
5.696739e-01
5.691038e-01
5.687202e-01
5.685850e-01
5.687222e-01
5.691066e-01
5.696760e-01
5.703559e-01
5.710712e-01
5.718996e-01
5.721204e-01
0.000000e+00
1.000000e+00
5.721450e-01
5.714667e-01
5.706155e-01
5.697321e-01
5.688946e-01
5.681913e-01
5.677182e-01
5.675515e-01
5.677206e-01
5.681946e-01
5.688979e-01
5.697360e-01
5.706182e-01
5.715654e-01
5.720285e-01
0.000000e+00
1.000000e+00
5.720239e-01
5.712117e-01
5.702261e-01
5.691989e-01
5.682252e-01
5.674077e-01
5.668577e-01
5.666639e-01
5.668603e-01
5.674113e-01
5.682297e-01
5.692034e-01
5.702290e-01
5.712922e-01
5.719420e-01
0.000000e+00
1.000000e+00
5.719421e-01
5.710185e-01
5.699237e-01
5.687850e-01
5.677057e-01
5.667995e-01
5.661897e-01
5.659748e-01
5.661923e-01
5.668033e-01
5.677109e-01
5.687900e-01
5.699270e-01
5.710965e-01
5.718289e-01
0.000000e+00
1.000000e+00
5.718572e-01
5.708945e-01
5.697227e-01
5.685101e-01
5.673608e-01
5.663956e-01
5.657461e-01
5.655171e-01
5.657488e-01
5.663998e-01
5.673662e-01
5.685155e-01
5.697268e-01
5.709869e-01
5.717005e-01
0.000000e+00
1.000000e+00
5.718135e-01
5.708411e-01
5.696281e-01
5.683806e-01
5.671982e-01
5.662052e-01
5.655369e-01
5.653012e-01
5.655395e-01
5.662097e-01
5.672039e-01
5.683861e-01
5.696324e-01
5.709568e-01
5.715945e-01
0.000000e+00
1.000000e+00
5.718261e-01
5.708471e-01
5.696348e-01
5.683899e-01
5.672099e-01
5.662189e-01
5.655521e-01
5.653169e-01
5.655547e-01
5.662236e-01
5.672159e-01
5.683954e-01
5.696392e-01
5.709759e-01
5.715839e-01
0.000000e+00
1.000000e+00
5.718370e-01
5.709107e-01
5.697313e-01
5.685222e-01
5.673759e-01
5.664133e-01
5.657656e-01
5.655372e-01
5.657682e-01
5.664181e-01
5.673818e-01
5.685275e-01
5.697355e-01
5.710159e-01
5.716751e-01
0.000000e+00
1.000000e+00
5.718879e-01
5.710288e-01
5.699017e-01
5.687555e-01
5.676688e-01
5.667562e-01
5.661421e-01