<?xml version="1.0"?>
<VTKFile type="StructuredGrid" version="0.1">
  <StructuredGrid WholeExtent="0 16 0 16 0 16">
    <Piece Extent="0 16 0 16 0 16">
      <PointData Scalars="temperature" Vectors="velocity">
        <DataArray type="Float32" Name="temperature" format="ascii">
1.000000e+00
5.652518e-01
5.568760e-01
5.477585e-01
5.384407e-01
5.296092e-01
5.221935e-01
5.172043e-01
5.154488e-01
5.172367e-01
5.222529e-01
5.296876e-01
5.385437e-01
5.478363e-01
5.569723e-01
5.652387e-01
0.000000e+00
1.000000e+00
5.661052e-01
5.586731e-01
5.505649e-01
5.422818e-01
5.344304e-01
5.278376e-01
5.234018e-01
5.218412e-01
5.234309e-01
5.278906e-01
5.345009e-01
5.423800e-01
5.506323e-01
5.587512e-01
5.660773e-01
0.000000e+00
1.000000e+00
5.670950e-01
5.607227e-01
5.537713e-01
5.466711e-01
5.399405e-01
5.342879e-01
5.304844e-01
5.291456e-01
5.305078e-01
5.343306e-01
5.399970e-01
5.467606e-01
5.538344e-01
5.607931e-01
5.670481e-01
0.000000e+00
1.000000e+00
5.681798e-01
5.629750e-01
5.572970e-01
5.514984e-01
5.460014e-01
5.413846e-01
5.382777e-01
5.371838e-01
5.382960e-01
5.414180e-01
5.460460e-01
5.515786e-01
5.573558e-01
5.630391e-01
5.681178e-01
0.000000e+00
1.000000e+00
5.693293e-01
5.653594e-01
5.610301e-01
5.566096e-01
5.524189e-01
5.488991e-01
5.465301e-01
5.456956e-01
5.465432e-01
5.489232e-01
5.524517e-01
5.566807e-01
5.610838e-01
5.654163e-01
5.692210e-01
0.000000e+00
1.000000e+00
5.704994e-01
5.677812e-01
5.648223e-01
5.618018e-01
5.589382e-01
5.565331e-01
5.549140e-01
5.543432e-01
5.549219e-01
5.565483e-01
5.589591e-01
5.618657e-01
5.648747e-01
5.678153e-01
5.705666e-01
0.000000e+00
1.000000e+00
5.716379e-01
5.701297e-01
5.685007e-01
5.668382e-01
5.652621e-01
5.639384e-01
5.630470e-01
5.627322e-01
5.630498e-01
5.639445e-01
5.652695e-01
5.668962e-01
5.685528e-01
5.701549e-01
5.717806e-01
0.000000e+00
1.000000e+00
5.726915e-01
5.722883e-01
5.718830e-01
5.714692e-01
5.710769e-01
5.707476e-01
5.705257e-01
5.704469e-01
5.705249e-01
5.707460e-01
5.710722e-01
5.715081e-01
5.719295e-01
5.723306e-01
5.727087e-01
0.000000e+00
1.000000e+00
5.736056e-01
5.741460e-01
5.747957e-01
5.754574e-01
5.760849e-01
5.766124e-01
5.769677e-01
5.770930e-01
5.769659e-01
5.766086e-01
5.760773e-01
5.754708e-01
5.748434e-01
5.741887e-01
5.735656e-01
0.000000e+00
1.000000e+00
5.743280e-01
5.756109e-01
5.770944e-01
5.786049e-01
5.800375e-01
5.812415e-01
5.820529e-01
5.823401e-01
5.820520e-01
5.812395e-01
5.800351e-01
5.786302e-01
5.771508e-01
5.756398e-01
5.742555e-01
0.000000e+00
1.000000e+00
5.748283e-01
5.766205e-01
5.786802e-01
5.807762e-01
5.827639e-01
5.844346e-01
5.855607e-01
5.859598e-01
5.855612e-01
5.844368e-01
5.827771e-01
5.808247e-01
5.787373e-01
5.766409e-01
5.746128e-01
0.000000e+00
1.000000e+00
5.750905e-01
5.771470e-01
5.795083e-01
5.819102e-01
5.841879e-01
5.861024e-01
5.873930e-01
5.878508e-01
5.873949e-01
5.861090e-01
5.842142e-01
5.819637e-01
5.795617e-01
5.771823e-01
5.747426e-01
0.000000e+00
1.000000e+00
5.751169e-01
5.771985e-01
5.795897e-01
5.820216e-01
5.843278e-01
5.862662e-01
5.875730e-01
5.880366e-01
5.875750e-01
5.862725e-01
5.843565e-01
5.820739e-01
5.796417e-01
5.772445e-01
5.748147e-01
0.000000e+00
1.000000e+00
5.749245e-01
5.768129e-01
5.789835e-01
5.811915e-01
5.832854e-01
5.850453e-01
5.862315e-01
5.866521e-01
5.862324e-01
5.850473e-01
5.833049e-01
5.812385e-01
5.790352e-01
5.768615e-01
5.746366e-01
0.000000e+00
1.000000e+00
5.745456e-01
5.760500e-01
5.777849e-01
5.795503e-01
5.812245e-01
5.826315e-01
5.835798e-01
5.839157e-01
5.835795e-01
5.826298e-01
5.812282e-01
5.795840e-01
5.778412e-01
5.761035e-01
5.742805e-01
0.000000e+00
1.000000e+00
5.740193e-01
5.749831e-01
5.761102e-01
5.772572e-01
5.783450e-01
5.792592e-01
5.798752e-01
5.800929e-01
5.798734e-01
5.792551e-01
5.783399e-01
5.772758e-01
5.761663e-01
5.750390e-01
5.737765e-01
0.000000e+00
1.000000e+00
5.733839e-01
5.736907e-01
5.740828e-01
5.744812e-01
5.748590e-01
5.751766e-01
5.753905e-01
5.754655e-01
5.753878e-01
5.751713e-01
5.748536e-01
5.745054e-01
5.741293e-01
5.737418e-01
5.731611e-01
0.000000e+00
1.000000e+00
5.646130e-01
5.554043e-01
5.454610e-01
5.352951e-01
5.256596e-01
5.175685e-01
5.121243e-01
5.102081e-01
5.121580e-01
5.176306e-01
5.257415e-01
5.353971e-01
5.455452e-01
5.554963e-01
5.644799e-01
0.000000e+00
1.000000e+00
5.653775e-01
5.570762e-01
5.480760e-01
5.388750e-01
5.301542e-01
5.228318e-01
5.179056e-01
5.161728e-01
5.179387e-01
5.228919e-01
5.302331e-01
5.389799e-01
5.481569e-01
5.571699e-01
5.652802e-01
0.000000e+00
1.000000e+00
5.663155e-01
5.590371e-01
5.511411e-01
5.430704e-01
5.354201e-01
5.289960e-01
5.246736e-01
5.231526e-01
5.247012e-01
5.290453e-01
5.354832e-01
5.431699e-01
5.512130e-01
5.591245e-01
5.662088e-01
0.000000e+00
1.000000e+00
5.673649e-01
5.612340e-01
5.545779e-01
5.477756e-01
5.413274e-01
5.359123e-01
5.322686e-01
5.309862e-01
5.322912e-01
5.359524e-01
5.413773e-01
5.478647e-01
5.546437e-01
5.613298e-01
5.673170e-01
0.000000e+00
1.000000e+00
5.684969e-01
5.635976e-01
5.582764e-01
5.528393e-01
5.476851e-01
5.433562e-01
5.404431e-01
5.394175e-01
5.404603e-01
5.433866e-01
5.477220e-01
5.529172e-01
5.583359e-01
5.637414e-01
5.682627e-01
0.000000e+00
1.000000e+00
5.696660e-01
5.660310e-01
5.620848e-01
5.580537e-01
5.542320e-01
5.510222e-01
5.488617e-01
5.481005e-01
5.488733e-01
5.510431e-01
5.542573e-01
5.581185e-01
5.621373e-01
5.661394e-01
5.693521e-01
0.000000e+00
1.000000e+00
5.708174e-01
5.684174e-01
5.658209e-01
5.631690e-01
5.606548e-01
5.585429e-01
5.571212e-01
5.566196e-01
5.571274e-01
5.585549e-01
5.606690e-01
5.632238e-01
5.658708e-01
5.684416e-01
5.707402e-01
0.000000e+00
1.000000e+00
5.718905e-01
5.706311e-01
5.692878e-01
5.679158e-01
5.666150e-01
5.655224e-01
5.647865e-01
5.645264e-01
5.647884e-01
5.655264e-01
5.666183e-01
5.679614e-01
5.693307e-01
5.706508e-01
5.718450e-01
0.000000e+00
1.000000e+00
5.728262e-01
5.725510e-01
5.722960e-01
5.720347e-01
5.717870e-01
5.715789e-01
5.714386e-01
5.713887e-01
5.714380e-01
5.715775e-01
5.717827e-01
5.720591e-01
5.723316e-01
5.725680e-01
5.727070e-01
0.000000e+00
1.000000e+00
5.735743e-01
5.740752e-01
5.746860e-01
5.753071e-01
5.758962e-01
5.763913e-01
5.767248e-01
5.768427e-01
5.767236e-01
5.763887e-01
5.758907e-01
5.753164e-01
5.747238e-01
5.740960e-01
5.735450e-01
0.000000e+00
1.000000e+00
5.740971e-01
5.751326e-01
5.763461e-01
5.775803e-01
5.787507e-01
5.797344e-01
5.803973e-01
5.806321e-01
5.803967e-01
5.797325e-01
5.787499e-01
5.776016e-01
5.763907e-01
5.751462e-01
5.740365e-01
0.000000e+00
1.000000e+00
5.743741e-01
5.756915e-01
5.772251e-01
5.787838e-01
5.802620e-01
5.815044e-01
5.823418e-01
5.826386e-01
5.823420e-01
5.815043e-01
5.802697e-01
5.788170e-01
5.772715e-01
5.757124e-01
5.741048e-01
0.000000e+00
1.000000e+00
5.744076e-01
5.757594e-01
5.773328e-01
5.789313e-01
5.804472e-01
5.817213e-01
5.825800e-01
5.828846e-01
5.825805e-01
5.817215e-01
5.804572e-01
5.789663e-01
5.773783e-01
5.757967e-01
5.741262e-01
0.000000e+00
1.000000e+00
5.742183e-01
5.753771e-01
5.767324e-01
5.781092e-01
5.794149e-01
5.805122e-01
5.812518e-01
5.815139e-01
5.812518e-01
5.805112e-01
5.794184e-01
5.781363e-01
5.767733e-01
5.754214e-01
5.739664e-01
0.000000e+00
1.000000e+00
5.738387e-01
5.746089e-01
5.755260e-01
5.764573e-01
5.773405e-01
5.780828e-01
5.785829e-01
5.787600e-01
5.785821e-01
5.780804e-01
5.773379e-01
5.764737e-01
5.755679e-01
5.746589e-01
5.736003e-01
0.000000e+00
1.000000e+00
5.733104e-01
5.735330e-01
5.738379e-01
5.741458e-01
5.744378e-01
5.746833e-01
5.748486e-01
5.749067e-01
5.748469e-01
5.746800e-01
5.744352e-01
5.741673e-01
5.738814e-01
5.735868e-01
5.730919e-01
0.000000e+00
1.000000e+00
5.726730e-01
5.722326e-01
5.717987e-01
5.713536e-01
5.709316e-01
5.705773e-01
5.703385e-01
5.702537e-01
5.703375e-01
5.705759e-01
5.709349e-01
5.713900e-01
5.718369e-01
5.722803e-01
5.724593e-01
0.000000e+00
1.000000e+00
5.640696e-01
5.542426e-01
5.436424e-01
5.328052e-01
5.225333e-01
5.139081e-01
5.081047e-01
5.060622e-01
5.081413e-01
5.139758e-01
5.226230e-01
5.329088e-01
5.437340e-01
5.543141e-01
5.639586e-01
0.000000e+00
1.000000e+00
5.647678e-01
5.557874e-01
5.460600e-01
5.361150e-01
5.266893e-01
5.187752e-01
5.134512e-01
5.115788e-01
5.134879e-01
5.188416e-01
5.267783e-01
5.362211e-01
5.461473e-01
5.558614e-01
5.646887e-01
0.000000e+00
1.000000e+00
5.656569e-01
5.576494e-01
5.489705e-01
5.400984e-01
5.316889e-01
5.246273e-01
5.198763e-01
5.182047e-01
5.199072e-01
5.246823e-01
5.317617e-01
5.402021e-01
5.490469e-01
5.577188e-01
5.655506e-01
0.000000e+00
1.000000e+00
5.666718e-01
5.597788e-01
5.523016e-01
5.446589e-01
5.374143e-01
5.313305e-01
5.272370e-01
5.257963e-01
5.272626e-01
5.313757e-01
5.374729e-01
5.447526e-01
5.523693e-01
5.598775e-01
5.665868e-01
0.000000e+00
1.000000e+00
5.677850e-01
5.621087e-01
5.559470e-01
5.496499e-01
5.436804e-01
5.386670e-01
5.352932e-01
5.341054e-01
5.353130e-01
5.387020e-01
5.437242e-01
5.497304e-01
5.560112e-01
5.622799e-01
5.674638e-01
0.000000e+00
1.000000e+00
5.689498e-01
5.645408e-01
5.597527e-01
5.548605e-01
5.502224e-01
5.463269e-01
5.437048e-01
5.427811e-01
5.437188e-01
5.463518e-01
5.502526e-01
5.549244e-01
5.598069e-01
5.646534e-01
5.685489e-01
0.000000e+00
1.000000e+00
5.701102e-01
5.669530e-01
5.635283e-01
5.600299e-01
5.567130e-01
5.539268e-01
5.520510e-01
5.513895e-01
5.520594e-01
5.539422e-01
5.567315e-01
5.600783e-01
5.635716e-01
5.669724e-01
5.700491e-01
0.000000e+00
1.000000e+00
5.712026e-01
5.692110e-01
5.670639e-01
5.648708e-01
5.627913e-01
5.610444e-01
5.598678e-01
5.594523e-01
5.598714e-01
5.610514e-01
5.627993e-01
5.649093e-01
5.671021e-01
5.692160e-01
5.712483e-01
0.000000e+00
1.000000e+00
5.721622e-01
5.711835e-01
5.701539e-01
5.691016e-01
5.681037e-01
5.672653e-01
5.667005e-01
5.665005e-01
5.667008e-01
5.672660e-01
5.681032e-01
5.691290e-01
5.701854e-01
5.711804e-01
5.721456e-01
0.000000e+00
1.000000e+00
5.729304e-01
5.727586e-01
5.726227e-01
5.724819e-01
5.723484e-01
5.722362e-01
5.721605e-01
5.721334e-01
5.721596e-01
5.722343e-01
5.723443e-01
5.724924e-01
5.726481e-01
5.727646e-01
5.729840e-01
0.000000e+00
1.000000e+00
5.734715e-01
5.738575e-01
5.743471e-01
5.748430e-01
5.753133e-01
5.757085e-01
5.759748e-01
5.760690e-01
5.759740e-01
5.757066e-01
5.753100e-01
5.748491e-01
5.743739e-01
5.738586e-01
5.734885e-01
0.000000e+00
1.000000e+00
5.737614e-01
5.744436e-01
5.752685e-01
5.761047e-01
5.768977e-01
5.775642e-01
5.780133e-01
5.781724e-01
5.780130e-01
5.775629e-01
5.768976e-01
5.761182e-01
5.752968e-01
5.744367e-01
5.735064e-01
0.000000e+00
1.000000e+00
5.738015e-01
5.745239e-01
5.753958e-01
5.762790e-01
5.771166e-01
5.778205e-01
5.782950e-01
5.784631e-01
5.782949e-01
5.778197e-01
5.771176e-01
5.762942e-01
5.754216e-01
5.745420e-01
5.734387e-01
0.000000e+00
1.000000e+00
5.736128e-01
5.741417e-01
5.747961e-01
5.754579e-01
5.760854e-01
5.766129e-01
5.769684e-01
5.770943e-01
5.769681e-01
5.766118e-01
5.760851e-01
5.754694e-01
5.748194e-01
5.741769e-01
5.733148e-01
0.000000e+00
1.000000e+00
5.732313e-01
5.733658e-01
5.735783e-01
5.737903e-01
5.739915e-01
5.741605e-01
5.742744e-01
5.743146e-01
5.742738e-01
5.741591e-01
5.739917e-01
5.738062e-01
5.736059e-01
5.734092e-01
5.729720e-01
0.000000e+00
1.000000e+00
5.727006e-01
5.722794e-01
5.718743e-01
5.714571e-01
5.710616e-01
5.707293e-01
5.705054e-01
5.704260e-01
5.705050e-01
5.707291e-01
5.710658e-01
5.714883e-01
5.719121e-01
5.723299e-01
5.724800e-01
0.000000e+00
1.000000e+00
5.720627e-01
5.709699e-01
5.698217e-01
5.686467e-01
5.675327e-01
5.665968e-01
5.659665e-01
5.657436e-01
5.659679e-01
5.666010e-01
5.675455e-01
5.686843e-01
5.698574e-01
5.710159e-01
5.718566e-01
0.000000e+00
1.000000e+00
5.637028e-01
5.534631e-01
5.424236e-01
5.311366e-01
5.204389e-01
5.114564e-01
5.054130e-01
5.032869e-01
5.054532e-01
5.115298e-01
5.205339e-01
5.312541e-01
5.425187e-01
5.535335e-01
5.635860e-01
0.000000e+00
1.000000e+00
5.643513e-01
5.548859e-01
5.446513e-01
5.341864e-01
5.242683e-01
5.159411e-01
5.103393e-01
5.083696e-01
5.103792e-01
5.160128e-01
5.243657e-01
5.342964e-01
5.447375e-01
5.549588e-01
5.642539e-01
0.000000e+00
1.000000e+00
5.651890e-01
5.566486e-01
5.474067e-01
5.379574e-01
5.290012e-01
5.214809e-01
5.164215e-01
5.146419e-01
5.164556e-01
5.215414e-01
5.290860e-01
5.380581e-01
5.474840e-01
5.567229e-01
5.651079e-01
0.000000e+00
1.000000e+00
5.661676e-01
5.587072e-01
5.506268e-01
5.423659e-01
5.345354e-01
5.279601e-01
5.235360e-01
5.219794e-01
5.235646e-01
5.280106e-01
5.346061e-01
5.424559e-01
5.506955e-01
5.588310e-01
5.660415e-01
0.000000e+00
1.000000e+00
5.672593e-01
5.609972e-01
5.542092e-01
5.472705e-01
5.406930e-01
5.351692e-01
5.314522e-01
5.301437e-01
5.314747e-01
5.352090e-01
5.407468e-01
5.473489e-01
5.542762e-01
5.612029e-01
5.667093e-01
0.000000e+00
1.000000e+00
5.684169e-01
5.634193e-01
5.579990e-01
5.524592e-01
5.472074e-01
5.427965e-01
5.398277e-01
5.387820e-01
5.398439e-01
5.428253e-01
5.472442e-01
5.525231e-01
5.580583e-01
5.635542e-01
5.678231e-01
0.000000e+00
1.000000e+00
5.695805e-01
5.658474e-01
5.617987e-01
5.576616e-01
5.537393e-01
5.504446e-01
5.482265e-01
5.474444e-01
5.482366e-01
5.504630e-01
5.537619e-01
5.577070e-01
5.618422e-01
5.658735e-01
5.694282e-01
0.000000e+00
1.000000e+00
5.706844e-01
5.681394e-01
5.653866e-01
5.625740e-01
5.599071e-01
5.576667e-01
5.561579e-01
5.556251e-01
5.561628e-01
5.576762e-01
5.599185e-01
5.626033e-01
5.654186e-01
5.681418e-01
5.707291e-01
0.000000e+00
1.000000e+00
5.716609e-01
5.701541e-01
5.685418e-01
5.668942e-01
5.653318e-01
5.640190e-01
5.631345e-01
5.628215e-01
5.631354e-01
5.640213e-01
5.653344e-01
5.669126e-01
5.685672e-01
5.701535e-01
5.718324e-01
0.000000e+00
1.000000e+00
5.724510e-01
5.717699e-01
5.710739e-01
5.703612e-01
5.696853e-01
5.691173e-01
5.687344e-01
5.685986e-01
5.687337e-01
5.691158e-01
5.696826e-01
5.703696e-01
5.710909e-01
5.717873e-01
5.727453e-01
0.000000e+00
1.000000e+00
5.730065e-01
5.729006e-01
5.728476e-01
5.727898e-01
5.727350e-01
5.726889e-01
5.726578e-01
5.726467e-01
5.726572e-01
5.726874e-01
5.727321e-01
5.727908e-01
5.728609e-01
5.729094e-01
5.732954e-01
0.000000e+00
1.000000e+00
5.733034e-01
5.735052e-01
5.737980e-01
5.740911e-01
5.743690e-01
5.746027e-01
5.747601e-01
5.748160e-01
5.747602e-01
5.746026e-01
5.743685e-01
5.740947e-01
5.738103e-01
5.734639e-01
5.732849e-01
0.000000e+00
1.000000e+00
5.733447e-01
5.735897e-01
5.739324e-01
5.742753e-01
5.746004e-01
5.748737e-01
5.750579e-01
5.751233e-01
5.750583e-01
5.748745e-01
5.746017e-01
5.742806e-01
5.739420e-01
5.735566e-01
5.730326e-01
0.000000e+00
1.000000e+00
5.731531e-01
5.732004e-01
5.733221e-01
5.734397e-01
5.735511e-01
5.736449e-01
5.737081e-01
5.737305e-01
5.737082e-01
5.736453e-01
5.735536e-01
5.734474e-01
5.733330e-01
5.731967e-01
5.728179e-01
0.000000e+00
1.000000e+00
5.727666e-01
5.724107e-01
5.720829e-01
5.717429e-01
5.714204e-01
5.711495e-01
5.709670e-01
5.709024e-01
5.709671e-01
5.711503e-01
5.714258e-01
5.717606e-01
5.721026e-01
5.724249e-01
5.724837e-01
0.000000e+00
1.000000e+00
5.722311e-01
5.713081e-01
5.703540e-01
5.693755e-01
5.684477e-01
5.676683e-01
5.671432e-01
5.669576e-01
5.671444e-01
5.676718e-01
5.684583e-01
5.694038e-01
5.703861e-01
5.713362e-01
5.719848e-01
0.000000e+00
1.000000e+00
5.715891e-01
5.699842e-01
5.682794e-01
5.665349e-01
5.648810e-01
5.634915e-01
5.625558e-01
5.622254e-01
5.625593e-01
5.634999e-01
5.648986e-01
5.665658e-01
5.683088e-01
5.700184e-01
5.713686e-01
0.000000e+00
1.000000e+00
5.635582e-01
5.531348e-01
5.419104e-01
5.304340e-01
5.195573e-01
5.104248e-01
5.042810e-01
5.021204e-01
5.043240e-01
5.105034e-01
5.196550e-01
5.305669e-01
5.419970e-01
5.532108e-01
5.634093e-01
0.000000e+00
1.000000e+00
5.641584e-01
5.544503e-01
5.439705e-01
5.332545e-01
5.230986e-01
5.145719e-01
5.088362e-01
5.068200e-01
5.088786e-01
5.146483e-01
5.232003e-01
5.333743e-01
5.440506e-01
5.545308e-01
5.640245e-01
0.000000e+00
1.000000e+00
5.649500e-01
5.561233e-01
5.465862e-01
5.368342e-01
5.275914e-01
5.198309e-01
5.146102e-01
5.127743e-01
5.146467e-01
5.198962e-01
5.276834e-01
5.369391e-01
5.466638e-01
5.562103e-01
5.648771e-01
0.000000e+00
1.000000e+00
5.658951e-01
5.581162e-01
5.497034e-01
5.411018e-01
5.329486e-01
5.261026e-01
5.214967e-01
5.198765e-01
5.215277e-01
5.261576e-01
5.330271e-01
5.411945e-01
5.497777e-01
5.582776e-01
5.656562e-01
0.000000e+00
1.000000e+00
5.669666e-01
5.603666e-01
5.532239e-01
5.459215e-01
5.389994e-01
5.331865e-01
5.292751e-01
5.278987e-01
5.292998e-01
5.332303e-01
5.390602e-01
5.460041e-01
5.532963e-01
5.606077e-01
5.661995e-01
0.000000e+00
1.000000e+00
5.681163e-01
5.627751e-01
5.569922e-01
5.510808e-01
5.454767e-01
5.407701e-01
5.376026e-01
5.364871e-01
5.376205e-01
5.408023e-01
5.455190e-01
5.511503e-01
5.570520e-01
5.629228e-01
5.675020e-01
0.000000e+00
1.000000e+00
5.692815e-01
5.652118e-01
5.608052e-01
5.563012e-01
5.520312e-01
5.484444e-01
5.460300e-01
5.451788e-01
5.460414e-01
5.484654e-01
5.520576e-01
5.563504e-01
5.608441e-01
5.652380e-01
5.691033e-01
0.000000e+00
1.000000e+00
5.703939e-01
5.675279e-01
5.644302e-01
5.612644e-01
5.582627e-01
5.557410e-01
5.540429e-01
5.534434e-01
5.540486e-01
5.557520e-01
5.582768e-01
5.612921e-01
5.644539e-01
5.675244e-01
5.703697e-01
0.000000e+00
1.000000e+00
5.713815e-01
5.695734e-01
5.676328e-01
5.656494e-01
5.637686e-01
5.621883e-01
5.611236e-01
5.607469e-01
5.611249e-01
5.621914e-01
5.637731e-01
5.656613e-01
5.676471e-01
5.695844e-01
5.716126e-01
0.000000e+00
1.000000e+00
5.721812e-01
5.712175e-01
5.702089e-01
5.691766e-01
5.681977e-01
5.673749e-01
5.668204e-01
5.666236e-01
5.668193e-01
5.673732e-01
5.681956e-01
5.691783e-01
5.702169e-01
5.712807e-01
5.726798e-01
0.000000e+00
1.000000e+00
5.727487e-01
5.723672e-01
5.720122e-01
5.716458e-01
5.712983e-01
5.710062e-01
5.708093e-01
5.707392e-01
5.708082e-01
5.710038e-01
5.712945e-01
5.716425e-01
5.720157e-01
5.724576e-01
5.734884e-01
0.000000e+00
1.000000e+00
5.730516e-01
5.729778e-01
5.729721e-01
5.729601e-01
5.729488e-01
5.729393e-01
5.729328e-01
5.729305e-01
5.729326e-01
5.729385e-01
5.729470e-01
5.729589e-01
5.729737e-01
5.730024e-01
5.737642e-01
0.000000e+00
1.000000e+00
5.730868e-01
5.730545e-01
5.730955e-01
5.731292e-01
5.731611e-01
5.731880e-01
5.732062e-01
5.732129e-01
5.732068e-01
5.731889e-01
5.731616e-01
5.731296e-01
5.730956e-01
5.730089e-01
5.734616e-01
0.000000e+00
1.000000e+00
5.728853e-01
5.726466e-01
5.724568e-01
5.722547e-01
5.720632e-01
5.719022e-01
5.717939e-01
5.717557e-01
5.717945e-01
5.719039e-01
5.720663e-01
5.722585e-01
5.724614e-01
5.725955e-01
5.730246e-01
0.000000e+00
1.000000e+00
5.724887e-01
5.718324e-01
5.711791e-01
5.705053e-01
5.698664e-01
5.693296e-01
5.689680e-01
5.688402e-01
5.689689e-01
5.693323e-01
5.698738e-01
5.705179e-01
5.711931e-01
5.717952e-01
5.725274e-01
0.000000e+00
1.000000e+00
5.719432e-01
5.707034e-01
5.694087e-01
5.680812e-01
5.668225e-01
5.657650e-01
5.650527e-01
5.648011e-01
5.650550e-01
5.657707e-01
5.668348e-01
5.681012e-01
5.694331e-01
5.706802e-01
5.718708e-01
0.000000e+00
1.000000e+00
5.712908e-01
5.693550e-01
5.672955e-01
5.651879e-01
5.631896e-01
5.615108e-01
5.603803e-01
5.599813e-01
5.603849e-01
5.615211e-01
5.632078e-01
5.652121e-01
5.673201e-01
5.693522e-01
5.710708e-01
0.000000e+00
1.000000e+00
5.636414e-01
5.533046e-01
5.421762e-01
5.307978e-01
5.200143e-01
5.109607e-01
5.048704e-01
5.027294e-01
5.049151e-01
5.110436e-01
5.201127e-01
5.309383e-01
5.422608e-01
5.533973e-01
5.634370e-01
0.000000e+00
1.000000e+00
5.642095e-01
5.545380e-01
5.441075e-01
5.334418e-01
5.233338e-01
5.148475e-01
5.091394e-01
5.071333e-01
5.091830e-01
5.149271e-01
5.234369e-01
5.335680e-01
5.441837e-01
5.546256e-01
5.640281e-01
0.000000e+00
1.000000e+00
5.649650e-01
5.561407e-01
5.466139e-01
5.368724e-01
5.276396e-01
5.198878e-01
5.146733e-01
5.128402e-01
5.147114e-01
5.199565e-01
5.277347e-01
5.369838e-01
5.466885e-01
5.562424e-01
5.648772e-01
0.000000e+00
1.000000e+00
5.658855e-01
5.580819e-01
5.496504e-01
5.410293e-01
5.328578e-01
5.259966e-01
5.213809e-01
5.197578e-01
5.214135e-01
5.260548e-01
5.329403e-01
5.411286e-01
5.497259e-01
5.582758e-01
5.654720e-01
0.000000e+00
1.000000e+00
5.669415e-01
5.603007e-01
5.531215e-01
5.457813e-01
5.388235e-01
5.329809e-01
5.290498e-01
5.276669e-01
5.290759e-01
5.330275e-01
5.388887e-01
5.458718e-01
5.531937e-01
5.605644e-01
5.660378e-01
0.000000e+00
1.000000e+00
5.680851e-01
5.626975e-01
5.568714e-01
5.509154e-01
5.452692e-01
5.405274e-01
5.373364e-01
5.362131e-01
5.373555e-01
5.405620e-01
5.453159e-01
5.509922e-01
5.569275e-01
5.628589e-01
5.673096e-01
0.000000e+00
1.000000e+00
5.692523e-01
5.651391e-01
5.606920e-01
5.561463e-01
5.518367e-01
5.482170e-01
5.457804e-01
5.449217e-01
5.457926e-01
5.482397e-01
5.518668e-01
5.562003e-01
5.607303e-01
5.651668e-01
5.690364e-01
0.000000e+00
1.000000e+00
5.703721e-01
5.674709e-01
5.643413e-01
5.611427e-01
5.581100e-01
5.555624e-01
5.538469e-01
5.532413e-01
5.538529e-01
5.555742e-01
5.581266e-01
5.611736e-01
5.643668e-01
5.674648e-01
5.704836e-01
0.000000e+00
1.000000e+00
5.713688e-01
5.695351e-01
5.675731e-01
5.655676e-01
5.636659e-01
5.620681e-01
5.609915e-01
5.606106e-01
5.609927e-01
5.620710e-01
5.636716e-01
5.655814e-01
5.675884e-01
5.695449e-01
5.715385e-01
0.000000e+00
1.000000e+00
5.721738e-01
5.711936e-01
5.701715e-01
5.691253e-01
5.681331e-01
5.672992e-01
5.667370e-01
5.665373e-01
5.667352e-01
5.672963e-01
5.681307e-01
5.691277e-01
5.701790e-01
5.712329e-01
5.721722e-01
0.000000e+00
1.000000e+00
5.727413e-01
5.723469e-01
5.719811e-01
5.716030e-01
5.712445e-01
5.709430e-01
5.707396e-01
5.706669e-01
5.707373e-01
5.709386e-01
5.712389e-01
5.715988e-01
5.719824e-01
5.724153e-01
5.728215e-01
0.000000e+00
1.000000e+00
5.730427e-01
5.729478e-01
5.729263e-01
5.728973e-01
5.728699e-01
5.728467e-01
5.728310e-01
5.728251e-01
5.728299e-01
5.728444e-01
5.728665e-01
5.728945e-01
5.729245e-01
5.730497e-01
5.737046e-01
0.000000e+00
1.000000e+00
5.730712e-01
5.730019e-01
5.730151e-01
5.730190e-01
5.730227e-01
5.730257e-01
5.730277e-01
5.730283e-01
5.730274e-01
5.730249e-01
5.730210e-01
5.730167e-01
5.730101e-01
5.730583e-01
5.738344e-01
0.000000e+00
1.000000e+00
5.728494e-01
5.725602e-01
5.723253e-01
5.720746e-01
5.718369e-01
5.716372e-01
5.715027e-01
5.714553e-01
5.715031e-01
5.716377e-01
5.718368e-01
5.720729e-01
5.723234e-01
5.725549e-01
5.734793e-01
0.000000e+00
1.000000e+00
5.724329e-01
5.717072e-01
5.709861e-01
5.702410e-01
5.695346e-01
5.689410e-01
5.685412e-01
5.683998e-01
5.685420e-01
5.689435e-01
5.695393e-01
5.702462e-01
5.709943e-01
5.716743e-01
5.728973e-01
0.000000e+00
1.000000e+00
5.718695e-01
5.705380e-01
5.691514e-01
5.677289e-01
5.663801e-01
5.652470e-01
5.644838e-01
5.642141e-01
5.644860e-01
5.652527e-01
5.663905e-01
5.677416e-01
5.691690e-01
5.704885e-01
5.722481e-01
0.000000e+00
1.000000e+00
5.711994e-01
5.691505e-01
5.669766e-01
5.647511e-01
5.626412e-01
5.608686e-01
5.596749e-01
5.592536e-01
5.596797e-01
5.608790e-01
5.626576e-01
5.647693e-01
5.669963e-01
5.690904e-01
5.712810e-01
0.000000e+00
1.000000e+00
5.639562e-01
5.539911e-01
5.432505e-01
5.322681e-01
5.218603e-01
5.131226e-01
5.072455e-01
5.051802e-01
5.072909e-01
5.132080e-01
5.219582e-01
5.324096e-01
5.433350e-01
5.540994e-01
5.636750e-01
0.000000e+00
1.000000e+00
5.645110e-01
5.551752e-01
5.451039e-01
5.348053e-01
5.250454e-01
5.168515e-01
5.113404e-01
5.094042e-01
5.113840e-01
5.169320e-01
5.251475e-01
5.349312e-01
5.451784e-01
5.552601e-01
5.643329e-01
0.000000e+00
1.000000e+00
5.652463e-01
5.567352e-01
5.475442e-01
5.381459e-01
5.292386e-01
5.217603e-01
5.167302e-01
5.149625e-01
5.167686e-01
5.218303e-01
5.293342e-01
5.382584e-01
5.476195e-01
5.568444e-01
5.651554e-01
0.000000e+00
1.000000e+00
5.661539e-01
5.586463e-01
5.505334e-01
5.422381e-01
5.343756e-01
5.277741e-01
5.233335e-01
5.217725e-01
5.233664e-01
5.278336e-01
5.344597e-01
5.423402e-01
5.506116e-01
5.588565e-01
5.656676e-01
0.000000e+00
1.000000e+00
5.672024e-01
5.608478e-01
5.539774e-01
5.469533e-01
5.402951e-01
5.347042e-01
5.309429e-01
5.296202e-01
5.309694e-01
5.347520e-01
5.403629e-01
5.470474e-01
5.540512e-01
5.611054e-01
5.662940e-01
0.000000e+00
1.000000e+00
5.683441e-01
5.632396e-01
5.577197e-01
5.520770e-01
5.467278e-01
5.422356e-01
5.392128e-01
5.381491e-01
5.392322e-01
5.422710e-01
5.467777e-01
5.521569e-01
5.577797e-01
5.633902e-01
5.676322e-01
0.000000e+00
1.000000e+00
5.695145e-01
5.656858e-01
5.615475e-01
5.573177e-01
5.533077e-01
5.499397e-01
5.476728e-01
5.468741e-01
5.476850e-01
5.499629e-01
5.533408e-01
5.573764e-01
5.615950e-01
5.657200e-01
5.693305e-01
0.000000e+00
1.000000e+00
5.706403e-01
5.680267e-01
5.652109e-01
5.623335e-01
5.596054e-01
5.573137e-01
5.557706e-01
5.552259e-01
5.557762e-01
5.573254e-01
5.596239e-01
5.623708e-01
5.652492e-01
5.680219e-01
5.707765e-01
0.000000e+00
1.000000e+00
5.716430e-01
5.700982e-01
5.684542e-01
5.667741e-01
5.651810e-01
5.638425e-01
5.629406e-01
5.626212e-01
5.629409e-01
5.638444e-01
5.651873e-01
5.667944e-01
5.684836e-01
5.701087e-01
5.720235e-01
0.000000e+00
1.000000e+00
5.724516e-01
5.717563e-01
5.710520e-01
5.703310e-01
5.696473e-01
5.690726e-01
5.686850e-01
5.685468e-01
5.686823e-01
5.690683e-01
5.696441e-01
5.703375e-01
5.710712e-01
5.717880e-01
5.725265e-01
0.000000e+00
1.000000e+00
5.730172e-01
5.728973e-01
5.728427e-01
5.727829e-01
5.727260e-01
5.726781e-01
5.726453e-01
5.726328e-01
5.726424e-01
5.726728e-01
5.727205e-01
5.727820e-01
5.728539e-01
5.728741e-01
5.720011e-01
0.000000e+00
1.000000e+00
5.733066e-01
5.734712e-01
5.737481e-01
5.740225e-01
5.742826e-01
5.745012e-01
5.746482e-01
5.746997e-01
5.746463e-01
5.744982e-01
5.742805e-01
5.740231e-01
5.737541e-01
5.734661e-01
5.726639e-01
0.000000e+00
1.000000e+00
5.733184e-01
5.734856e-01
5.737762e-01
5.740611e-01
5.743313e-01
5.745582e-01
5.747110e-01
5.747646e-01
5.747097e-01
5.745564e-01
5.743301e-01
5.740603e-01
5.737771e-01
5.735649e-01
5.735326e-01
0.000000e+00
1.000000e+00
5.730723e-01
5.729938e-01
5.730103e-01
5.730125e-01
5.730146e-01
5.730163e-01
5.730173e-01
5.730173e-01
5.730160e-01
5.730139e-01
5.730116e-01
5.730084e-01
5.730093e-01
5.730839e-01
5.737433e-01
0.000000e+00
1.000000e+00
5.726231e-01
5.720858e-01
5.715843e-01
5.710600e-01
5.705629e-01
5.701453e-01
5.698639e-01
5.697643e-01
5.698640e-01
5.701455e-01
5.705628e-01
5.710593e-01
5.715899e-01
5.721390e-01
5.733531e-01
0.000000e+00
1.000000e+00
5.720330e-01
5.708610e-01
5.696591e-01
5.684240e-01
5.672530e-01
5.662691e-01
5.656064e-01
5.653722e-01
5.656080e-01
5.662732e-01
5.672595e-01
5.684312e-01
5.696743e-01
5.708789e-01
5.728331e-01
0.000000e+00
1.000000e+00
5.713352e-01
5.694175e-01
5.673956e-01
5.653249e-01
5.633617e-01
5.617124e-01
5.606018e-01
5.602098e-01
5.606060e-01
5.617218e-01
5.633753e-01
5.653386e-01
5.674136e-01
5.693698e-01
5.721022e-01
0.000000e+00
1.000000e+00
5.645027e-01
5.551789e-01
5.451087e-01
5.348114e-01
5.250530e-01
5.168608e-01
5.113512e-01
5.094160e-01
5.113960e-01
5.169453e-01
5.251485e-01
5.349481e-01
5.451913e-01
5.552959e-01
5.641535e-01
0.000000e+00
1.000000e+00
5.650613e-01
5.563501e-01
5.469410e-01
5.373199e-01
5.282018e-01
5.205469e-01
5.153986e-01
5.135904e-01
5.154409e-01
5.206253e-01
5.282999e-01
5.374397e-01
5.470158e-01
5.564300e-01
5.649410e-01
0.000000e+00
1.000000e+00
5.657924e-01
5.578994e-01
5.493650e-01
5.406388e-01
5.323682e-01
5.254246e-01
5.207546e-01
5.191140e-01
5.207920e-01
5.254933e-01
5.324614e-01
5.407476e-01
5.494419e-01
5.580109e-01
5.656958e-01
0.000000e+00
1.000000e+00
5.666993e-01
5.598057e-01
5.523469e-01
5.447210e-01
5.374930e-01
5.314241e-01
5.273422e-01
5.259079e-01
5.273742e-01
5.314824e-01
5.375756e-01
5.448220e-01
5.524285e-01
5.600127e-01
5.661791e-01
0.000000e+00
1.000000e+00
5.677501e-01
5.620077e-01
5.557919e-01
5.494377e-01
5.434145e-01
5.383568e-01
5.349545e-01
5.337587e-01
5.349801e-01
5.384035e-01
5.434823e-01
5.495325e-01
5.558701e-01
5.622438e-01
5.668826e-01
0.000000e+00
1.000000e+00
5.688955e-01
5.644043e-01
5.595418e-01
5.545718e-01
5.498604e-01
5.459039e-01
5.432417e-01
5.423054e-01
5.432602e-01
5.459381e-01
5.499117e-01
5.546550e-01
5.596117e-01
5.645574e-01
5.682932e-01
0.000000e+00
1.000000e+00
5.700705e-01
5.668569e-01
5.633796e-01
5.598263e-01
5.564576e-01
5.536284e-01
5.517242e-01
5.510535e-01
5.517352e-01
5.536499e-01
5.564922e-01
5.598938e-01
5.634429e-01
5.669278e-01
5.697681e-01
0.000000e+00
1.000000e+00
5.712009e-01
5.692016e-01
5.670493e-01
5.648507e-01
5.627661e-01
5.610151e-01
5.598361e-01
5.594197e-01
5.598400e-01
5.610241e-01
5.627848e-01
5.649000e-01
5.671062e-01
5.692155e-01
5.712731e-01
0.000000e+00
1.000000e+00
5.722061e-01
5.712699e-01
5.702879e-01
5.692850e-01
5.683341e-01
5.675350e-01
5.669965e-01
5.668052e-01
5.669950e-01
5.675334e-01
5.683378e-01
5.693135e-01
5.703335e-01
5.712886e-01
5.726531e-01
0.000000e+00
1.000000e+00
5.730136e-01
5.729136e-01
5.728639e-01
5.728122e-01
5.727631e-01
5.727217e-01
5.726934e-01
5.726824e-01
5.726901e-01
5.727159e-01
5.727589e-01
5.728230e-01
5.729011e-01
5.729549e-01
5.730884e-01
0.000000e+00
1.000000e+00
5.735718e-01
5.740266e-01
5.746116e-01
5.752051e-01
5.757679e-01
5.762408e-01
5.765594e-01
5.766717e-01
5.765579e-01
5.762390e-01
5.757692e-01
5.752155e-01
5.746456e-01
5.740090e-01
5.728690e-01
0.000000e+00
1.000000e+00
5.738487e-01
5.745585e-01
5.754524e-01
5.763564e-01
5.772138e-01
5.779344e-01
5.784201e-01
5.785924e-01
5.784213e-01
5.779381e-01
5.772225e-01
5.763704e-01
5.754817e-01
5.744686e-01
5.726493e-01
0.000000e+00
1.000000e+00
5.738395e-01
5.745169e-01
5.753973e-01
5.762808e-01
5.771188e-01
5.778231e-01
5.782978e-01
5.784663e-01
5.782992e-01
5.778264e-01
5.771261e-01
5.762906e-01
5.754187e-01
5.744340e-01
5.723634e-01
0.000000e+00
1.000000e+00
5.735620e-01
5.739589e-01
5.745326e-01
5.750968e-01
5.756318e-01
5.760814e-01
5.763841e-01
5.764908e-01
5.763829e-01
5.760801e-01
5.756332e-01
5.750985e-01
5.745469e-01
5.739756e-01
5.726224e-01
0.000000e+00
1.000000e+00
5.730705e-01
5.729816e-01
5.729976e-01
5.729951e-01
5.729927e-01
5.729908e-01
5.729893e-01
5.729884e-01
5.729879e-01
5.729884e-01
5.729900e-01
5.729926e-01
5.730106e-01
5.730702e-01
5.730530e-01
0.000000e+00
1.000000e+00
5.724447e-01
5.716885e-01
5.709572e-01
5.702016e-01
5.694852e-01
5.688834e-01
5.684781e-01