<?xml version="1.0"?>
<VTKFile type="StructuredGrid" version="0.1">
  <StructuredGrid WholeExtent="0 16 0 16 0 16">
    <Piece Extent="0 16 0 16 0 16">
      <PointData Scalars="temperature" Vectors="velocity">
        <DataArray type="Float32" Name="temperature" format="ascii">
1.000000e+00
5.727452e-01
5.722944e-01
5.719023e-01
5.714950e-01
5.711094e-01
5.707861e-01
5.705688e-01
5.704921e-01
5.705696e-01
5.707888e-01
5.711197e-01
5.715202e-01
5.719374e-01
5.723495e-01
5.725005e-01
0.000000e+00
1.000000e+00
5.719347e-01
5.706250e-01
5.692860e-01
5.679128e-01
5.666117e-01
5.655196e-01
5.647852e-01
5.645265e-01
5.647895e-01
5.655289e-01
5.666346e-01
5.679467e-01
5.693304e-01
5.706870e-01
5.716968e-01
0.000000e+00
1.000000e+00
5.709986e-01
5.686957e-01
5.662636e-01
5.637746e-01
5.614159e-01
5.594361e-01
5.581045e-01
5.576358e-01
5.581126e-01
5.594527e-01
5.614523e-01
5.638153e-01
5.663127e-01
5.687562e-01
5.707842e-01
0.000000e+00
1.000000e+00
5.699664e-01
5.665486e-01
5.629020e-01
5.591721e-01
5.556373e-01
5.526701e-01
5.506746e-01
5.499721e-01
5.506867e-01
5.526949e-01
5.556858e-01
5.592205e-01
5.629524e-01
5.666065e-01
5.697666e-01
0.000000e+00
1.000000e+00
5.688708e-01
5.642516e-01
5.593068e-01
5.542499e-01
5.494576e-01
5.454346e-01
5.427288e-01
5.417763e-01
5.427451e-01
5.454681e-01
5.495178e-01
5.543073e-01
5.593599e-01
5.643116e-01
5.686786e-01
0.000000e+00
1.000000e+00
5.677531e-01
5.618968e-01
5.556211e-01
5.492040e-01
5.431229e-01
5.380177e-01
5.345835e-01
5.333743e-01
5.346042e-01
5.380597e-01
5.431950e-01
5.492720e-01
5.556760e-01
5.619586e-01
5.675675e-01
0.000000e+00
1.000000e+00
5.666696e-01
5.595950e-01
5.520182e-01
5.442715e-01
5.369305e-01
5.307673e-01
5.266205e-01
5.251604e-01
5.266461e-01
5.308174e-01
5.370141e-01
5.443524e-01
5.520746e-01
5.596583e-01
5.664865e-01
0.000000e+00
1.000000e+00
5.656699e-01
5.574665e-01
5.486868e-01
5.397110e-01
5.312049e-01
5.240628e-01
5.192568e-01
5.175651e-01
5.192877e-01
5.241207e-01
5.312981e-01
5.398067e-01
5.487448e-01
5.575334e-01
5.654800e-01
0.000000e+00
1.000000e+00
5.647991e-01
5.556297e-01
5.458128e-01
5.357765e-01
5.262646e-01
5.182776e-01
5.129031e-01
5.110122e-01
5.129390e-01
5.183433e-01
5.263655e-01
5.358874e-01
5.458734e-01
5.557035e-01
5.646060e-01
0.000000e+00
1.000000e+00
5.641119e-01
5.541890e-01
5.435586e-01
5.326900e-01
5.223887e-01
5.137387e-01
5.079188e-01
5.058716e-01
5.079583e-01
5.138106e-01
5.224938e-01
5.328133e-01
5.436235e-01
5.542680e-01
5.639201e-01
0.000000e+00
1.000000e+00
5.636384e-01
5.532204e-01
5.420439e-01
5.306161e-01
5.197848e-01
5.106899e-01
5.045708e-01
5.024183e-01
5.046123e-01
5.107656e-01
5.198915e-01
5.307465e-01
5.421202e-01
5.532990e-01
5.634568e-01
0.000000e+00
1.000000e+00
5.634034e-01
5.527682e-01
5.413367e-01
5.296478e-01
5.185689e-01
5.092660e-01
5.030068e-01
5.008048e-01
5.030488e-01
5.093426e-01
5.186735e-01
5.297767e-01
5.414273e-01
5.528417e-01
5.632523e-01
0.000000e+00
1.000000e+00
5.634229e-01
5.528393e-01
5.414465e-01
5.297979e-01
5.187570e-01
5.094857e-01
5.032477e-01
5.010529e-01
5.032889e-01
5.095608e-01
5.188575e-01
5.299203e-01
5.415446e-01
5.529063e-01
5.632877e-01
0.000000e+00
1.000000e+00
5.636842e-01
5.534050e-01
5.423298e-01
5.310068e-01
5.202742e-01
5.112617e-01
5.051974e-01
5.030634e-01
5.052363e-01
5.113321e-01
5.203680e-01
5.311221e-01
5.424222e-01
5.534701e-01
5.635591e-01
0.000000e+00
1.000000e+00
5.641587e-01
5.544092e-01
5.439001e-01
5.331566e-01
5.229730e-01
5.144211e-01
5.086665e-01
5.066410e-01
5.087021e-01
5.144851e-01
5.230577e-01
5.332671e-01
5.439843e-01
5.544770e-01
5.640410e-01
0.000000e+00
1.000000e+00
5.648025e-01
5.557772e-01
5.460424e-01
5.360900e-01
5.266562e-01
5.187340e-01
5.134030e-01
5.115264e-01
5.134354e-01
5.187921e-01
5.267295e-01
5.361991e-01
5.461263e-01
5.558550e-01
5.646955e-01
0.000000e+00
1.000000e+00
5.655333e-01
5.574349e-01
5.486311e-01
5.396344e-01
5.311067e-01
5.239453e-01
5.191264e-01
5.174303e-01
5.191562e-01
5.239983e-01
5.311711e-01
5.397382e-01
5.487115e-01
5.575032e-01
5.654003e-01
0.000000e+00
1.000000e+00
5.721185e-01
5.710027e-01
5.698791e-01
5.687248e-01
5.676309e-01
5.667124e-01
5.660940e-01
5.658757e-01
5.660963e-01
5.667182e-01
5.676464e-01
5.687484e-01
5.699102e-01
5.710543e-01
5.719077e-01
0.000000e+00
1.000000e+00
5.712919e-01
5.692925e-01
5.672003e-01
5.650571e-01
5.630260e-01
5.613207e-01
5.601729e-01
5.597680e-01
5.601787e-01
5.613339e-01
5.630526e-01
5.650886e-01
5.672415e-01
5.693485e-01
5.710720e-01
0.000000e+00
1.000000e+00
5.703356e-01
5.673181e-01
5.641082e-01
5.608238e-01
5.577110e-01
5.550975e-01
5.533387e-01
5.527188e-01
5.533486e-01
5.551190e-01
5.577486e-01
5.608634e-01
5.641549e-01
5.673763e-01
5.701412e-01
0.000000e+00
1.000000e+00
5.692868e-01
5.651249e-01
5.606745e-01
5.561227e-01
5.518090e-01
5.481871e-01
5.457497e-01
5.448910e-01
5.457640e-01
5.482166e-01
5.518571e-01
5.561710e-01
5.607260e-01
5.651843e-01
5.690975e-01
0.000000e+00
1.000000e+00
5.681784e-01
5.627860e-01
5.570135e-01
5.511106e-01
5.455165e-01
5.408195e-01
5.376585e-01
5.365451e-01
5.376775e-01
5.408574e-01
5.455763e-01
5.511684e-01
5.570698e-01
5.628499e-01
5.679895e-01
0.000000e+00
1.000000e+00
5.670494e-01
5.604011e-01
5.532806e-01
5.460003e-01
5.391008e-01
5.333073e-01
5.294083e-01
5.280355e-01
5.294325e-01
5.333537e-01
5.391729e-01
5.460698e-01
5.533407e-01
5.604684e-01
5.668628e-01
0.000000e+00
1.000000e+00
5.659580e-01
5.580906e-01
5.496640e-01
5.410492e-01
5.328846e-01
5.260283e-01
5.214145e-01
5.197907e-01
5.214442e-01
5.260835e-01
5.329686e-01
5.411325e-01
5.497280e-01
5.581630e-01
5.657794e-01
0.000000e+00
1.000000e+00
5.649577e-01
5.559850e-01
5.463684e-01
5.365368e-01
5.272188e-01
5.193940e-01
5.141290e-01
5.122770e-01
5.141642e-01
5.194578e-01
5.273131e-01
5.366356e-01
5.464365e-01
5.560638e-01
5.647904e-01
0.000000e+00
1.000000e+00
5.641058e-01
5.542106e-01
5.435922e-01
5.327354e-01
5.224458e-01
5.138060e-01
5.079930e-01
5.059484e-01
5.080323e-01
5.138771e-01
5.225480e-01
5.328491e-01
5.436659e-01
5.543032e-01
5.639526e-01
0.000000e+00
1.000000e+00
5.634470e-01
5.528774e-01
5.415063e-01
5.298798e-01
5.188605e-01
5.096080e-01
5.033831e-01
5.011935e-01
5.034252e-01
5.096844e-01
5.189659e-01
5.300046e-01
5.415870e-01
5.529793e-01
5.633282e-01
0.000000e+00
1.000000e+00
5.630534e-01
5.520636e-01
5.402328e-01
5.281360e-01
5.166710e-01
5.070443e-01
5.005676e-01
4.982894e-01
5.006113e-01
5.071236e-01
5.167763e-01
5.282643e-01
5.403249e-01
5.521546e-01
5.629015e-01
0.000000e+00
1.000000e+00
5.629155e-01
5.518069e-01
5.398311e-01
5.275859e-01
5.159800e-01
5.062347e-01
4.996783e-01
4.973720e-01
4.997223e-01
5.063144e-01
5.160817e-01
5.277099e-01
5.399384e-01
5.518820e-01
5.628010e-01
0.000000e+00
1.000000e+00
5.630448e-01
5.521057e-01
5.402966e-01
5.282228e-01
5.167789e-01
5.071696e-01
5.007044e-01
4.984300e-01
5.007471e-01
5.072465e-01
5.168746e-01
5.283405e-01
5.404040e-01
5.521725e-01
5.629495e-01
0.000000e+00
1.000000e+00
5.634259e-01
5.529185e-01
5.415660e-01
5.299603e-01
5.189598e-01
5.097225e-01
5.035073e-01
5.013204e-01
5.035472e-01
5.097939e-01
5.190481e-01
5.300755e-01
5.416564e-01
5.529782e-01
5.633390e-01
0.000000e+00
1.000000e+00
5.640216e-01
5.541759e-01
5.435319e-01
5.326520e-01
5.223390e-01
5.136786e-01
5.078513e-01
5.058004e-01
5.078875e-01
5.137431e-01
5.224196e-01
5.327630e-01
5.436096e-01
5.542319e-01
5.639420e-01
0.000000e+00
1.000000e+00
5.647892e-01
5.557928e-01
5.460613e-01
5.361153e-01
5.266874e-01
5.187700e-01
5.134423e-01
5.115670e-01
5.134747e-01
5.188273e-01
5.267580e-01
5.362189e-01
5.461378e-01
5.558532e-01
5.647009e-01
0.000000e+00
1.000000e+00
5.657027e-01
5.576798e-01
5.490133e-01
5.401571e-01
5.317622e-01
5.247121e-01
5.199675e-01
5.182968e-01
5.199949e-01
5.247608e-01
5.318221e-01
5.402529e-01
5.490886e-01
5.577342e-01
5.655608e-01
0.000000e+00
1.000000e+00
5.716074e-01
5.699356e-01
5.682079e-01
5.664364e-01
5.647572e-01
5.633467e-01
5.623970e-01
5.620621e-01
5.624015e-01
5.633564e-01
5.647749e-01
5.664581e-01
5.682377e-01
5.699811e-01
5.713986e-01
0.000000e+00
1.000000e+00
5.707761e-01
5.682037e-01
5.654956e-01
5.627230e-01
5.600949e-01
5.578876e-01
5.564018e-01
5.558782e-01
5.564100e-01
5.579041e-01
5.601205e-01
5.627512e-01
5.655332e-01
5.682513e-01
5.705592e-01
0.000000e+00
1.000000e+00
5.698153e-01
5.662040e-01
5.623648e-01
5.584367e-01
5.547135e-01
5.515867e-01
5.494821e-01
5.487409e-01
5.494949e-01
5.516115e-01
5.547494e-01
5.584722e-01
5.624061e-01
5.662505e-01
5.696114e-01
0.000000e+00
1.000000e+00
5.687599e-01
5.639853e-01
5.588909e-01
5.536809e-01
5.487428e-01
5.445956e-01
5.418045e-01
5.408219e-01
5.418219e-01
5.446290e-01
5.487897e-01
5.537256e-01
5.589390e-01
5.640369e-01
5.685516e-01
0.000000e+00
1.000000e+00
5.676484e-01
5.616254e-01
5.551959e-01
5.486225e-01
5.423920e-01
5.371594e-01
5.336381e-01
5.323988e-01
5.336606e-01
5.372019e-01
5.424518e-01
5.486768e-01
5.552487e-01
5.616845e-01
5.674313e-01
0.000000e+00
1.000000e+00
5.665202e-01
5.592304e-01
5.514463e-01
5.434891e-01
5.359470e-01
5.296131e-01
5.253510e-01
5.238515e-01
5.253787e-01
5.296649e-01
5.360209e-01
5.435560e-01
5.515031e-01
5.592954e-01
5.662954e-01
0.000000e+00
1.000000e+00
5.654318e-01
5.569285e-01
5.478435e-01
5.385566e-01
5.297543e-01
5.223626e-01
5.173893e-01
5.156397e-01
5.174219e-01
5.224233e-01
5.298423e-01
5.386386e-01
5.479052e-01
5.570034e-01
5.652122e-01
0.000000e+00
1.000000e+00
5.644273e-01
5.548594e-01
5.446063e-01
5.341249e-01
5.241909e-01
5.158491e-01
5.102367e-01
5.082621e-01
5.102735e-01
5.159175e-01
5.242900e-01
5.342234e-01
5.446732e-01
5.549444e-01
5.642447e-01
0.000000e+00
1.000000e+00
5.636142e-01
5.531595e-01
5.419473e-01
5.304842e-01
5.196200e-01
5.104976e-01
5.043600e-01
5.022006e-01
5.044002e-01
5.105722e-01
5.197264e-01
5.305966e-01
5.420195e-01
5.532702e-01
5.634495e-01
0.000000e+00
1.000000e+00
5.630284e-01
5.519416e-01
5.400430e-01
5.278768e-01
5.163465e-01
5.066648e-01
5.001510e-01
4.978593e-01
5.001938e-01
5.067442e-01
5.164562e-01
5.279998e-01
5.401219e-01
5.520734e-01
5.628770e-01
0.000000e+00
1.000000e+00
5.626993e-01
5.512842e-01
5.390149e-01
5.264686e-01
5.145780e-01
5.045941e-01
4.978770e-01
4.955139e-01
4.979213e-01
5.046760e-01
5.146872e-01
5.265928e-01
5.391085e-01
5.514029e-01
5.625177e-01
0.000000e+00
1.000000e+00
5.626475e-01
5.512198e-01
5.389138e-01
5.263296e-01
5.144028e-01
5.043883e-01
4.976508e-01
4.952805e-01
4.976951e-01
5.044697e-01
5.145071e-01
5.264488e-01
5.390166e-01
5.513117e-01
5.625036e-01
0.000000e+00
1.000000e+00
5.628762e-01
5.517361e-01
5.397193e-01
5.274319e-01
5.157858e-01
5.060069e-01
4.994277e-01
4.971128e-01
4.994702e-01
5.060843e-01
5.158826e-01
5.275462e-01
5.398196e-01
5.518125e-01
5.627623e-01
0.000000e+00
1.000000e+00
5.633666e-01
5.527794e-01
5.413488e-01
5.296625e-01
5.185856e-01
5.092843e-01
5.030261e-01
5.008239e-01
5.030655e-01
5.093552e-01
5.186743e-01
5.297729e-01
5.414425e-01
5.528348e-01
5.632678e-01
0.000000e+00
1.000000e+00
5.640700e-01
5.542668e-01
5.436747e-01
5.328470e-01
5.225837e-01
5.139649e-01
5.081658e-01
5.061248e-01
5.082015e-01
5.140285e-01
5.226650e-01
5.329507e-01
5.437591e-01
5.543195e-01
5.639758e-01
0.000000e+00
1.000000e+00
5.649393e-01
5.561029e-01
5.465461e-01
5.367788e-01
5.275202e-01
5.197449e-01
5.145128e-01
5.126712e-01
5.145446e-01
5.198008e-01
5.275911e-01
5.368754e-01
5.466282e-01
5.561508e-01
5.648482e-01
0.000000e+00
1.000000e+00
5.659447e-01
5.581859e-01
5.498060e-01
5.412425e-01
5.331250e-01
5.263080e-01
5.217206e-01
5.201059e-01
5.217488e-01
5.263581e-01
5.331881e-01
5.413385e-01
5.498852e-01
5.582206e-01
5.659320e-01
0.000000e+00
1.000000e+00
5.712486e-01
5.691716e-01
5.670113e-01
5.647983e-01
5.627004e-01
5.609384e-01
5.597522e-01
5.593339e-01
5.597579e-01
5.609500e-01
5.627178e-01
5.648175e-01
5.670355e-01
5.692091e-01
5.710292e-01
0.000000e+00
1.000000e+00
5.704321e-01
5.674448e-01
5.643063e-01
5.610948e-01
5.580505e-01
5.554937e-01
5.537729e-01
5.531665e-01
5.537822e-01
5.555117e-01
5.580749e-01
5.611202e-01
5.643372e-01
5.674875e-01
5.701929e-01
0.000000e+00
1.000000e+00
5.694845e-01
5.654489e-01
5.611802e-01
5.568148e-01
5.526768e-01
5.492016e-01
5.468631e-01
5.460397e-01
5.468771e-01
5.492281e-01
5.527112e-01
5.568474e-01
5.612161e-01
5.654943e-01
5.692543e-01
0.000000e+00
1.000000e+00
5.684379e-01
5.632341e-01
5.577104e-01
5.520646e-01
5.467129e-01
5.422185e-01
5.391943e-01
5.381300e-01
5.392132e-01
5.422541e-01
5.467591e-01
5.521064e-01
5.577532e-01
5.632858e-01
5.681944e-01
0.000000e+00
1.000000e+00
5.673357e-01
5.608823e-01
5.540245e-01
5.470184e-01
5.403775e-01
5.348006e-01
5.310483e-01
5.297278e-01
5.310722e-01
5.348459e-01
5.404378e-01
5.470707e-01
5.540732e-01
5.609418e-01
5.670753e-01
0.000000e+00
1.000000e+00
5.662069e-01
5.585032e-01
5.502973e-01
5.419161e-01
5.339720e-01
5.273009e-01
5.228124e-01
5.212329e-01
5.228411e-01
5.273554e-01
5.340473e-01
5.419821e-01
5.503516e-01
5.585693e-01
5.659424e-01
0.000000e+00
1.000000e+00
5.651345e-01
5.562327e-01
5.467422e-01
5.370496e-01
5.278626e-01
5.201479e-01
5.149572e-01
5.131307e-01
5.149905e-01
5.202108e-01
5.279520e-01
5.371308e-01
5.468028e-01
5.563096e-01
5.648650e-01
0.000000e+00
1.000000e+00
5.641825e-01
5.542169e-01
5.435901e-01
5.327346e-01
5.224457e-01
5.138057e-01
5.079924e-01
5.059468e-01
5.080298e-01
5.138760e-01
5.225464e-01
5.328319e-01
5.436567e-01
5.543036e-01
5.639133e-01
0.000000e+00
1.000000e+00
5.633937e-01
5.525978e-01
5.410624e-01
5.292739e-01
5.181011e-01
5.087193e-01
5.024068e-01
5.001856e-01
5.024474e-01
5.087956e-01
5.182098e-01
5.293852e-01
5.411361e-01
5.527072e-01
5.631471e-01
0.000000e+00
1.000000e+00
5.628373e-01
5.514949e-01
5.393417e-01
5.269174e-01
5.151424e-01
5.052554e-01
4.986032e-01
4.962624e-01
4.986463e-01
5.053364e-01
5.152554e-01
5.270400e-01
5.394221e-01
5.516183e-01
5.626137e-01
0.000000e+00
1.000000e+00
5.625683e-01
5.509859e-01
5.385474e-01
5.258286e-01
5.137747e-01
5.036538e-01
4.968445e-01
4.944486e-01
4.968888e-01
5.037369e-01
5.138875e-01
5.259522e-01
5.386405e-01
5.510870e-01
5.623666e-01
0.000000e+00
1.000000e+00
5.625982e-01
5.510966e-01
5.387207e-01
5.260649e-01
5.140704e-01
5.039994e-01
4.972237e-01
4.948396e-01
4.972676e-01
5.040809e-01
5.141781e-01
5.261815e-01
5.388208e-01
5.511782e-01
5.624574e-01
0.000000e+00
1.000000e+00
5.629151e-01
5.518041e-01
5.398262e-01
5.275779e-01
5.159690e-01
5.062214e-01
4.996632e-01
4.973555e-01
4.997050e-01
5.062980e-01
5.160684e-01
5.276862e-01
5.399273e-01
5.518759e-01
5.628173e-01
0.000000e+00
1.000000e+00
5.634952e-01
5.530440e-01
5.417635e-01
5.302301e-01
5.192981e-01
5.101184e-01
5.039422e-01
5.017687e-01
5.039807e-01
5.101881e-01
5.193881e-01
5.303325e-01
5.418601e-01
5.530946e-01
5.634269e-01
0.000000e+00
1.000000e+00
5.642880e-01
5.547220e-01
5.443874e-01
5.338227e-01
5.238085e-01
5.153991e-01
5.097408e-01
5.077494e-01
5.097756e-01
5.154611e-01
5.238894e-01
5.339199e-01
5.444742e-01
5.547674e-01
5.642269e-01
0.000000e+00
1.000000e+00
5.652405e-01
5.567327e-01
5.475320e-01
5.381284e-01
5.292145e-01
5.217286e-01
5.166915e-01
5.149186e-01
5.167225e-01
5.217830e-01
5.292832e-01
5.382217e-01
5.476145e-01
5.567684e-01
5.652297e-01
0.000000e+00
1.000000e+00
5.663194e-01
5.589672e-01
5.510288e-01
5.429164e-01
5.352266e-01
5.287687e-01
5.244231e-01
5.228936e-01
5.244504e-01
5.288173e-01
5.352868e-01
5.430116e-01
5.511060e-01
5.589985e-01
5.664393e-01
0.000000e+00
1.000000e+00
5.710615e-01
5.687861e-01
5.664077e-01
5.639715e-01
5.616620e-01
5.597221e-01
5.584160e-01
5.579552e-01
5.584215e-01
5.597330e-01
5.616768e-01
5.639872e-01
5.664265e-01
5.688175e-01
5.708479e-01
0.000000e+00
1.000000e+00
5.702691e-01
5.670984e-01
5.637617e-01
5.603490e-01
5.571140e-01
5.543970e-01
5.525683e-01
5.519236e-01
5.525773e-01
5.544144e-01
5.571362e-01
5.603713e-01
5.637877e-01
5.671416e-01
5.700156e-01
0.000000e+00
1.000000e+00
5.693531e-01
5.651431e-01
5.606947e-01
5.561501e-01
5.518423e-01
5.482247e-01
5.457902e-01
5.449327e-01
5.458040e-01
5.482508e-01
5.518750e-01
5.561804e-01
5.607274e-01
5.651890e-01
5.691075e-01
0.000000e+00
1.000000e+00
5.683484e-01
5.629704e-01
5.572846e-01
5.514817e-01
5.459811e-01
5.413620e-01
5.382538e-01
5.371596e-01
5.382726e-01
5.413976e-01
5.460261e-01
5.515213e-01
5.573250e-01
5.630155e-01
5.680680e-01
0.000000e+00
1.000000e+00
5.673016e-01
5.606630e-01
5.536614e-01
5.465215e-01
5.397538e-01
5.340706e-01
5.302465e-01
5.289006e-01
5.302703e-01
5.341159e-01
5.398131e-01
5.465715e-01
5.537080e-01
5.607081e-01
5.669626e-01
0.000000e+00
1.000000e+00
5.662300e-01
5.583310e-01
5.500052e-01
5.415165e-01
5.334703e-01
5.267134e-01
5.221671e-01
5.205671e-01
5.221958e-01
5.267682e-01
5.335449e-01
5.415798e-01
5.500584e-01
5.583763e-01
5.658570e-01
0.000000e+00
1.000000e+00
5.651581e-01
5.561112e-01
5.465362e-01
5.367679e-01
5.275090e-01
5.197338e-01
5.145023e-01
5.126613e-01
5.145356e-01
5.197971e-01
5.275983e-01
5.368458e-01
5.465958e-01
5.561628e-01
5.648188e-01
0.000000e+00
1.000000e+00
5.641871e-01
5.541598e-01
5.434935e-01
5.326027e-01
5.222802e-01
5.136121e-01
5.077797e-01
5.057273e-01
5.078170e-01
5.136828e-01
5.223818e-01
5.326966e-01
5.435589e-01
5.542177e-01
5.639103e-01
0.000000e+00
1.000000e+00
5.634169e-01
5.526271e-01
5.411054e-01
5.293329e-01
5.181754e-01
5.088064e-01
5.025025e-01
5.002842e-01
5.025429e-01
5.088829e-01
5.182858e-01
5.294411e-01
5.411767e-01
5.526969e-01
5.631874e-01
0.000000e+00
1.000000e+00
5.629086e-01
5.516335e-01
5.395573e-01
5.272124e-01
5.155129e-01
5.056892e-01
4.990796e-01
4.967537e-01
4.991222e-01
5.057698e-01
5.156282e-01
5.273320e-01
5.396329e-01
5.517115e-01
5.627244e-01
0.000000e+00
1.000000e+00
5.627006e-01
5.512536e-01
5.389655e-01
5.264008e-01
5.144931e-01
5.044949e-01
4.977681e-01
4.954011e-01
4.978116e-01
5.045768e-01
5.146085e-01
5.265218e-01
5.390524e-01
5.513210e-01
5.625692e-01
0.000000e+00
1.000000e+00
5.627987e-01
5.515073e-01
5.393632e-01
5.269443e-01
5.151743e-01
5.052917e-01
4.986428e-01
4.963032e-01
4.986855e-01
5.053712e-01
5.152842e-01
5.270570e-01
5.394631e-01
5.515654e-01
5.627132e-01
0.000000e+00
1.000000e+00
5.631872e-01
5.523638e-01
5.407022e-01
5.287771e-01
5.174744e-01
5.079838e-01
5.015985e-01
4.993516e-01
5.016389e-01
5.080578e-01
5.175740e-01
5.288825e-01
5.408004e-01
5.524143e-01
5.631253e-01
0.000000e+00
1.000000e+00
5.638335e-01
5.537492e-01
5.428679e-01
5.317421e-01
5.211963e-01
5.123409e-01
5.063828e-01
5.042859e-01
5.064197e-01
5.124077e-01
5.212826e-01
5.318472e-01
5.429579e-01
5.537940e-01
5.638040e-01
0.000000e+00
1.000000e+00
5.646891e-01
5.555616e-01
5.457018e-01
5.356222e-01
5.260678e-01
5.180443e-01
5.126457e-01
5.107457e-01
5.126788e-01
5.181032e-01
5.261413e-01
5.357225e-01
5.457866e-01
5.556036e-01
5.646643e-01
0.000000e+00
1.000000e+00
5.656981e-01
5.576879e-01
5.490271e-01
5.401753e-01
5.317843e-01
5.247376e-01
5.199959e-01
5.183270e-01
5.200251e-01
5.247887e-01
5.318451e-01
5.402682e-01
5.491072e-01
5.577236e-01
5.657318e-01
0.000000e+00
1.000000e+00
5.668195e-01
5.600145e-01
5.526683e-01
5.451610e-01
5.380447e-01
5.320683e-01
5.280468e-01
5.266314e-01
5.280722e-01
5.321137e-01
5.380984e-01
5.452528e-01
5.527415e-01
5.600571e-01
5.668679e-01
0.000000e+00
1.000000e+00
5.711260e-01
5.688417e-01
5.664898e-01
5.640841e-01
5.618033e-01
5.598875e-01
5.585974e-01
5.581420e-01
5.586021e-01
5.598969e-01
5.618158e-01
5.640974e-01
5.665059e-01
5.688555e-01
5.709216e-01
0.000000e+00
1.000000e+00
5.703846e-01
5.672329e-01
5.639646e-01
5.606268e-01
5.574628e-01
5.548054e-01
5.530167e-01
5.523860e-01
5.530251e-01
5.548217e-01
5.574832e-01
5.606470e-01
5.639878e-01
5.672692e-01
5.700544e-01
0.000000e+00
1.000000e+00
5.695076e-01
5.653569e-01
5.610211e-01
5.565971e-01
5.524035e-01
5.488819e-01
5.465119e-01
5.456771e-01
5.465252e-01
5.489069e-01
5.524345e-01
5.566259e-01
5.610529e-01
5.653935e-01
5.692351e-01
0.000000e+00
1.000000e+00
5.685157e-01
5.632607e-01
5.577353e-01
5.520987e-01
5.467559e-01
5.422692e-01
5.392503e-01
5.381875e-01
5.392686e-01
5.423040e-01
5.467992e-01
5.521367e-01
5.577750e-01
5.632921e-01
5.682321e-01
0.000000e+00
1.000000e+00
5.674417e-01
5.610258e-01
5.542359e-01
5.473079e-01
5.407411e-01
5.352268e-01
5.315165e-01
5.302107e-01
5.315400e-01
5.352716e-01
5.407991e-01
5.473558e-01
5.542826e-01
5.610616e-01
5.671735e-01
0.000000e+00
1.000000e+00
5.663472e-01
5.587668e-01
5.507033e-01
5.424720e-01
5.346700e-01
5.281185e-01
5.237104e-01
5.221593e-01
5.237388e-01
5.281728e-01
5.347436e-01
5.425322e-01
5.507562e-01
5.588045e-01
5.661294e-01
0.000000e+00
1.000000e+00
5.653074e-01
5.566268e-01
5.473601e-01
5.378954e-01
5.289247e-01
5.213918e-01
5.163234e-01
5.145401e-01
5.163563e-01
5.214546e-01
5.290137e-01
5.379691e-01
5.474185e-01
5.566698e-01
5.651286e-01
0.000000e+00
1.000000e+00
5.644127e-01
5.547632e-01
5.444487e-01
5.339095e-01
5.239208e-01
5.155332e-01
5.098898e-01
5.079041e-01
5.099265e-01
5.156030e-01
5.240225e-01
5.339977e-01
5.445113e-01
5.548092e-01
5.642471e-01
0.000000e+00
1.000000e+00
5.637185e-01
5.533232e-01
5.421994e-01
5.308295e-01
5.200540e-01
5.110060e-01
5.049183e-01
5.027762e-01
5.049578e-01
5.110808e-01
5.201648e-01
5.309303e-01
5.422656e-01
5.533788e-01
5.635563e-01
0.000000e+00
1.000000e+00
5.632764e-01
5.524256e-01
5.407977e-01
5.289098e-01
5.176434e-01
5.081835e-01
5.018187e-01
4.995792e-01
5.018600e-01
5.082613e-01
5.177587e-01
5.290190e-01
5.408678e-01
5.524826e-01
5.631488e-01
0.000000e+00
1.000000e+00
5.631222e-01
5.521431e-01
5.403574e-01
5.283060e-01
5.168845e-01
5.072945e-01
5.008424e-01
4.985721e-01
5.008840e-01
5.073725e-01
5.169994e-01
5.284163e-01
5.404365e-01
5.521950e-01
5.630370e-01
0.000000e+00
1.000000e+00
5.632702e-01
5.524935e-01
5.409058e-01
5.290561e-01
5.178252e-01
5.083952e-01
5.020507e-01
4.998181e-01
5.020911e-01
5.084702e-01
5.179331e-01
5.291641e-01
5.409925e-01
5.525411e-01
5.631982e-01
0.000000e+00
1.000000e+00
5.637058e-01
5.534405e-01
5.423867e-01
5.310832e-01
5.203694e-01
5.113732e-01
5.053204e-01
5.031904e-01
5.053583e-01
5.114425e-01
5.204638e-01
5.311934e-01
5.424722e-01
5.534865e-01
5.636494e-01
0.000000e+00
1.000000e+00
5.643887e-01
5.549047e-01
5.446765e-01
5.342183e-01
5.243050e-01
5.159806e-01
5.103796e-01
5.084083e-01
5.104140e-01
5.160427e-01
5.243829e-01
5.343288e-01
5.447573e-01
5.549504e-01
5.643592e-01
0.000000e+00
1.000000e+00
5.652714e-01
5.567801e-01
5.476095e-01
5.382340e-01
5.293468e-01
5.218836e-01
5.168618e-01
5.150942e-01
5.168922e-01
5.219377e-01
5.294106e-01
5.383348e-01
5.476883e-01
5.568257e-01
5.652395e-01
0.000000e+00
1.000000e+00
5.662996e-01
5.589506e-01
5.510036e-01
5.428813e-01
5.351817e-01
5.287154e-01
5.243642e-01
5.228326e-01
5.243906e-01
5.287618e-01
5.352339e-01
5.429687e-01
5.510793e-01
5.589939e-01
5.663142e-01
0.000000e+00
1.000000e+00
5.674334e-01
5.613005e-01
5.546811e-01
5.479167e-01
5.415044e-01
5.361192e-01
5.324954e-01
5.312200e-01
5.325181e-01
5.361599e-01
5.415512e-01
5.480014e-01
5.547512e-01
5.613501e-01
5.673621e-01
0.000000e+00
1.000000e+00
5.713763e-01
5.693695e-01
5.673173e-01
5.652171e-01
5.632260e-01
5.615534e-01
5.604270e-01
5.600291e-01
5.604304e-01
5.615607e-01
5.632366e-01
5.652291e-01
5.673352e-01
5.693676e-01
5.712584e-01
0.000000e+00
1.000000e+00
5.706595e-01
5.678767e-01
5.649779e-01
5.620139e-01
5.592044e-01
5.568448e-01
5.552566e-01
5.546966e-01
5.552640e-01
5.568594e-01
5.592234e-01
5.620329e-01
5.650013e-01
5.679076e-01
5.703188e-01
0.000000e+00
1.000000e+00
5.698083e-01
5.661191e-01
5.622253e-01
5.582455e-01
5.544732e-01
5.513055e-01
5.491740e-01
5.484233e-01
5.491864e-01
5.513294e-01
5.545034e-01
5.582738e-01
5.622592e-01
5.661556e-01
5.696376e-01
0.000000e+00
1.000000e+00
5.688628e-01
5.641427e-01
5.591311e-01
5.540095e-01
5.491550e-01
5.450782e-01
5.423355e-01
5.413704e-01
5.423533e-01
5.451119e-01
5.491972e-01
5.540464e-01
5.591731e-01
5.641759e-01
5.686795e-01
0.000000e+00
1.000000e+00
5.678626e-01
5.620263e-01
5.558183e-01
5.494741e-01
5.434610e-01
5.384111e-01
5.350136e-01
5.338186e-01
5.350366e-01
5.384545e-01
5.435168e-01
5.495199e-01
5.558675e-01
5.620666e-01
5.676724e-01
0.000000e+00
1.000000e+00
5.668440e-01
5.598818e-01
5.524624e-01
5.448798e-01
5.376931e-01
5.316577e-01
5.275972e-01
5.261690e-01
5.276248e-01
5.317103e-01
5.377639e-01
5.449357e-01
5.525171e-01
5.599236e-01
5.666771e-01
0.000000e+00
1.000000e+00
5.658719e-01
5.578488e-01
5.492819e-01
5.405256e-01
5.322266e-01
5.252572e-01
5.205687e-01
5.189195e-01
5.206004e-01
5.253179e-01
5.323126e-01
5.405925e-01
5.493410e-01
5.578955e-01
5.656967e-01
0.000000e+00
1.000000e+00
5.650190e-01
5.560804e-01
5.465161e-01
5.367387e-01
5.274720e-01
5.196909e-01
5.144560e-01
5.126146e-01
5.144912e-01
5.197578e-01
5.275710e-01
5.368177e-01
5.465788e-01
5.561324e-01
5.648507e-01
0.000000e+00
1.000000e+00
5.643537e-01
5.547230e-01
5.443933e-01
5.338321e-01
5.238226e-01
5.154181e-01
5.097637e-01
5.077745e-01
5.098012e-01
5.154890e-01
5.239305e-01
5.339208e-01
5.444590e-01
5.547817e-01
5.642038e-01
0.000000e+00
1.000000e+00
5.639564e-01
5.538946e-01
5.430973e-01
5.320572e-01
5.215940e-01
5.128085e-01
5.068977e-01
5.048182e-01
5.069364e-01
5.128811e-01
5.217057e-01
5.321520e-01
5.431676e-01
5.539533e-01
5.638371e-01
0.000000e+00
1.000000e+00
5.638401e-01
5.536657e-01
5.427397e-01
5.315672e-01
5.209781e-01
5.120868e-01
5.061049e-01
5.040001e-01
5.061435e-01
5.121587e-01
5.210880e-01
5.316651e-01
5.428137e-01
5.537224e-01
5.637454e-01
0.000000e+00
1.000000e+00
5.640133e-01
5.540532e-01
5.433458e-01
5.323966e-01
5.220187e-01
5.133046e-01
5.074416e-01
5.053785e-01
5.074788e-01
5.133730e-01
5.221193e-01
5.325009e-01
5.434206e-01
5.541076e-01
5.639254e-01
0.000000e+00
1.000000e+00
5.644611e-01
5.550194e-01
5.448573e-01
5.344656e-01
5.246157e-01
5.163447e-01
5.107796e-01
5.088211e-01
5.108141e-01
5.164075e-01
5.247013e-01
5.345745e-01
5.449311e-01
5.550712e-01
5.643900e-01
0.000000e+00
1.000000e+00
5.651450e-01
5.564844e-01
5.471489e-01
5.376032e-01
5.285547e-01
5.209563e-01
5.158434e-01
5.140437e-01
5.158742e-01
5.210117e-01
5.286241e-01
5.377086e-01
5.472193e-01
5.565332e-01
5.650965e-01
0.000000e+00
1.000000e+00
5.660185e-01
5.583424e-01
5.500547e-01
5.415818e-01
5.335499e-01
5.268047e-01
5.222658e-01
5.206679e-01
5.222926e-01
5.268524e-01
5.336058e-01
5.416752e-01
5.501246e-01
5.583926e-01
5.659741e-01
0.000000e+00
1.000000e+00
5.670310e-01
5.604777e-01
5.533939e-01
5.461537e-01
5.392903e-01
5.335260e-01
5.296470e-01
5.282813e-01
5.296697e-01
5.335662e-01
5.393357e-01
5.462325e-01
5.534628e-01
5.605284e-01
5.669847e-01
0.000000e+00
1.000000e+00
5.681426e-01
5.627765e-01
5.569916e-01
5.510798e-01
5.454756e-01
5.407690e-01
5.376016e-01
5.364867e-01
5.376209e-01
5.408038e-01
5.455159e-01
5.511563e-01
5.570582e-01
5.628256e-01
5.678923e-01
0.000000e+00
1.000000e+00
5.718361e-01
5.703776e-01
5.689008e-01
5.673851e-01
5.659483e-01
5.647415e-01
5.639287e-01
5.636414e-01
5.639306e-01
5.647462e-01
5.659575e-01
5.673962e-01
5.689240e-01
5.703775e-01
5.718276e-01
0.000000e+00
1.000000e+00
5.711906e-01
5.690422e-01
5.668077e-01
5.645194e-01
5.623503e-01
5.605288e-01
5.593029e-01
5.588708e-01
5.593091e-01
5.605414e-01
5.623689e-01
5.645382e-01
5.668370e-01
5.690732e-01
5.707944e-01
0.000000e+00
1.000000e+00
5.704250e-01
5.674473e-01
5.643095e-01
5.610991e-01
5.580562e-01
5.555010e-01
5.537817e-01
5.531766e-01
5.537929e-01
5.555227e-01
5.580864e-01
5.611284e-01
5.643498e-01
5.674870e-01
5.702693e-01
0.000000e+00
1.000000e+00
5.695495e-01
5.656330e-01
5.614690e-01
5.572103e-01
5.531740e-01
5.497845e-01
5.475039e-01
5.467016e-01
5.475198e-01
5.498152e-01
5.532151e-01
5.572479e-01
5.615178e-01
5.656716e-01
5.693489e-01
0.000000e+00
1.000000e+00
5.686125e-01
5.636717e-01
5.583989e-01
5.530073e-01
5.478976e-01
5.436067e-01
5.407193e-01
5.397035e-01
5.407396e-01
5.436461e-01
5.479510e-01
5.530531e-01
5.584553e-01
5.637204e-01
5.684237e-01
0.000000e+00
1.000000e+00
5.676591e-01
5.616693e-01
5.552647e-01
5.487164e-01
5.425109e-01
5.372997e-01
5.337930e-01
5.325591e-01
5.338172e-01
5.373472e-01
5.425776e-01
5.487705e-01
5.553266e-01
5.617205e-01
5.675012e-01
0.000000e+00
1.000000e+00
5.667535e-01
5.597591e-01
5.522748e-01
5.446231e-01
5.373717e-01
5.312821e-01
5.271845e-01
5.257428e-01
5.272125e-01
5.313366e-01
5.374514e-01
5.446849e-01
5.523396e-01
5.598118e-01
5.665656e-01
0.000000e+00
1.000000e+00
5.659609e-01
5.580880e-01
5.496596e-01
5.410422e-01
5.328752e-01
5.260170e-01
5.214022e-01
5.197791e-01
5.214338e-01
5.260769e-01
5.329663e-01
5.411120e-01
5.497261e-01
5.581440e-01
5.657632e-01
0.000000e+00
1.000000e+00
5.653414e-01
5.567977e-01
5.476403e-01
5.382771e-01
5.294025e-01
5.219507e-01
5.169371e-01
5.151738e-01
5.169711e-01
5.220145e-01
5.295021e-01
5.383536e-01
5.477100e-01
5.568576e-01
5.651470e-01
0.000000e+00
1.000000e+00
5.649522e-01
5.560033e-01
5.463970e-01
5.365743e-01
5.272646e-01
5.194471e-01
5.141878e-01
5.123376e-01
5.142225e-01
5.195121e-01
5.273673e-01
5.366567e-01
5.464689e-01
5.560643e-01
5.647843e-01
0.000000e+00
1.000000e+00
5.648372e-01
5.557760e-01
5.460414e-01
5.360872e-01
5.266522e-01
5.187298e-01
5.133996e-01
5.115242e-01
5.134339e-01
5.187933e-01
5.267518e-01
5.361754e-01
5.461109e-01
5.558378e-01
5.646740e-01
0.000000e+00
1.000000e+00
5.650041e-01
5.561334e-01
5.466007e-01
5.368528e-01
5.276130e-01
5.198543e-01
5.146339e-01
5.127967e-01
5.146665e-01
5.199140e-01
5.277025e-01
5.369488e-01
5.466675e-01
5.561966e-01
5.648314e-01
0.000000e+00
1.000000e+00
5.654268e-01
5.570414e-01
5.480215e-01
5.387979e-01
5.300548e-01
5.227128e-01
5.177725e-01
5.160335e-01
5.178023e-01
5.227670e-01
5.301304e-01
5.388954e-01
5.480865e-01
5.571030e-01
5.652849e-01
0.000000e+00
1.000000e+00
5.660735e-01
5.584246e-01
5.501852e-01
5.417603e-01
5.337740e-01
5.270671e-01
5.225539e-01
5.209649e-01
5.225801e-01
5.271144e-01
5.338352e-01
5.418528e-01
5.502470e-01
5.584799e-01
5.659684e-01
0.000000e+00
1.000000e+00
5.669021e-01
5.601817e-01
5.529332e-01
5.455226e-01
5.384976e-01
5.325978e-01
5.286274e-01
5.272292e-01
5.286497e-01
5.326378e-01
5.385466e-01
5.456044e-01
5.529948e-01
5.602362e-01
5.668124e-01
0.000000e+00
1.000000e+00
5.678616e-01
5.622014e-01
5.560922e-01
5.498479e-01
5.439282e-01
5.389565e-01
5.356104e-01