<?xml version="1.0"?>
<VTKFile type="StructuredGrid" version="0.1">
  <StructuredGrid WholeExtent="0 16 0 16 0 16">
    <Piece Extent="0 16 0 16 0 16">
      <PointData Scalars="temperature" Vectors="velocity">
        <DataArray type="Float32" Name="temperature" format="ascii">
1.000000e+00
5.737371e-01
5.745549e-01
5.754333e-01
5.763318e-01
5.771838e-01
5.778997e-01
5.783822e-01
5.785530e-01
5.783822e-01
5.778997e-01
5.771838e-01
5.763318e-01
5.754333e-01
5.745549e-01
5.737371e-01
0.000000e+00
1.000000e+00
5.736522e-01
5.743757e-01
5.751529e-01
5.759478e-01
5.767016e-01
5.773350e-01
5.777619e-01
5.779130e-01
5.777619e-01
5.773350e-01
5.767016e-01
5.759478e-01
5.751529e-01
5.743757e-01
5.736522e-01
0.000000e+00
1.000000e+00
5.735553e-01
5.741713e-01
5.748331e-01
5.755100e-01
5.761518e-01
5.766911e-01
5.770545e-01
5.771833e-01
5.770545e-01
5.766911e-01
5.761518e-01
5.755100e-01
5.748331e-01
5.741713e-01
5.735553e-01
0.000000e+00
1.000000e+00
5.734489e-01
5.739469e-01
5.744818e-01
5.750290e-01
5.755478e-01
5.759838e-01
5.762776e-01
5.763816e-01
5.762776e-01
5.759838e-01
5.755478e-01
5.750290e-01
5.744818e-01
5.739469e-01
5.734489e-01
0.000000e+00
1.000000e+00
5.733364e-01
5.737097e-01
5.741106e-01
5.745207e-01
5.749095e-01
5.752363e-01
5.754564e-01
5.755344e-01
5.754564e-01
5.752363e-01
5.749095e-01
5.745207e-01
5.741106e-01
5.737097e-01
5.733364e-01
0.000000e+00
1.000000e+00
5.732225e-01
5.734692e-01
5.737343e-01
5.740055e-01
5.742626e-01
5.744786e-01
5.746242e-01
5.746758e-01
5.746242e-01
5.744786e-01
5.742626e-01
5.740055e-01
5.737343e-01
5.734692e-01
5.732225e-01
0.000000e+00
1.000000e+00
5.731122e-01
5.732367e-01
5.733705e-01
5.735073e-01
5.736370e-01
5.737460e-01
5.738194e-01
5.738454e-01
5.738194e-01
5.737460e-01
5.736370e-01
5.735073e-01
5.733705e-01
5.732367e-01
5.731122e-01
0.000000e+00
1.000000e+00
5.730113e-01
5.730238e-01
5.730373e-01
5.730510e-01
5.730641e-01
5.730750e-01
5.730824e-01
5.730850e-01
5.730824e-01
5.730750e-01
5.730641e-01
5.730510e-01
5.730373e-01
5.730238e-01
5.730113e-01
0.000000e+00
1.000000e+00
5.729249e-01
5.728416e-01
5.727520e-01
5.726605e-01
5.725736e-01
5.725007e-01
5.724515e-01
5.724341e-01
5.724515e-01
5.725007e-01
5.725736e-01
5.726605e-01
5.727520e-01
5.728416e-01
5.729249e-01
0.000000e+00
1.000000e+00
5.728574e-01
5.726991e-01
5.725291e-01
5.723552e-01
5.721903e-01
5.720518e-01
5.719584e-01
5.719254e-01
5.719584e-01
5.720518e-01
5.721903e-01
5.723552e-01
5.725291e-01
5.726991e-01
5.728574e-01
0.000000e+00
1.000000e+00
5.728117e-01
5.726027e-01
5.723783e-01
5.721487e-01
5.719310e-01
5.717480e-01
5.716248e-01
5.715811e-01
5.716248e-01
5.717480e-01
5.719310e-01
5.721487e-01
5.723783e-01
5.726027e-01
5.728117e-01
0.000000e+00
1.000000e+00
5.727891e-01
5.725551e-01
5.723038e-01
5.720467e-01
5.718029e-01
5.715981e-01
5.714600e-01
5.714112e-01
5.714600e-01
5.715981e-01
5.718029e-01
5.720467e-01
5.723038e-01
5.725551e-01
5.727891e-01
0.000000e+00
1.000000e+00
5.727893e-01
5.725555e-01
5.723044e-01
5.720475e-01
5.718040e-01
5.715993e-01
5.714614e-01
5.714126e-01
5.714614e-01
5.715993e-01
5.718040e-01
5.720475e-01
5.723044e-01
5.725555e-01
5.727893e-01
0.000000e+00
1.000000e+00
5.728104e-01
5.726000e-01
5.723740e-01
5.721428e-01
5.719236e-01
5.717394e-01
5.716153e-01
5.715713e-01
5.716153e-01
5.717394e-01
5.719236e-01
5.721428e-01
5.723740e-01
5.726000e-01
5.728104e-01
0.000000e+00
1.000000e+00
5.728494e-01
5.726823e-01
5.725028e-01
5.723192e-01
5.721451e-01
5.719988e-01
5.719002e-01
5.718653e-01
5.719002e-01
5.719988e-01
5.721451e-01
5.723192e-01
5.725028e-01
5.726823e-01
5.728494e-01
0.000000e+00
1.000000e+00
5.729028e-01
5.727949e-01
5.726790e-01
5.725604e-01
5.724480e-01
5.723536e-01
5.722899e-01
5.722674e-01
5.722899e-01
5.723536e-01
5.724480e-01
5.725604e-01
5.726790e-01
5.727949e-01
5.729028e-01
0.000000e+00
1.000000e+00
5.729667e-01
5.729298e-01
5.728901e-01
5.728495e-01
5.728110e-01
5.727787e-01
5.727569e-01
5.727492e-01
5.727569e-01
5.727787e-01
5.728110e-01
5.728495e-01
5.728901e-01
5.729298e-01
5.729667e-01
0.000000e+00
1.000000e+00
5.738156e-01
5.747205e-01
5.756925e-01
5.766867e-01
5.776294e-01
5.784216e-01
5.789554e-01
5.791444e-01
5.789554e-01
5.784216e-01
5.776294e-01
5.766867e-01
5.756925e-01
5.747205e-01
5.738156e-01
0.000000e+00
1.000000e+00
5.737365e-01
5.745535e-01
5.754312e-01
5.763289e-01
5.771801e-01
5.778954e-01
5.783774e-01
5.785481e-01
5.783774e-01
5.778954e-01
5.771801e-01
5.763289e-01
5.754312e-01
5.745535e-01
5.737365e-01
0.000000e+00
1.000000e+00
5.736439e-01
5.743582e-01
5.751256e-01
5.759104e-01
5.766546e-01
5.772800e-01
5.777014e-01
5.778506e-01
5.777014e-01
5.772800e-01
5.766546e-01
5.759104e-01
5.751256e-01
5.743582e-01
5.736439e-01
0.000000e+00
1.000000e+00
5.735400e-01
5.741391e-01
5.747827e-01
5.754409e-01
5.760650e-01
5.765895e-01
5.769430e-01
5.770681e-01
5.769430e-01
5.765895e-01
5.760650e-01
5.754409e-01
5.747827e-01
5.741391e-01
5.735400e-01
0.000000e+00
1.000000e+00
5.734283e-01
5.739034e-01
5.744139e-01
5.749359e-01
5.754309e-01
5.758469e-01
5.761272e-01
5.762265e-01
5.761272e-01
5.758469e-01
5.754309e-01
5.749359e-01
5.744139e-01
5.739034e-01
5.734283e-01
0.000000e+00
1.000000e+00
5.733133e-01
5.736610e-01
5.740344e-01
5.744163e-01
5.747785e-01
5.750828e-01
5.752879e-01
5.753605e-01
5.752879e-01
5.750828e-01
5.747785e-01
5.744163e-01
5.740344e-01
5.736610e-01
5.733133e-01
0.000000e+00
1.000000e+00
5.732007e-01
5.734234e-01
5.736626e-01
5.739072e-01
5.741392e-01
5.743342e-01
5.744655e-01
5.745121e-01
5.744655e-01
5.743342e-01
5.741392e-01
5.739072e-01
5.736626e-01
5.734234e-01
5.732007e-01
0.000000e+00
1.000000e+00
5.730964e-01
5.732034e-01
5.733182e-01
5.734357e-01
5.735471e-01
5.736408e-01
5.737039e-01
5.737262e-01
5.737039e-01
5.736408e-01
5.735471e-01
5.734357e-01
5.733182e-01
5.732034e-01
5.730964e-01
0.000000e+00
1.000000e+00
5.730062e-01
5.730130e-01
5.730203e-01
5.730278e-01
5.730349e-01
5.730409e-01
5.730449e-01
5.730464e-01
5.730449e-01
5.730409e-01
5.730349e-01
5.730278e-01
5.730203e-01
5.730130e-01
5.730062e-01
0.000000e+00
1.000000e+00
5.729348e-01
5.728625e-01
5.727849e-01
5.727054e-01
5.726301e-01
5.725668e-01
5.725242e-01
5.725091e-01
5.725242e-01
5.725668e-01
5.726301e-01
5.727054e-01
5.727849e-01
5.728625e-01
5.729348e-01
0.000000e+00
1.000000e+00
5.728858e-01
5.727591e-01
5.726230e-01
5.724838e-01
5.723518e-01
5.722409e-01
5.721661e-01
5.721397e-01
5.721661e-01
5.722409e-01
5.723518e-01
5.724838e-01
5.726230e-01
5.727591e-01
5.728858e-01
0.000000e+00
1.000000e+00
5.728606e-01
5.727060e-01
5.725398e-01
5.723699e-01
5.722088e-01
5.720734e-01
5.719821e-01
5.719498e-01
5.719821e-01
5.720734e-01
5.722088e-01
5.723699e-01
5.725398e-01
5.727060e-01
5.728606e-01
0.000000e+00
1.000000e+00
5.728589e-01
5.727024e-01
5.725342e-01
5.723622e-01
5.721992e-01
5.720621e-01
5.719698e-01
5.719371e-01
5.719698e-01
5.720621e-01
5.721992e-01
5.723622e-01
5.725342e-01
5.727024e-01
5.728589e-01
0.000000e+00
1.000000e+00
5.728788e-01
5.727443e-01
5.725999e-01
5.724521e-01
5.723120e-01
5.721943e-01
5.721150e-01
5.720869e-01
5.721150e-01
5.721943e-01
5.723120e-01
5.724521e-01
5.725999e-01
5.727443e-01
5.728788e-01
0.000000e+00
1.000000e+00
5.729171e-01
5.728252e-01
5.727264e-01
5.726253e-01
5.725295e-01
5.724490e-01
5.723948e-01
5.723756e-01
5.723948e-01
5.724490e-01
5.725295e-01
5.726253e-01
5.727264e-01
5.728252e-01
5.729171e-01
0.000000e+00
1.000000e+00
5.729701e-01
5.729369e-01
5.729012e-01
5.728647e-01
5.728301e-01
5.728010e-01
5.727814e-01
5.727745e-01
5.727814e-01
5.728010e-01
5.728301e-01
5.728647e-01
5.729012e-01
5.729369e-01
5.729701e-01
0.000000e+00
1.000000e+00
5.730337e-01
5.730710e-01
5.731111e-01
5.731521e-01
5.731910e-01
5.732237e-01
5.732458e-01
5.732536e-01
5.732458e-01
5.732237e-01
5.731910e-01
5.731521e-01
5.731111e-01
5.730710e-01
5.730337e-01
0.000000e+00
1.000000e+00
5.738806e-01
5.748575e-01
5.759070e-01
5.769803e-01
5.779981e-01
5.788534e-01
5.794298e-01
5.796339e-01
5.794298e-01
5.788534e-01
5.779981e-01
5.769803e-01
5.759070e-01
5.748575e-01
5.738806e-01
0.000000e+00
1.000000e+00
5.738076e-01
5.747036e-01
5.756661e-01
5.766506e-01
5.775840e-01
5.783685e-01
5.788970e-01
5.790843e-01
5.788970e-01
5.783685e-01
5.775840e-01
5.766506e-01
5.756661e-01
5.747036e-01
5.738076e-01
0.000000e+00
1.000000e+00
5.737199e-01
5.745184e-01
5.753763e-01
5.762538e-01
5.770858e-01
5.777849e-01
5.782561e-01
5.784229e-01
5.782561e-01
5.777849e-01
5.770858e-01
5.762538e-01
5.753763e-01
5.745184e-01
5.737199e-01
0.000000e+00
1.000000e+00
5.736191e-01
5.743060e-01
5.750438e-01
5.757985e-01
5.765141e-01
5.771154e-01
5.775206e-01
5.776641e-01
5.775206e-01
5.771154e-01
5.765141e-01
5.757985e-01
5.750438e-01
5.743060e-01
5.736191e-01
0.000000e+00
1.000000e+00
5.735088e-01
5.740732e-01
5.746795e-01
5.752996e-01
5.758876e-01
5.763818e-01
5.767147e-01
5.768327e-01
5.767147e-01
5.763818e-01
5.758876e-01
5.752996e-01
5.746795e-01
5.740732e-01
5.735088e-01
0.000000e+00
1.000000e+00
5.733934e-01
5.738299e-01
5.742987e-01
5.747783e-01
5.752330e-01
5.756151e-01
5.758726e-01
5.759638e-01
5.758726e-01
5.756151e-01
5.752330e-01
5.747783e-01
5.742987e-01
5.738299e-01
5.733934e-01
0.000000e+00
1.000000e+00
5.732789e-01
5.735883e-01
5.739207e-01
5.742607e-01
5.745831e-01
5.748540e-01
5.750365e-01
5.751012e-01
5.750365e-01
5.748540e-01
5.745831e-01
5.742607e-01
5.739207e-01
5.735883e-01
5.732789e-01
0.000000e+00
1.000000e+00
5.731716e-01
5.733621e-01
5.735666e-01
5.737758e-01
5.739742e-01
5.741409e-01
5.742532e-01
5.742930e-01
5.742532e-01
5.741409e-01
5.739742e-01
5.737758e-01
5.735666e-01
5.733621e-01
5.731716e-01
0.000000e+00
1.000000e+00
5.730779e-01
5.731643e-01
5.732570e-01
5.733520e-01
5.734419e-01
5.735176e-01
5.735685e-01
5.735866e-01
5.735685e-01
5.735176e-01
5.734419e-01
5.733520e-01
5.732570e-01
5.731643e-01
5.730779e-01
0.000000e+00
1.000000e+00
5.730030e-01
5.730062e-01
5.730098e-01
5.730134e-01
5.730168e-01
5.730197e-01
5.730216e-01
5.730223e-01
5.730216e-01
5.730197e-01
5.730168e-01
5.730134e-01
5.730098e-01
5.730062e-01
5.730030e-01
0.000000e+00
1.000000e+00
5.729507e-01
5.728960e-01
5.728373e-01
5.727772e-01
5.727202e-01
5.726724e-01
5.726401e-01
5.726287e-01
5.726401e-01
5.726724e-01
5.727202e-01
5.727772e-01
5.728373e-01
5.728960e-01
5.729507e-01
0.000000e+00
1.000000e+00
5.729229e-01
5.728374e-01
5.727456e-01
5.726516e-01
5.725625e-01
5.724877e-01
5.724372e-01
5.724194e-01
5.724372e-01
5.724877e-01
5.725625e-01
5.726516e-01
5.727456e-01
5.728374e-01
5.729229e-01
0.000000e+00
1.000000e+00
5.729194e-01
5.728299e-01
5.727338e-01
5.726355e-01
5.725423e-01
5.724640e-01
5.724113e-01
5.723926e-01
5.724113e-01
5.724640e-01
5.725423e-01
5.726355e-01
5.727338e-01
5.728299e-01
5.729194e-01
0.000000e+00
1.000000e+00
5.729380e-01
5.728693e-01
5.727954e-01
5.727199e-01
5.726482e-01
5.725881e-01
5.725475e-01
5.725331e-01
5.725475e-01
5.725881e-01
5.726482e-01
5.727199e-01
5.727954e-01
5.728693e-01
5.729380e-01
0.000000e+00
1.000000e+00
5.729756e-01
5.729485e-01
5.729195e-01
5.728897e-01
5.728615e-01
5.728378e-01
5.728218e-01
5.728162e-01
5.728218e-01
5.728378e-01
5.728615e-01
5.728897e-01
5.729195e-01
5.729485e-01
5.729756e-01
0.000000e+00
1.000000e+00
5.730281e-01
5.730592e-01
5.730927e-01
5.731269e-01
5.731593e-01
5.731865e-01
5.732049e-01
5.732114e-01
5.732049e-01
5.731865e-01
5.731593e-01
5.731269e-01
5.730927e-01
5.730592e-01
5.730281e-01
0.000000e+00
1.000000e+00
5.730912e-01
5.731924e-01
5.733012e-01
5.734123e-01
5.735178e-01
5.736064e-01
5.736661e-01
5.736872e-01
5.736661e-01
5.736064e-01
5.735178e-01
5.734123e-01
5.733012e-01
5.731924e-01
5.730912e-01
0.000000e+00
1.000000e+00
5.739282e-01
5.749579e-01
5.760641e-01
5.771955e-01
5.782683e-01
5.791698e-01
5.797773e-01
5.799925e-01
5.797773e-01
5.791698e-01
5.782683e-01
5.771955e-01
5.760641e-01
5.749579e-01
5.739282e-01
0.000000e+00
1.000000e+00
5.738614e-01
5.748170e-01
5.758436e-01
5.768936e-01
5.778892e-01
5.787258e-01
5.792896e-01
5.794892e-01
5.792896e-01
5.787258e-01
5.778892e-01
5.768936e-01
5.758436e-01
5.748170e-01
5.738614e-01
0.000000e+00
1.000000e+00
5.737785e-01
5.746422e-01
5.755701e-01
5.765190e-01
5.774189e-01
5.781750e-01
5.786846e-01
5.788650e-01
5.786846e-01
5.781750e-01
5.774189e-01
5.765190e-01
5.755701e-01
5.746422e-01
5.737785e-01
0.000000e+00
1.000000e+00
5.736812e-01
5.744370e-01
5.752488e-01
5.760792e-01
5.768666e-01
5.775282e-01
5.779741e-01
5.781320e-01
5.779741e-01
5.775282e-01
5.768666e-01
5.760792e-01
5.752488e-01
5.744370e-01
5.736812e-01
0.000000e+00
1.000000e+00
5.735726e-01
5.742078e-01
5.748902e-01
5.755882e-01
5.762500e-01
5.768061e-01
5.771809e-01
5.773136e-01
5.771809e-01
5.768061e-01
5.762500e-01
5.755882e-01
5.748902e-01
5.742078e-01
5.735726e-01
0.000000e+00
1.000000e+00
5.734573e-01
5.739647e-01
5.745097e-01
5.750671e-01
5.755957e-01
5.760398e-01
5.763391e-01
5.764451e-01
5.763391e-01
5.760398e-01
5.755957e-01
5.750671e-01
5.745097e-01
5.739647e-01
5.734573e-01
0.000000e+00
1.000000e+00
5.733414e-01
5.737201e-01
5.741270e-01
5.745431e-01
5.749377e-01
5.752693e-01
5.754927e-01
5.755718e-01
5.754927e-01
5.752693e-01
5.749377e-01
5.745431e-01
5.741270e-01
5.737201e-01
5.733414e-01
0.000000e+00
1.000000e+00
5.732316e-01
5.734885e-01
5.737645e-01
5.740468e-01
5.743145e-01
5.745394e-01
5.746910e-01
5.747447e-01
5.746910e-01
5.745394e-01
5.743145e-01
5.740468e-01
5.737645e-01
5.734885e-01
5.732316e-01
0.000000e+00
1.000000e+00
5.731347e-01
5.732841e-01
5.734446e-01
5.736088e-01
5.737644e-01
5.738952e-01
5.739834e-01
5.740146e-01
5.739834e-01
5.738952e-01
5.737644e-01
5.736088e-01
5.734446e-01
5.732841e-01
5.731347e-01
0.000000e+00
1.000000e+00
5.730565e-01
5.731193e-01
5.731866e-01
5.732555e-01
5.733209e-01
5.733758e-01
5.734128e-01
5.734259e-01
5.734128e-01
5.733758e-01
5.733209e-01
5.732555e-01
5.731866e-01
5.731193e-01
5.730565e-01
0.000000e+00
1.000000e+00
5.730014e-01
5.730029e-01
5.730045e-01
5.730061e-01
5.730077e-01
5.730090e-01
5.730099e-01
5.730102e-01
5.730099e-01
5.730090e-01
5.730077e-01
5.730061e-01
5.730045e-01
5.730029e-01
5.730014e-01
0.000000e+00
1.000000e+00
5.729712e-01
5.729393e-01
5.729050e-01
5.728699e-01
5.728367e-01
5.728087e-01
5.727899e-01
5.727832e-01
5.727899e-01
5.728087e-01
5.728367e-01
5.728699e-01
5.729050e-01
5.729393e-01
5.729712e-01
0.000000e+00
1.000000e+00
5.729660e-01
5.729283e-01
5.728878e-01
5.728463e-01
5.728070e-01
5.727740e-01
5.727517e-01
5.727438e-01
5.727517e-01
5.727740e-01
5.728070e-01
5.728463e-01
5.728878e-01
5.729283e-01
5.729660e-01
0.000000e+00
1.000000e+00
5.729836e-01
5.729654e-01
5.729459e-01
5.729259e-01
5.729069e-01
5.728910e-01
5.728803e-01
5.728765e-01
5.728803e-01
5.728910e-01
5.729069e-01
5.729259e-01
5.729459e-01
5.729654e-01
5.729836e-01
0.000000e+00
1.000000e+00
5.730206e-01
5.730434e-01
5.730679e-01
5.730930e-01
5.731168e-01
5.731367e-01
5.731502e-01
5.731550e-01
5.731502e-01
5.731367e-01
5.731168e-01
5.730930e-01
5.730679e-01
5.730434e-01
5.730206e-01
0.000000e+00
1.000000e+00
5.730727e-01
5.731533e-01
5.732400e-01
5.733286e-01
5.734126e-01
5.734832e-01
5.735308e-01
5.735476e-01
5.735308e-01
5.734832e-01
5.734126e-01
5.733286e-01
5.732400e-01
5.731533e-01
5.730727e-01
0.000000e+00
1.000000e+00
5.731356e-01
5.732860e-01
5.734476e-01
5.736128e-01
5.737695e-01
5.739012e-01
5.739900e-01
5.740214e-01
5.739900e-01
5.739012e-01
5.737695e-01
5.736128e-01
5.734476e-01
5.732860e-01
5.731356e-01
0.000000e+00
1.000000e+00
5.739550e-01
5.750144e-01
5.761525e-01
5.773166e-01
5.784203e-01
5.793479e-01
5.799729e-01
5.801943e-01
5.799729e-01
5.793479e-01
5.784203e-01
5.773166e-01
5.761525e-01
5.750144e-01
5.739550e-01
0.000000e+00
1.000000e+00
5.738938e-01
5.748854e-01
5.759505e-01
5.770400e-01
5.780730e-01
5.789411e-01
5.795261e-01
5.797333e-01
5.795261e-01
5.789411e-01
5.780730e-01
5.770400e-01
5.759505e-01
5.748854e-01
5.738938e-01
0.000000e+00
1.000000e+00
5.738155e-01
5.747203e-01
5.756922e-01
5.766862e-01
5.776288e-01
5.784209e-01
5.789546e-01
5.791437e-01
5.789546e-01
5.784209e-01
5.776288e-01
5.766862e-01
5.756922e-01
5.747203e-01
5.738155e-01
0.000000e+00
1.000000e+00
5.737215e-01
5.745219e-01
5.753818e-01
5.762612e-01
5.770951e-01
5.777959e-01
5.782681e-01
5.784353e-01
5.782681e-01
5.777959e-01
5.770951e-01
5.762612e-01
5.753818e-01
5.745219e-01
5.737215e-01
0.000000e+00
1.000000e+00
5.736147e-01
5.742966e-01
5.750291e-01
5.757783e-01
5.764887e-01
5.770857e-01
5.774880e-01
5.776305e-01
5.774880e-01
5.770857e-01
5.764887e-01
5.757783e-01
5.750291e-01
5.742966e-01
5.736147e-01
0.000000e+00
1.000000e+00
5.734997e-01
5.740540e-01
5.746495e-01
5.752585e-01
5.758360e-01
5.763213e-01
5.766483e-01
5.767642e-01
5.766483e-01
5.763213e-01
5.758360e-01
5.752585e-01
5.746495e-01
5.740540e-01
5.734997e-01
0.000000e+00
1.000000e+00
5.733827e-01
5.738072e-01
5.742632e-01
5.747297e-01
5.751720e-01
5.755436e-01
5.757941e-01
5.758828e-01
5.757941e-01
5.755436e-01
5.751720e-01
5.747297e-01
5.742632e-01
5.738072e-01
5.733827e-01
0.000000e+00
1.000000e+00
5.732708e-01
5.735712e-01
5.738939e-01
5.742239e-01
5.745369e-01
5.747999e-01
5.749771e-01
5.750399e-01
5.749771e-01
5.747999e-01
5.745369e-01
5.742239e-01
5.738939e-01
5.735712e-01
5.732708e-01
0.000000e+00
1.000000e+00
5.731712e-01
5.733611e-01
5.735652e-01
5.737739e-01
5.739717e-01
5.741380e-01
5.742501e-01
5.742897e-01
5.742501e-01
5.741380e-01
5.739717e-01
5.737739e-01
5.735652e-01
5.733611e-01
5.731712e-01
0.000000e+00
1.000000e+00
5.730903e-01
5.731905e-01
5.732981e-01
5.734081e-01
5.735125e-01
5.736002e-01
5.736593e-01
5.736802e-01
5.736593e-01
5.736002e-01
5.735125e-01
5.734081e-01
5.732981e-01
5.731905e-01
5.730903e-01
0.000000e+00
1.000000e+00
5.730327e-01
5.730689e-01
5.731078e-01
5.731476e-01
5.731853e-01
5.732170e-01
5.732384e-01
5.732460e-01
5.732384e-01
5.732170e-01
5.731853e-01
5.731476e-01
5.731078e-01
5.730689e-01
5.730327e-01
0.000000e+00
1.000000e+00
5.730006e-01
5.730013e-01
5.730020e-01
5.730028e-01
5.730035e-01
5.730041e-01
5.730045e-01
5.730046e-01
5.730045e-01
5.730041e-01
5.730035e-01
5.730028e-01
5.730020e-01
5.730013e-01
5.730006e-01
0.000000e+00
1.000000e+00
5.729941e-01
5.729876e-01
5.729806e-01
5.729735e-01
5.729667e-01
5.729610e-01
5.729571e-01
5.729558e-01
5.729571e-01
5.729610e-01
5.729667e-01
5.729735e-01
5.729806e-01
5.729876e-01
5.729941e-01
0.000000e+00
1.000000e+00
5.730111e-01
5.730234e-01
5.730365e-01
5.730500e-01
5.730628e-01
5.730736e-01
5.730808e-01
5.730834e-01
5.730808e-01
5.730736e-01
5.730628e-01
5.730500e-01
5.730365e-01
5.730234e-01
5.730111e-01
0.000000e+00
1.000000e+00
5.730478e-01
5.731009e-01
5.731579e-01
5.732162e-01
5.732714e-01
5.733179e-01
5.733492e-01
5.733603e-01
5.733492e-01
5.733179e-01
5.732714e-01
5.732162e-01
5.731579e-01
5.731009e-01
5.730478e-01
0.000000e+00
1.000000e+00
5.731000e-01
5.732109e-01
5.733301e-01
5.734520e-01
5.735675e-01
5.736647e-01
5.737301e-01
5.737533e-01
5.737301e-01
5.736647e-01
5.735675e-01
5.734520e-01
5.733301e-01
5.732109e-01
5.731000e-01
0.000000e+00
1.000000e+00
5.731630e-01
5.733439e-01
5.735382e-01
5.737369e-01
5.739253e-01
5.740836e-01
5.741903e-01
5.742281e-01
5.741903e-01
5.740836e-01
5.739253e-01
5.737369e-01
5.735382e-01
5.733439e-01
5.731630e-01
0.000000e+00
1.000000e+00
5.739584e-01
5.750216e-01
5.761637e-01
5.773318e-01
5.784395e-01
5.793703e-01
5.799976e-01
5.802197e-01
5.799976e-01
5.793703e-01
5.784395e-01
5.773318e-01
5.761637e-01
5.750216e-01
5.739584e-01
0.000000e+00
1.000000e+00
5.739017e-01
5.749021e-01
5.759767e-01
5.770759e-01
5.781181e-01
5.789939e-01
5.795840e-01
5.797931e-01
5.795840e-01
5.789939e-01
5.781181e-01
5.770759e-01
5.759767e-01
5.749021e-01
5.739017e-01
0.000000e+00
1.000000e+00
5.738272e-01
5.747449e-01
5.757308e-01
5.767391e-01
5.776952e-01
5.784986e-01
5.790400e-01
5.792318e-01
5.790400e-01
5.784986e-01
5.776952e-01
5.767391e-01
5.757308e-01
5.747449e-01
5.738272e-01
0.000000e+00
1.000000e+00
5.737359e-01
5.745523e-01
5.754294e-01
5.763264e-01
5.771769e-01
5.778917e-01
5.783734e-01
5.785439e-01
5.783734e-01
5.778917e-01
5.771769e-01
5.763264e-01
5.754294e-01
5.745523e-01
5.737359e-01
0.000000e+00
1.000000e+00
5.736306e-01
5.743301e-01
5.750816e-01
5.758503e-01
5.765791e-01
5.771915e-01
5.776042e-01
5.777504e-01
5.776042e-01
5.771915e-01
5.765791e-01
5.758503e-01
5.750816e-01
5.743301e-01
5.736306e-01
0.000000e+00
1.000000e+00
5.735158e-01
5.740881e-01
5.747029e-01
5.753316e-01
5.759279e-01
5.764289e-01
5.767665e-01
5.768860e-01
5.767665e-01
5.764289e-01
5.759279e-01
5.753316e-01
5.747029e-01
5.740881e-01
5.735158e-01
0.000000e+00
1.000000e+00
5.733980e-01
5.738395e-01
5.743138e-01
5.747989e-01
5.752589e-01
5.756455e-01
5.759059e-01
5.759982e-01
5.759059e-01
5.756455e-01
5.752589e-01
5.747989e-01
5.743138e-01
5.738395e-01
5.733980e-01
0.000000e+00
1.000000e+00
5.732844e-01
5.735999e-01
5.739389e-01
5.742855e-01
5.746142e-01
5.748904e-01
5.750766e-01
5.751425e-01
5.750766e-01
5.748904e-01
5.746142e-01
5.742855e-01
5.739389e-01
5.735999e-01
5.732844e-01
0.000000e+00
1.000000e+00
5.731827e-01
5.733854e-01
5.736031e-01
5.738258e-01
5.740369e-01
5.742144e-01
5.743339e-01
5.743763e-01
5.743339e-01
5.742144e-01
5.740369e-01
5.738258e-01
5.736031e-01
5.733854e-01
5.731827e-01
0.000000e+00
1.000000e+00
5.730996e-01
5.732101e-01
5.733288e-01
5.734503e-01
5.735654e-01
5.736621e-01
5.737273e-01
5.737504e-01
5.737273e-01
5.736621e-01
5.735654e-01
5.734503e-01
5.733288e-01
5.732101e-01
5.730996e-01
0.000000e+00
1.000000e+00
5.730402e-01
5.730847e-01
5.731325e-01
5.731814e-01
5.732278e-01
5.732668e-01
5.732931e-01
5.733024e-01
5.732931e-01
5.732668e-01
5.732278e-01
5.731814e-01
5.731325e-01
5.730847e-01
5.730402e-01
0.000000e+00
1.000000e+00
5.730068e-01
5.730144e-01
5.730226e-01
5.730309e-01
5.730388e-01
5.730454e-01
5.730499e-01
5.730514e-01
5.730499e-01
5.730454e-01
5.730388e-01
5.730309e-01
5.730226e-01
5.730144e-01
5.730068e-01
0.000000e+00
1.000000e+00
5.729997e-01
5.729994e-01
5.729990e-01
5.729987e-01
5.729983e-01
5.729980e-01
5.729979e-01
5.729978e-01
5.729979e-01
5.729980e-01
5.729983e-01
5.729987e-01
5.729990e-01
5.729994e-01
5.729997e-01
0.000000e+00
1.000000e+00
5.730166e-01
5.730350e-01
5.730548e-01
5.730750e-01
5.730942e-01
5.731103e-01
5.731211e-01
5.731250e-01
5.731211e-01
5.731103e-01
5.730942e-01
5.730750e-01
5.730548e-01
5.730350e-01
5.730166e-01
0.000000e+00
1.000000e+00
5.730537e-01
5.731134e-01
5.731774e-01
5.732429e-01
5.733050e-01
5.733572e-01
5.733923e-01
5.734048e-01
5.733923e-01
5.733572e-01
5.733050e-01
5.732429e-01
5.731774e-01
5.731134e-01
5.730537e-01
0.000000e+00
1.000000e+00
5.731066e-01
5.732248e-01
5.733518e-01
5.734817e-01
5.736049e-01
5.737084e-01
5.737781e-01
5.738028e-01
5.737781e-01
5.737084e-01
5.736049e-01
5.734817e-01
5.733518e-01
5.732248e-01
5.731066e-01
0.000000e+00
1.000000e+00
5.731704e-01
5.733594e-01
5.735624e-01
5.737701e-01
5.739670e-01
5.741324e-01
5.742439e-01
5.742834e-01
5.742439e-01
5.741324e-01
5.739670e-01
5.737701e-01
5.735624e-01
5.733594e-01
5.731704e-01
0.000000e+00
1.000000e+00
5.739370e-01
5.749765e-01
5.760932e-01
5.772353e-01
5.783183e-01
5.792284e-01
5.798416e-01
5.800588e-01
5.798416e-01
5.792284e-01
5.783183e-01
5.772353e-01
5.760932e-01
5.749765e-01
5.739370e-01
0.000000e+00
1.000000e+00
5.738835e-01
5.748635e-01
5.759164e-01
5.769933e-01
5.780144e-01
5.788724e-01
5.794506e-01
5.796554e-01
5.794506e-01
5.788724e-01
5.780144e-01
5.769933e-01
5.759164e-01
5.748636e-01
5.738835e-01
0.000000e+00
1.000000e+00
5.738115e-01
5.747117e-01
5.756788e-01
5.766679e-01
5.776058e-01
5.783940e-01
5.789251e-01
5.791132e-01
5.789251e-01
5.783940e-01
5.776058e-01
5.766679e-01
5.756788e-01
5.747117e-01
5.738115e-01
0.000000e+00
1.000000e+00
5.737219e-01
5.745229e-01
5.753833e-01
5.762632e-01
5.770977e-01
5.777989e-01
5.782714e-01
5.784387e-01
5.782714e-01
5.777989e-01
5.770977e-01
5.762632e-01
5.753833e-01
5.745229e-01
5.737220e-01
0.000000e+00
1.000000e+00
5.736175e-01
5.743026e-01
5.750385e-01
5.757912e-01
5.765049e-01
5.771047e-01
5.775089e-01
5.776520e-01
5.775089e-01
5.771047e-01
5.765049e-01
5.757912e-01
5.750385e-01
5.743026e-01
5.736175e-01
0.000000e+00
1.000000e+00
5.735028e-01
5.740606e-01
5.746598e-01
5.752726e-01
5.758537e-01
5.763421e-01
5.766711e-01
5.767877e-01
5.766711e-01
5.763421e-01
5.758537e-01
5.752726e-01
5.746598e-01
5.740606e-01
5.735028e-01
0.000000e+00
1.000000e+00
5.733842e-01
5.738103e-01
5.742681e-01
5.747364e-01
5.751804e-01
5.755535e-01
5.758049e-01
5.758939e-01
5.758049e-01
5.755535e-01
5.751804e-01
5.747364e-01
5.742681e-01
5.738103e-01
5.733842e-01
0.000000e+00
1.000000e+00
5.732692e-01
5.735679e-01
5.738887e-01
5.742169e-01
5.745281e-01
5.747896e-01
5.749658e-01
5.750282e-01
5.749658e-01
5.747896e-01
5.745281e-01
5.742169e-01
5.738887e-01
5.735679e-01
5.732692e-01
0.000000e+00
1.000000e+00
5.731659e-01
5.733500e-01
5.735478e-01
5.737500e-01
5.739418e-01
5.741030e-01
5.742116e-01
5.742501e-01
5.742116e-01
5.741030e-01
5.739418e-01
5.737500e-01
5.735478e-01
5.733500e-01
5.731659e-01
0.000000e+00
1.000000e+00
5.730814e-01
5.731717e-01
5.732687e-01
5.733679e-01
5.734620e-01
5.735410e-01
5.735943e-01
5.736131e-01
5.735943e-01
5.735410e-01
5.734620e-01
5.733679e-01
5.732687e-01
5.731717e-01
5.730814e-01
0.000000e+00
1.000000e+00
5.730208e-01
5.730440e-01
5.730688e-01
5.730942e-01
5.731183e-01
5.731385e-01
5.731521e-01
5.731570e-01
5.731521e-01
5.731385e-01
5.731183e-01
5.730942e-01
5.730688e-01
5.730440e-01
5.730208e-01
0.000000e+00
1.000000e+00
5.729870e-01
5.729726e-01
5.729571e-01
5.729413e-01
5.729263e-01
5.729137e-01
5.729052e-01
5.729022e-01
5.729052e-01
5.729137e-01
5.729263e-01
5.729413e-01
5.729571e-01
5.729726e-01
5.729870e-01
0.000000e+00
1.000000e+00
5.729800e-01
5.729578e-01
5.729340e-01
5.729096e-01
5.728865e-01
5.728671e-01
5.728540e-01
5.728494e-01
5.728540e-01
5.728671e-01
5.728865e-01
5.729096e-01
5.729340e-01
5.729578e-01
5.729800e-01
0.000000e+00
1.000000e+00
5.729976e-01
5.729949e-01
5.729920e-01
5.729891e-01
5.729863e-01
5.729839e-01
5.729823e-01
5.729818e-01
5.729823e-01
5.729839e-01
5.729863e-01
5.729891e-01
5.729920e-01
5.729949e-01
5.729976e-01
0.000000e+00
1.000000e+00
5.730359e-01
5.730756e-01
5.731184e-01
5.731621e-01
5.732035e-01
5.732383e-01
5.732618e-01
5.732701e-01
5.732618e-01
5.732383e-01
5.732035e-01
5.731621e-01
5.731184e-01
5.730756e-01
5.730359e-01
0.000000e+00
1.000000e+00
5.730901e-01
5.731901e-01
5.732974e-01
5.734073e-01
5.735114e-01
5.735989e-01
5.736579e-01
5.736787e-01
5.736579e-01
5.735989e-01
5.735114e-01
5.734073e-01
5.732974e-01
5.731901e-01
5.730901e-01
0.000000e+00
1.000000e+00
5.731555e-01
5.733279e-01
5.735132e-01
5.737027e-01
5.738823e-01
5.740333e-01
5.741351e-01
5.741711e-01
5.741351e-01
5.740333e-01
5.738823e-01
5.737027e-01
5.735132e-01
5.733279e-01
5.731555e-01
0.000000e+00
1.000000e+00
5.738912e-01
5.748799e-01
5.759420e-01
5.770283e-01
5.780583e-01
5.789239e-01
5.795072e-01
5.797138e-01
5.795072e-01
5.789239e-01
5.780583e-01
5.770283e-01
5.759420e-01
5.748799e-01
5.738912e-01
0.000000e+00
1.000000e+00
5.738390e-01
5.747698e-01
5.757697e-01
5.767924e-01
5.777621e-01
5.785770e-01
5.791262e-01
5.793206e-01
5.791262e-01
5.785770e-01
5.777621e-01
5.767924e-01
5.757697e-01
5.747698e-01
5.738390e-01
0.000000e+00
1.000000e+00
5.737681e-01
5.746202e-01
5.755355e-01
5.764717e-01
5.773595e-01
5.781055e-01
5.786082e-01
5.787862e-01
5.786082e-01
5.781055e-01
5.773595e-01
5.764717e-01
5.755355e-01
5.746202e-01
5.737681e-01
0.000000e+00
1.000000e+00
5.736792e-01
5.744326e-01
5.752420e-01
5.760698e-01
5.768548e-01
5.775144e-01
5.779589e-01
5.781163e-01
5.779589e-01
5.775144e-01
5.768548e-01
5.760698e-01
5.752420e-01
5.744326e-01
5.736792e-01
0.000000e+00
1.000000e+00
5.735748e-01
5.742125e-01
5.748976e-01
5.755983e-01
5.762626e-01
5.768210e-01
5.771972e-01
5.773304e-01
5.771972e-01
5.768210e-01
5.762626e-01
5.755983e-01
5.748976e-01
5.742125e-01
5.735748e-01
0.000000e+00
1.000000e+00
5.734597e-01
5.739697e-01
5.745176e-01
5.750779e-01
5.756093e-01
5.760558e-01
5.763566e-01
5.764632e-01
5.763566e-01
5.760558e-01
5.756093e-01
5.750779e-01
5.745176e-01
5.739697e-01
5.734597e-01
0.000000e+00
1.000000e+00
5.733403e-01
5.737178e-01
5.741234e-01
5.745381e-01
5.749314e-01
5.752619e-01
5.754847e-01
5.755635e-01
5.754847e-01
5.752619e-01
5.749314e-01
5.745381e-01
5.741234e-01
5.737178e-01
5.733403e-01
0.000000e+00
1.000000e+00
5.732244e-01
5.734733e-01
5.737406e-01
5.740141e-01
5.742734e-01
5.744913e-01
5.746382e-01
5.746902e-01
5.746382e-01
5.744913e-01
5.742734e-01
5.740141e-01
5.737406e-01
5.734733e-01
5.732244e-01
0.000000e+00
1.000000e+00
5.731201e-01
5.732533e-01
5.733964e-01
5.735427e-01
5.736815e-01
5.737981e-01
5.738767e-01
5.739046e-01
5.738767e-01
5.737981e-01
5.736815e-01
5.735427e-01
5.733964e-01
5.732533e-01
5.731201e-01
0.000000e+00
1.000000e+00
5.730348e-01
5.730734e-01
5.731148e-01
5.731572e-01
5.731974e-01
5.732312e-01
5.732540e-01
5.732620e-01
5.732540e-01
5.732312e-01
5.731974e-01
5.731572e-01
5.731148e-01
5.730734e-01
5.730348e-01
0.000000e+00
1.000000e+00
5.729739e-01
5.729450e-01
5.729140e-01
5.728822e-01
5.728521e-01
5.728267e-01
5.728097e-01
5.728036e-01
5.728097e-01
5.728267e-01
5.728521e-01
5.728822e-01
5.729140e-01
5.729450e-01
5.729739e-01
0.000000e+00
1.000000e+00
5.729404e-01
5.728743e-01
5.728033e-01
5.727306e-01
5.726617e-01
5.726038e-01
5.725648e-01
5.725510e-01
5.725648e-01
5.726038e-01
5.726617e-01
5.727306e-01
5.728033e-01
5.728743e-01
5.729404e-01
0.000000e+00
1.000000e+00
5.729343e-01
5.728614e-01
5.727830e-01
5.727029e-01
5.726270e-01
5.725631e-01
5.725201e-01
5.725049e-01
5.725201e-01
5.725631e-01
5.726270e-01
5.727029e-01
5.727830e-01
5.728614e-01
5.729343e-01
0.000000e+00
1.000000e+00
5.729533e-01
5.729014e-01
5.728458e-01
5.727888e-01
5.727348e-01
5.726894e-01
5.726588e-01
5.726480e-01
5.726588e-01
5.726894e-01
5.727348e-01
5.727888e-01
5.728458e-01
5.729014e-01
5.729533e-01
0.000000e+00
1.000000e+00
5.729934e-01
5.729861e-01
5.729782e-01
5.729702e-01
5.729626e-01
5.729562e-01
5.729519e-01
5.729503e-01
5.729519e-01
5.729562e-01
5.729626e-01
5.729702e-01
5.729782e-01
5.729861e-01
5.729934e-01
0.000000e+00
1.000000e+00
5.730498e-01
5.731051e-01
5.731645e-01
5.732252e-01
5.732828e-01
5.733312e-01
5.733638e-01