<?xml version="1.0"?>
<VTKFile type="StructuredGrid" version="0.1">
  <StructuredGrid WholeExtent="0 16 0 16 0 16">
    <Piece Extent="0 16 0 16 0 16">
      <PointData Scalars="temperature" Vectors="velocity">
        <DataArray type="Float32" Name="temperature" format="ascii">
1.000000e+00
5.729667e-01
5.729298e-01
5.728902e-01
5.728496e-01
5.728112e-01
5.727788e-01
5.727571e-01
5.727494e-01
5.727571e-01
5.727788e-01
5.728112e-01
5.728496e-01
5.728902e-01
5.729298e-01
5.729667e-01
0.000000e+00
1.000000e+00
5.728875e-01
5.727627e-01
5.726287e-01
5.724915e-01
5.723615e-01
5.722523e-01
5.721786e-01
5.721526e-01
5.721786e-01
5.722523e-01
5.723615e-01
5.724915e-01
5.726287e-01
5.727627e-01
5.728875e-01
0.000000e+00
1.000000e+00
5.727960e-01
5.725697e-01
5.723266e-01
5.720779e-01
5.718422e-01
5.716440e-01
5.715105e-01
5.714632e-01
5.715105e-01
5.716440e-01
5.718422e-01
5.720779e-01
5.723266e-01
5.725697e-01
5.727960e-01
0.000000e+00
1.000000e+00
5.726943e-01
5.723551e-01
5.719907e-01
5.716180e-01
5.712646e-01
5.709676e-01
5.707675e-01
5.706966e-01
5.707675e-01
5.709676e-01
5.712646e-01
5.716180e-01
5.719907e-01
5.723551e-01
5.726943e-01
0.000000e+00
1.000000e+00
5.725854e-01
5.721255e-01
5.716314e-01
5.711261e-01
5.706469e-01
5.702443e-01
5.699730e-01
5.698769e-01
5.699730e-01
5.702443e-01
5.706469e-01
5.711261e-01
5.716314e-01
5.721255e-01
5.725854e-01
0.000000e+00
1.000000e+00
5.724739e-01
5.718902e-01
5.712632e-01
5.706219e-01
5.700138e-01
5.695028e-01
5.691585e-01
5.690365e-01
5.691585e-01
5.695028e-01
5.700138e-01
5.706219e-01
5.712632e-01
5.718902e-01
5.724739e-01
0.000000e+00
1.000000e+00
5.723649e-01
5.716602e-01
5.709032e-01
5.701290e-01
5.693949e-01
5.687780e-01
5.683623e-01
5.682150e-01
5.683623e-01
5.687780e-01
5.693949e-01
5.701290e-01
5.709032e-01
5.716602e-01
5.723649e-01
0.000000e+00
1.000000e+00
5.722640e-01
5.714475e-01
5.705704e-01
5.696733e-01
5.688226e-01
5.681078e-01
5.676261e-01
5.674555e-01
5.676261e-01
5.681078e-01
5.688226e-01
5.696733e-01
5.705704e-01
5.714475e-01
5.722640e-01
0.000000e+00
1.000000e+00
5.721770e-01
5.712640e-01
5.702832e-01
5.692801e-01
5.683289e-01
5.675296e-01
5.669910e-01
5.668002e-01
5.669910e-01
5.675296e-01
5.683289e-01
5.692801e-01
5.702832e-01
5.712640e-01
5.721770e-01
0.000000e+00
1.000000e+00
5.721088e-01
5.711201e-01
5.700580e-01
5.689717e-01
5.679417e-01
5.670761e-01
5.664928e-01
5.662863e-01
5.664928e-01
5.670761e-01
5.679417e-01
5.689717e-01
5.700580e-01
5.711201e-01
5.721088e-01
0.000000e+00
1.000000e+00
5.720630e-01
5.710235e-01
5.699068e-01
5.687647e-01
5.676817e-01
5.667716e-01
5.661584e-01
5.659412e-01
5.661584e-01
5.667716e-01
5.676817e-01
5.687647e-01
5.699068e-01
5.710235e-01
5.720630e-01
0.000000e+00
1.000000e+00
5.720417e-01
5.709785e-01
5.698363e-01
5.686682e-01
5.675605e-01
5.666297e-01
5.660025e-01
5.657803e-01
5.660025e-01
5.666297e-01
5.675605e-01
5.686682e-01
5.698363e-01
5.709785e-01
5.720417e-01
0.000000e+00
1.000000e+00
5.720450e-01
5.709856e-01
5.698475e-01
5.686835e-01
5.675797e-01
5.666521e-01
5.660271e-01
5.658058e-01
5.660271e-01
5.666521e-01
5.675797e-01
5.686835e-01
5.698475e-01
5.709856e-01
5.720450e-01
0.000000e+00
1.000000e+00
5.720718e-01
5.710421e-01
5.699359e-01
5.688045e-01
5.677317e-01
5.668302e-01
5.662227e-01
5.660076e-01
5.662227e-01
5.668302e-01
5.677317e-01
5.688045e-01
5.699359e-01
5.710421e-01
5.720718e-01
0.000000e+00
1.000000e+00
5.721194e-01
5.711425e-01
5.700930e-01
5.690197e-01
5.680019e-01
5.671466e-01
5.665703e-01
5.663662e-01
5.665703e-01
5.671466e-01
5.680019e-01
5.690197e-01
5.700930e-01
5.711425e-01
5.721194e-01
0.000000e+00
1.000000e+00
5.721844e-01
5.712796e-01
5.703075e-01
5.693134e-01
5.683707e-01
5.675785e-01
5.670447e-01
5.668556e-01
5.670447e-01
5.675785e-01
5.683707e-01
5.693134e-01
5.703075e-01
5.712796e-01
5.721844e-01
0.000000e+00
1.000000e+00
5.722629e-01
5.714452e-01
5.705667e-01
5.696682e-01
5.688162e-01
5.681003e-01
5.676179e-01
5.674470e-01
5.676179e-01
5.681003e-01
5.688162e-01
5.696682e-01
5.705667e-01
5.714452e-01
5.722629e-01
0.000000e+00
1.000000e+00
5.729054e-01
5.728004e-01
5.726876e-01
5.725722e-01
5.724628e-01
5.723709e-01
5.723090e-01
5.722870e-01
5.723090e-01
5.723709e-01
5.724628e-01
5.725722e-01
5.726876e-01
5.728004e-01
5.729054e-01
0.000000e+00
1.000000e+00
5.728243e-01
5.726293e-01
5.724199e-01
5.722056e-01
5.720025e-01
5.718318e-01
5.717168e-01
5.716761e-01
5.717168e-01
5.718318e-01
5.720025e-01
5.722056e-01
5.724199e-01
5.726293e-01
5.728243e-01
0.000000e+00
1.000000e+00
5.727307e-01
5.724319e-01
5.721109e-01
5.717826e-01
5.714712e-01
5.712096e-01
5.710334e-01
5.709709e-01
5.710334e-01
5.712096e-01
5.714712e-01
5.717826e-01
5.721109e-01
5.724319e-01
5.727307e-01
0.000000e+00
1.000000e+00
5.726267e-01
5.722126e-01
5.717678e-01
5.713128e-01
5.708814e-01
5.705188e-01
5.702745e-01
5.701880e-01
5.702745e-01
5.705188e-01
5.708814e-01
5.713128e-01
5.717678e-01
5.722126e-01
5.726267e-01
0.000000e+00
1.000000e+00
5.725159e-01
5.719789e-01
5.714020e-01
5.708120e-01
5.702525e-01
5.697823e-01
5.694655e-01
5.693533e-01
5.694655e-01
5.697823e-01
5.702525e-01
5.708120e-01
5.714020e-01
5.719789e-01
5.725159e-01
0.000000e+00
1.000000e+00
5.724030e-01
5.717406e-01
5.710291e-01
5.703013e-01
5.696113e-01
5.690314e-01
5.686406e-01
5.685022e-01
5.686406e-01
5.690314e-01
5.696113e-01
5.703013e-01
5.710291e-01
5.717406e-01
5.724030e-01
0.000000e+00
1.000000e+00
5.722935e-01
5.715097e-01
5.706678e-01
5.698066e-01
5.689900e-01
5.683038e-01
5.678415e-01
5.676777e-01
5.678415e-01
5.683038e-01
5.689900e-01
5.698066e-01
5.706678e-01
5.715097e-01
5.722935e-01
0.000000e+00
1.000000e+00
5.721938e-01
5.712994e-01
5.703385e-01
5.693558e-01
5.684239e-01
5.676409e-01
5.671132e-01
5.669263e-01
5.671132e-01
5.676409e-01
5.684239e-01
5.693558e-01
5.703385e-01
5.712994e-01
5.721938e-01
0.000000e+00
1.000000e+00
5.721098e-01
5.711222e-01
5.700612e-01
5.689761e-01
5.679472e-01
5.670825e-01
5.664999e-01
5.662935e-01
5.664999e-01
5.670825e-01
5.679472e-01
5.689761e-01
5.700612e-01
5.711222e-01
5.721098e-01
0.000000e+00
1.000000e+00
5.720467e-01
5.709891e-01
5.698530e-01
5.686909e-01
5.675891e-01
5.666632e-01
5.660392e-01
5.658183e-01
5.660392e-01
5.666632e-01
5.675891e-01
5.686909e-01
5.698530e-01
5.709891e-01
5.720467e-01
0.000000e+00
1.000000e+00
5.720082e-01
5.709079e-01
5.697259e-01
5.685169e-01
5.673706e-01
5.664073e-01
5.657582e-01
5.655283e-01
5.657582e-01
5.664073e-01
5.673706e-01
5.685169e-01
5.697259e-01
5.709079e-01
5.720082e-01
0.000000e+00
1.000000e+00
5.719961e-01
5.708824e-01
5.696859e-01
5.684623e-01
5.673019e-01
5.663269e-01
5.656698e-01
5.654371e-01
5.656698e-01
5.663269e-01
5.673019e-01
5.684623e-01
5.696859e-01
5.708824e-01
5.719961e-01
0.000000e+00
1.000000e+00
5.720103e-01
5.709122e-01
5.697326e-01
5.685262e-01
5.673822e-01
5.664209e-01
5.657731e-01
5.655437e-01
5.657731e-01
5.664209e-01
5.673822e-01
5.685262e-01
5.697326e-01
5.709122e-01
5.720103e-01
0.000000e+00
1.000000e+00
5.720487e-01
5.709934e-01
5.698597e-01
5.687001e-01
5.676006e-01
5.666767e-01
5.660541e-01
5.658336e-01
5.660541e-01
5.666767e-01
5.676006e-01
5.687001e-01
5.698597e-01
5.709934e-01
5.720487e-01
0.000000e+00
1.000000e+00
5.721083e-01
5.711191e-01
5.700564e-01
5.689695e-01
5.679389e-01
5.670728e-01
5.664892e-01
5.662825e-01
5.664892e-01
5.670728e-01
5.679389e-01
5.689695e-01
5.700564e-01
5.711191e-01
5.721083e-01
0.000000e+00
1.000000e+00
5.721850e-01
5.712808e-01
5.703095e-01
5.693160e-01
5.683740e-01
5.675824e-01
5.670489e-01
5.668600e-01
5.670489e-01
5.675824e-01
5.683740e-01
5.693160e-01
5.703095e-01
5.712808e-01
5.721850e-01
0.000000e+00
1.000000e+00
5.722744e-01
5.714694e-01
5.706046e-01
5.697201e-01
5.688814e-01
5.681766e-01
5.677017e-01
5.675335e-01
5.677017e-01
5.681766e-01
5.688814e-01
5.697201e-01
5.706046e-01
5.714694e-01
5.722744e-01
0.000000e+00
1.000000e+00
5.728547e-01
5.726934e-01
5.725202e-01
5.723431e-01
5.721751e-01
5.720339e-01
5.719388e-01
5.719051e-01
5.719388e-01
5.720339e-01
5.721751e-01
5.723431e-01
5.725202e-01
5.726934e-01
5.728547e-01
0.000000e+00
1.000000e+00
5.727726e-01
5.725202e-01
5.722492e-01
5.719719e-01
5.717090e-01
5.714881e-01
5.713393e-01
5.712865e-01
5.713393e-01
5.714881e-01
5.717090e-01
5.719719e-01
5.722492e-01
5.725202e-01
5.727726e-01
0.000000e+00
1.000000e+00
5.726778e-01
5.723203e-01
5.719363e-01
5.715436e-01
5.711711e-01
5.708582e-01
5.706473e-01
5.705726e-01
5.706473e-01
5.708582e-01
5.711711e-01
5.715436e-01
5.719363e-01
5.723203e-01
5.726778e-01
0.000000e+00
1.000000e+00
5.725727e-01
5.720986e-01
5.715892e-01
5.710683e-01
5.705744e-01
5.701593e-01
5.698796e-01
5.697806e-01
5.698796e-01
5.701593e-01
5.705744e-01
5.710683e-01
5.715892e-01
5.720986e-01
5.725727e-01
0.000000e+00
1.000000e+00
5.724608e-01
5.718627e-01
5.712201e-01
5.705629e-01
5.699397e-01
5.694160e-01
5.690631e-01
5.689382e-01
5.690631e-01
5.694160e-01
5.699397e-01
5.705629e-01
5.712201e-01
5.718627e-01
5.724608e-01
0.000000e+00
1.000000e+00
5.723474e-01
5.716233e-01
5.708455e-01
5.700500e-01
5.692957e-01
5.686618e-01
5.682346e-01
5.680834e-01
5.682346e-01
5.686618e-01
5.692957e-01
5.700500e-01
5.708455e-01
5.716233e-01
5.723474e-01
0.000000e+00
1.000000e+00
5.722384e-01
5.713934e-01
5.704857e-01
5.695573e-01
5.686769e-01
5.679372e-01
5.674387e-01
5.672621e-01
5.674387e-01
5.679372e-01
5.686769e-01
5.695573e-01
5.704857e-01
5.713934e-01
5.722384e-01
0.000000e+00
1.000000e+00
5.721404e-01
5.711868e-01
5.701624e-01
5.691146e-01
5.681211e-01
5.672862e-01
5.667237e-01
5.665244e-01
5.667237e-01
5.672862e-01
5.681211e-01
5.691146e-01
5.701624e-01
5.711868e-01
5.721404e-01
0.000000e+00
1.000000e+00
5.720600e-01
5.710171e-01
5.698968e-01
5.687510e-01
5.676646e-01
5.667515e-01
5.661363e-01
5.659184e-01
5.661363e-01
5.667515e-01
5.676646e-01
5.687510e-01
5.698968e-01
5.710171e-01
5.720600e-01
0.000000e+00
1.000000e+00
5.720024e-01
5.708957e-01
5.697068e-01
5.684908e-01
5.673377e-01
5.663688e-01
5.657159e-01
5.654846e-01
5.657159e-01
5.663688e-01
5.673377e-01
5.684908e-01
5.697068e-01
5.708957e-01
5.720024e-01
0.000000e+00
1.000000e+00
5.719714e-01
5.708302e-01
5.696042e-01
5.683504e-01
5.671614e-01
5.661623e-01
5.654891e-01
5.652506e-01
5.654891e-01
5.661623e-01
5.671614e-01
5.683504e-01
5.696042e-01
5.708302e-01
5.719714e-01
0.000000e+00
1.000000e+00
5.719684e-01
5.708238e-01
5.695943e-01
5.683368e-01
5.671444e-01
5.661423e-01
5.654671e-01
5.652280e-01
5.654671e-01
5.661423e-01
5.671444e-01
5.683368e-01
5.695943e-01
5.708238e-01
5.719683e-01
0.000000e+00
1.000000e+00
5.719928e-01
5.708754e-01
5.696750e-01
5.684473e-01
5.672831e-01
5.663048e-01
5.656456e-01
5.654121e-01
5.656456e-01
5.663048e-01
5.672831e-01
5.684473e-01
5.696750e-01
5.708754e-01
5.719928e-01
0.000000e+00
1.000000e+00
5.720422e-01
5.709796e-01
5.698380e-01
5.686705e-01
5.675634e-01
5.666331e-01
5.660062e-01
5.657842e-01
5.660062e-01
5.666331e-01
5.675634e-01
5.686705e-01
5.698380e-01
5.709796e-01
5.720422e-01
0.000000e+00
1.000000e+00
5.721127e-01
5.711282e-01
5.700707e-01
5.689891e-01
5.679635e-01
5.671017e-01
5.665209e-01
5.663152e-01
5.665209e-01
5.671017e-01
5.679635e-01
5.689891e-01
5.700707e-01
5.711282e-01
5.721127e-01
0.000000e+00
1.000000e+00
5.721997e-01
5.713118e-01
5.703580e-01
5.693824e-01
5.684574e-01
5.676800e-01
5.671562e-01
5.669707e-01
5.671562e-01
5.676800e-01
5.684574e-01
5.693824e-01
5.703580e-01
5.713118e-01
5.721997e-01
0.000000e+00
1.000000e+00
5.722984e-01
5.715201e-01
5.706840e-01
5.698289e-01
5.690180e-01
5.683366e-01
5.678774e-01
5.677148e-01
5.678774e-01
5.683366e-01
5.690180e-01
5.698289e-01
5.706840e-01
5.715201e-01
5.722984e-01
0.000000e+00
1.000000e+00
5.728184e-01
5.726169e-01
5.724005e-01
5.721791e-01
5.719692e-01
5.717928e-01
5.716739e-01
5.716318e-01
5.716739e-01
5.717928e-01
5.719692e-01
5.721791e-01
5.724005e-01
5.726169e-01
5.728184e-01
0.000000e+00
1.000000e+00
5.727365e-01
5.724442e-01
5.721301e-01
5.718089e-01
5.715044e-01
5.712484e-01
5.710760e-01
5.710149e-01
5.710760e-01
5.712484e-01
5.715044e-01
5.718089e-01
5.721301e-01
5.724442e-01
5.727365e-01
0.000000e+00
1.000000e+00
5.726419e-01
5.722446e-01
5.718177e-01
5.713812e-01
5.709673e-01
5.706194e-01
5.703850e-01
5.703020e-01
5.703850e-01
5.706194e-01
5.709673e-01
5.713812e-01
5.718177e-01
5.722446e-01
5.726419e-01
0.000000e+00
1.000000e+00
5.725369e-01
5.720231e-01
5.714711e-01
5.709066e-01
5.703712e-01
5.699214e-01
5.696183e-01
5.695109e-01
5.696183e-01
5.699214e-01
5.703712e-01
5.709066e-01
5.714711e-01
5.720231e-01
5.725369e-01
0.000000e+00
1.000000e+00
5.724253e-01
5.717878e-01
5.711029e-01
5.704024e-01
5.697382e-01
5.691800e-01
5.688039e-01
5.686706e-01
5.688039e-01
5.691800e-01
5.697382e-01
5.704024e-01
5.711029e-01
5.717878e-01
5.724253e-01
0.000000e+00
1.000000e+00
5.723126e-01
5.715499e-01
5.707306e-01
5.698927e-01
5.690981e-01
5.684304e-01
5.679805e-01
5.678211e-01
5.679805e-01
5.684304e-01
5.690981e-01
5.698927e-01
5.707306e-01
5.715499e-01
5.723126e-01
0.000000e+00
1.000000e+00
5.722050e-01
5.713230e-01
5.703756e-01
5.694065e-01
5.684877e-01
5.677155e-01
5.671952e-01
5.670109e-01
5.671952e-01
5.677155e-01
5.684877e-01
5.694065e-01
5.703756e-01
5.713230e-01
5.722050e-01
0.000000e+00
1.000000e+00
5.721097e-01
5.711219e-01
5.700608e-01
5.689756e-01
5.679465e-01
5.670817e-01
5.664990e-01
5.662926e-01
5.664990e-01
5.670817e-01
5.679465e-01
5.689756e-01
5.700608e-01
5.711219e-01
5.721097e-01
0.000000e+00
1.000000e+00
5.720332e-01
5.709607e-01
5.698085e-01
5.686300e-01
5.675126e-01
5.665736e-01
5.659409e-01
5.657168e-01
5.659409e-01
5.665736e-01
5.675126e-01
5.686300e-01
5.698085e-01
5.709607e-01
5.720332e-01
0.000000e+00
1.000000e+00
5.719812e-01
5.708510e-01
5.696368e-01
5.683949e-01
5.672174e-01
5.662278e-01
5.655610e-01
5.653249e-01
5.655610e-01
5.662278e-01
5.672174e-01
5.683949e-01
5.696368e-01
5.708509e-01
5.719812e-01
0.000000e+00
1.000000e+00
5.719572e-01
5.708003e-01
5.695575e-01
5.682865e-01
5.670812e-01
5.660683e-01
5.653858e-01
5.651441e-01
5.653858e-01
5.660683e-01
5.670812e-01
5.682865e-01
5.695575e-01
5.708003e-01
5.719572e-01
0.000000e+00
1.000000e+00
5.719625e-01
5.708115e-01
5.695750e-01
5.683104e-01
5.671113e-01
5.661036e-01
5.654245e-01
5.651840e-01
5.654245e-01
5.661036e-01
5.671113e-01
5.683104e-01
5.695750e-01
5.708115e-01
5.719625e-01
0.000000e+00
1.000000e+00
5.719960e-01
5.708822e-01
5.696857e-01
5.684619e-01
5.673015e-01
5.663264e-01
5.656693e-01
5.654366e-01
5.656693e-01
5.663264e-01
5.673015e-01
5.684619e-01
5.696857e-01
5.708822e-01
5.719960e-01
0.000000e+00
1.000000e+00
5.720548e-01
5.710061e-01
5.698795e-01
5.687273e-01
5.676348e-01
5.667167e-01
5.660980e-01
5.658789e-01
5.660980e-01
5.667167e-01
5.676348e-01
5.687273e-01
5.698795e-01
5.710061e-01
5.720547e-01
0.000000e+00
1.000000e+00
5.721343e-01
5.711738e-01
5.701420e-01
5.690868e-01
5.680861e-01
5.672452e-01
5.666786e-01
5.664779e-01
5.666786e-01
5.672452e-01
5.680861e-01
5.690868e-01
5.701420e-01
5.711738e-01
5.721343e-01
0.000000e+00
1.000000e+00
5.722295e-01
5.713748e-01
5.704566e-01
5.695174e-01
5.686269e-01
5.678786e-01
5.673743e-01
5.671957e-01
5.673743e-01
5.678786e-01
5.686269e-01
5.695174e-01
5.704566e-01
5.713748e-01
5.722295e-01
0.000000e+00
1.000000e+00
5.723355e-01
5.715983e-01
5.708063e-01
5.699963e-01
5.692282e-01
5.685828e-01
5.681479e-01
5.679938e-01
5.681479e-01
5.685828e-01
5.692282e-01
5.699963e-01
5.708063e-01
5.715983e-01
5.723355e-01
0.000000e+00
1.000000e+00
5.728000e-01
5.725782e-01
5.723399e-01
5.720961e-01
5.718650e-01
5.716708e-01
5.715399e-01
5.714936e-01
5.715399e-01
5.716708e-01
5.718650e-01
5.720961e-01
5.723399e-01
5.725782e-01
5.728000e-01
0.000000e+00
1.000000e+00
5.727200e-01
5.724093e-01
5.720755e-01
5.717342e-01
5.714105e-01
5.711385e-01
5.709552e-01
5.708903e-01
5.709552e-01
5.711385e-01
5.714105e-01
5.717342e-01
5.720755e-01
5.724093e-01
5.727200e-01
0.000000e+00
1.000000e+00
5.726271e-01
5.722135e-01
5.717691e-01
5.713146e-01
5.708837e-01
5.705215e-01
5.702775e-01
5.701910e-01
5.702775e-01
5.705215e-01
5.708837e-01
5.713146e-01
5.717691e-01
5.722135e-01
5.726271e-01
0.000000e+00
1.000000e+00
5.725240e-01
5.719958e-01
5.714285e-01
5.708482e-01
5.702980e-01
5.698356e-01
5.695240e-01
5.694136e-01
5.695240e-01
5.698356e-01
5.702980e-01
5.708482e-01
5.714285e-01
5.719958e-01
5.725240e-01
0.000000e+00
1.000000e+00
5.724143e-01
5.717646e-01
5.710665e-01
5.703526e-01
5.696757e-01
5.691068e-01
5.687235e-01
5.685877e-01
5.687235e-01
5.691068e-01
5.696757e-01
5.703526e-01
5.710665e-01
5.717646e-01
5.724143e-01
0.000000e+00
1.000000e+00
5.723037e-01
5.715312e-01
5.707014e-01
5.698526e-01
5.690478e-01
5.683715e-01
5.679158e-01
5.677544e-01
5.679158e-01
5.683715e-01
5.690478e-01
5.698526e-01
5.707014e-01
5.715312e-01
5.723037e-01
0.000000e+00
1.000000e+00
5.721988e-01
5.713099e-01
5.703550e-01
5.693783e-01
5.684522e-01
5.676740e-01
5.671496e-01
5.669639e-01
5.671496e-01
5.676740e-01
5.684522e-01
5.693783e-01
5.703550e-01
5.713099e-01
5.721988e-01
0.000000e+00
1.000000e+00
5.721068e-01
5.711158e-01
5.700512e-01
5.689624e-01
5.679299e-01
5.670623e-01
5.664777e-01
5.662706e-01
5.664777e-01
5.670623e-01
5.679299e-01
5.689624e-01
5.700512e-01
5.711158e-01
5.721067e-01
0.000000e+00
1.000000e+00
5.720345e-01
5.709634e-01
5.698128e-01
5.686360e-01
5.675201e-01
5.665823e-01
5.659504e-01
5.657266e-01
5.659504e-01
5.665823e-01
5.675201e-01
5.686360e-01
5.698128e-01
5.709634e-01
5.720345e-01
0.000000e+00
1.000000e+00
5.719877e-01
5.708647e-01
5.696583e-01
5.684245e-01
5.672545e-01
5.662713e-01
5.656087e-01
5.653741e-01
5.656087e-01
5.662713e-01
5.672545e-01
5.684245e-01
5.696583e-01
5.708647e-01
5.719877e-01
0.000000e+00
1.000000e+00
5.719699e-01
5.708271e-01
5.695994e-01
5.683437e-01
5.671531e-01
5.661525e-01
5.654783e-01
5.652395e-01
5.654783e-01
5.661525e-01
5.671531e-01
5.683437e-01
5.695994e-01
5.708271e-01
5.719699e-01
0.000000e+00
1.000000e+00
5.719820e-01
5.708526e-01
5.696393e-01
5.683984e-01
5.672217e-01
5.662329e-01
5.655666e-01
5.653306e-01
5.655666e-01
5.662329e-01
5.672217e-01
5.683984e-01
5.696393e-01
5.708526e-01
5.719820e-01
0.000000e+00
1.000000e+00
5.720226e-01
5.709382e-01
5.697733e-01
5.685819e-01
5.674521e-01
5.665027e-01
5.658630e-01
5.656364e-01
5.658630e-01
5.665027e-01
5.674521e-01
5.685819e-01
5.697733e-01
5.709382e-01
5.720226e-01
0.000000e+00
1.000000e+00
5.720882e-01
5.710766e-01
5.699899e-01
5.688785e-01
5.678246e-01
5.669390e-01
5.663422e-01
5.661309e-01
5.663422e-01
5.669390e-01
5.678246e-01
5.688785e-01
5.699899e-01
5.710766e-01
5.720882e-01
0.000000e+00
1.000000e+00
5.721741e-01
5.712578e-01
5.702734e-01
5.692667e-01
5.683121e-01
5.675098e-01
5.669693e-01
5.667778e-01
5.669693e-01
5.675098e-01
5.683121e-01
5.692667e-01
5.702734e-01
5.712578e-01
5.721741e-01
0.000000e+00
1.000000e+00
5.722748e-01
5.714703e-01
5.706060e-01
5.697221e-01
5.688839e-01
5.681795e-01
5.677049e-01
5.675368e-01
5.677049e-01
5.681795e-01
5.688839e-01
5.697221e-01
5.706060e-01
5.714703e-01
5.722748e-01
0.000000e+00
1.000000e+00
5.723851e-01
5.717030e-01
5.709702e-01
5.702207e-01
5.695100e-01
5.689128e-01
5.685104e-01
5.683678e-01
5.685104e-01
5.689128e-01
5.695100e-01
5.702207e-01
5.709702e-01
5.717030e-01
5.723851e-01
0.000000e+00
1.000000e+00
5.728025e-01
5.725834e-01
5.723480e-01
5.721073e-01
5.718790e-01
5.716872e-01
5.715579e-01
5.715122e-01
5.715579e-01
5.716872e-01
5.718790e-01
5.721073e-01
5.723480e-01
5.725834e-01
5.728025e-01
0.000000e+00
1.000000e+00
5.727261e-01
5.724222e-01
5.720958e-01
5.717619e-01
5.714453e-01
5.711792e-01
5.710000e-01
5.709365e-01
5.710000e-01
5.711792e-01
5.714453e-01
5.717619e-01
5.720958e-01
5.724222e-01
5.727261e-01
0.000000e+00
1.000000e+00
5.726370e-01
5.722343e-01
5.718017e-01
5.713593e-01
5.709397e-01
5.705872e-01
5.703496e-01
5.702655e-01
5.703496e-01
5.705872e-01
5.709397e-01
5.713593e-01
5.718017e-01
5.722343e-01
5.726370e-01
0.000000e+00
1.000000e+00
5.725376e-01
5.720246e-01
5.714735e-01
5.709099e-01
5.703754e-01
5.699263e-01
5.696236e-01
5.695164e-01
5.696236e-01
5.699263e-01
5.703754e-01
5.709099e-01
5.714735e-01
5.720246e-01
5.725376e-01
0.000000e+00
1.000000e+00
5.724317e-01
5.718013e-01
5.711240e-01
5.704313e-01
5.697744e-01
5.692224e-01
5.688505e-01
5.687188e-01
5.688505e-01
5.692224e-01
5.697744e-01
5.704313e-01
5.711240e-01
5.718013e-01
5.724317e-01
0.000000e+00
1.000000e+00
5.723249e-01
5.715758e-01
5.707712e-01
5.699482e-01
5.691678e-01
5.685121e-01
5.680702e-01
5.679137e-01
5.680702e-01
5.685121e-01
5.691678e-01
5.699482e-01
5.707712e-01
5.715758e-01
5.723248e-01
0.000000e+00
1.000000e+00
5.722237e-01
5.713625e-01
5.704374e-01
5.694911e-01
5.685939e-01
5.678399e-01
5.673318e-01
5.671519e-01
5.673318e-01
5.678399e-01
5.685939e-01
5.694911e-01
5.704374e-01
5.713625e-01
5.722237e-01
0.000000e+00
1.000000e+00
5.721357e-01
5.711768e-01
5.701467e-01
5.690931e-01
5.680941e-01
5.672546e-01
5.666889e-01
5.664885e-01
5.666889e-01
5.672546e-01
5.680941e-01
5.690931e-01
5.701467e-01
5.711768e-01
5.721357e-01
0.000000e+00
1.000000e+00
5.720677e-01
5.710333e-01
5.699221e-01
5.687856e-01
5.677080e-01
5.668024e-01
5.661922e-01
5.659761e-01
5.661922e-01
5.668024e-01
5.677080e-01
5.687856e-01
5.699221e-01
5.710333e-01
5.720677e-01
0.000000e+00
1.000000e+00
5.720253e-01
5.709439e-01
5.697823e-01
5.685941e-01
5.674675e-01
5.665208e-01
5.658829e-01
5.656569e-01
5.658829e-01
5.665208e-01
5.674675e-01
5.685941e-01
5.697823e-01
5.709439e-01
5.720253e-01
0.000000e+00
1.000000e+00
5.720120e-01
5.709159e-01
5.697384e-01
5.685341e-01
5.673922e-01
5.664326e-01
5.657859e-01
5.655569e-01
5.657859e-01
5.664326e-01
5.673922e-01
5.685341e-01
5.697384e-01
5.709159e-01
5.720120e-01
0.000000e+00
1.000000e+00
5.720287e-01
5.709511e-01
5.697934e-01
5.686094e-01
5.674867e-01
5.665433e-01
5.659076e-01
5.656824e-01
5.659076e-01
5.665433e-01
5.674867e-01
5.686094e-01
5.697934e-01
5.709511e-01
5.720287e-01
0.000000e+00
1.000000e+00
5.720736e-01
5.710458e-01
5.699416e-01
5.688123e-01
5.677415e-01
5.668417e-01
5.662353e-01
5.660206e-01
5.662353e-01
5.668417e-01
5.677415e-01
5.688123e-01
5.699416e-01
5.710457e-01
5.720736e-01
0.000000e+00
1.000000e+00
5.721430e-01
5.711921e-01
5.701707e-01
5.691260e-01
5.681354e-01
5.673030e-01
5.667420e-01
5.665434e-01
5.667420e-01
5.673030e-01
5.681354e-01
5.691260e-01
5.701707e-01
5.711921e-01
5.721430e-01
0.000000e+00
1.000000e+00
5.722318e-01
5.713796e-01
5.704641e-01
5.695277e-01
5.686398e-01
5.678937e-01
5.673909e-01
5.672129e-01
5.673909e-01
5.678937e-01
5.686398e-01
5.695277e-01
5.704641e-01
5.713796e-01
5.722318e-01
0.000000e+00
1.000000e+00
5.723346e-01
5.715965e-01
5.708035e-01
5.699925e-01
5.692235e-01
5.685772e-01
5.681417e-01
5.679875e-01
5.681417e-01
5.685772e-01
5.692235e-01
5.699925e-01
5.708035e-01
5.715965e-01
5.723346e-01
0.000000e+00
1.000000e+00
5.724461e-01
5.718315e-01
5.711713e-01
5.704961e-01
5.698558e-01
5.693178e-01
5.689552e-01
5.688268e-01
5.689552e-01
5.693178e-01
5.698558e-01
5.704961e-01
5.711713e-01
5.718315e-01
5.724461e-01
0.000000e+00
1.000000e+00
5.728276e-01
5.726363e-01
5.724308e-01
5.722206e-01
5.720214e-01
5.718539e-01
5.717410e-01
5.717011e-01
5.717410e-01
5.718539e-01
5.720214e-01
5.722206e-01
5.724308e-01
5.726363e-01
5.728276e-01
0.000000e+00
1.000000e+00
5.727568e-01
5.724870e-01
5.721971e-01
5.719006e-01
5.716195e-01
5.713833e-01
5.712241e-01
5.711677e-01
5.712241e-01
5.713833e-01
5.716195e-01
5.719006e-01
5.721971e-01
5.724870e-01
5.727568e-01
0.000000e+00
1.000000e+00
5.726735e-01
5.723113e-01
5.719222e-01
5.715242e-01
5.711468e-01
5.708297e-01
5.706160e-01
5.705403e-01
5.706160e-01
5.708297e-01
5.711468e-01
5.715242e-01
5.719222e-01
5.723113e-01
5.726735e-01
0.000000e+00
1.000000e+00
5.725799e-01
5.721138e-01
5.716131e-01
5.711010e-01
5.706154e-01
5.702074e-01
5.699324e-01
5.698350e-01
5.699324e-01
5.702074e-01
5.706154e-01
5.711010e-01
5.716131e-01
5.721138e-01
5.725799e-01
0.000000e+00
1.000000e+00
5.724797e-01
5.719024e-01
5.712822e-01
5.706479e-01
5.700465e-01
5.695411e-01
5.692005e-01
5.690799e-01
5.692005e-01
5.695411e-01
5.700465e-01
5.706479e-01
5.712822e-01
5.719024e-01
5.724797e-01
0.000000e+00
1.000000e+00
5.723781e-01
5.716882e-01
5.709471e-01
5.701890e-01
5.694702e-01
5.688662e-01
5.684592e-01
5.683151e-01
5.684592e-01
5.688662e-01
5.694702e-01
5.701890e-01
5.709471e-01
5.716882e-01
5.723781e-01
0.000000e+00
1.000000e+00
5.722819e-01
5.714853e-01
5.706295e-01
5.697542e-01
5.689242e-01
5.682267e-01
5.677567e-01
5.675903e-01
5.677567e-01
5.682267e-01
5.689242e-01
5.697542e-01
5.706295e-01
5.714853e-01
5.722819e-01
0.000000e+00
1.000000e+00
5.721983e-01
5.713088e-01
5.703533e-01
5.693760e-01
5.684493e-01
5.676706e-01
5.671459e-01
5.669600e-01
5.671459e-01
5.676706e-01
5.684493e-01
5.693760e-01
5.703533e-01
5.713088e-01
5.721983e-01
0.000000e+00
1.000000e+00
5.721341e-01
5.711734e-01
5.701413e-01
5.690858e-01
5.680849e-01
5.672439e-01
5.666771e-01
5.664764e-01
5.666771e-01
5.672439e-01
5.680849e-01
5.690858e-01
5.701413e-01
5.711734e-01
5.721341e-01
0.000000e+00
1.000000e+00
5.720949e-01
5.710907e-01
5.700120e-01
5.689088e-01
5.678626e-01
5.669835e-01
5.663911e-01
5.661813e-01
5.663911e-01
5.669835e-01
5.678626e-01
5.689088e-01
5.700120e-01
5.710907e-01
5.720949e-01
0.000000e+00
1.000000e+00
5.720841e-01
5.710680e-01
5.699765e-01
5.688601e-01
5.678015e-01
5.669119e-01
5.663124e-01
5.661001e-01
5.663124e-01
5.669119e-01
5.678015e-01
5.688601e-01
5.699765e-01
5.710680e-01
5.720841e-01
0.000000e+00
1.000000e+00
5.721025e-01
5.711068e-01
5.700372e-01
5.689433e-01
5.679059e-01
5.670342e-01
5.664468e-01
5.662388e-01
5.664468e-01
5.670342e-01
5.679059e-01
5.689433e-01
5.700372e-01
5.711068e-01
5.721025e-01
0.000000e+00
1.000000e+00
5.721483e-01
5.712035e-01
5.701885e-01
5.691503e-01
5.681660e-01
5.673387e-01
5.667813e-01
5.665839e-01
5.667813e-01
5.673387e-01
5.681660e-01
5.691503e-01
5.701885e-01
5.712035e-01
5.721483e-01
0.000000e+00
1.000000e+00
5.722178e-01
5.713500e-01
5.704177e-01
5.694642e-01
5.685601e-01
5.678004e-01
5.672884e-01
5.671071e-01
5.672884e-01
5.678004e-01
5.685601e-01
5.694642e-01
5.704177e-01
5.713500e-01
5.722178e-01
0.000000e+00
1.000000e+00
5.723058e-01
5.715357e-01
5.707084e-01
5.698622e-01
5.690598e-01
5.683856e-01
5.679313e-01
5.677703e-01
5.679313e-01
5.683856e-01
5.690598e-01
5.698622e-01
5.707084e-01
5.715357e-01
5.723058e-01
0.000000e+00
1.000000e+00
5.724070e-01
5.717491e-01
5.710423e-01
5.703194e-01
5.696340e-01
5.690580e-01
5.686698e-01
5.685324e-01
5.686698e-01
5.690580e-01
5.696340e-01
5.703194e-01
5.710423e-01
5.717491e-01
5.724070e-01
0.000000e+00
1.000000e+00
5.725160e-01
5.719790e-01
5.714021e-01
5.708121e-01
5.702526e-01
5.697824e-01
5.694656e-01
5.693534e-01
5.694656e-01
5.697824e-01
5.702526e-01
5.708121e-01
5.714021e-01
5.719790e-01
5.725160e-01
0.000000e+00
1.000000e+00
5.728756e-01
5.727376e-01
5.725893e-01
5.724376e-01
5.722938e-01
5.721730e-01
5.720916e-01
5.720627e-01
5.720916e-01
5.721730e-01
5.722938e-01
5.724376e-01
5.725893e-01
5.727376e-01
5.728756e-01
0.000000e+00
1.000000e+00
5.728123e-01
5.726040e-01
5.723802e-01
5.721513e-01
5.719343e-01
5.717519e-01
5.716291e-01
5.715855e-01
5.716291e-01
5.717519e-01
5.719343e-01
5.721513e-01
5.723802e-01
5.726040e-01
5.728123e-01
0.000000e+00
1.000000e+00
5.727367e-01
5.724445e-01
5.721307e-01
5.718097e-01
5.715053e-01
5.712495e-01
5.710772e-01
5.710161e-01
5.710772e-01
5.712495e-01
5.715053e-01
5.718097e-01
5.721307e-01
5.724445e-01
5.727367e-01
0.000000e+00
1.000000e+00
5.726507e-01
5.722632e-01
5.718470e-01
5.714212e-01
5.710175e-01
5.706783e-01
5.704497e-01
5.703687e-01
5.704497e-01
5.706783e-01
5.710175e-01
5.714212e-01
5.718470e-01
5.722632e-01
5.726507e-01
0.000000e+00
1.000000e+00
5.725579e-01
5.720673e-01
5.715404e-01
5.710014e-01
5.704903e-01
5.700609e-01
5.697715e-01
5.696690e-01
5.697715e-01
5.700609e-01
5.704903e-01
5.710014e-01
5.715404e-01
5.720673e-01
5.725579e-01
0.000000e+00
1.000000e+00
5.724630e-01
5.718673e-01
5.712274e-01
5.705728e-01
5.699522e-01
5.694306e-01
5.690792e-01
5.689547e-01
5.690792e-01
5.694306e-01
5.699522e-01
5.705728e-01
5.712274e-01
5.718673e-01
5.724630e-01
0.000000e+00
1.000000e+00
5.723726e-01
5.716765e-01
5.709287e-01
5.701640e-01
5.694388e-01
5.688294e-01
5.684187e-01
5.682733e-01
5.684187e-01
5.688294e-01
5.694388e-01
5.701640e-01
5.709287e-01
5.716765e-01
5.723726e-01
0.000000e+00
1.000000e+00
5.722935e-01
5.715096e-01
5.706675e-01
5.698063e-01
5.689896e-01
5.683034e-01
5.678409e-01
5.676772e-01
5.678409e-01
5.683034e-01
5.689896e-01
5.698063e-01
5.706675e-01
5.715096e-01
5.722935e-01
0.000000e+00
1.000000e+00
5.722324e-01
5.713807e-01
5.704659e-01
5.695302e-01
5.686429e-01
5.678973e-01
5.673949e-01
5.672169e-01
5.673949e-01
5.678973e-01
5.686429e-01
5.695302e-01
5.704659e-01
5.713807e-01
5.722324e-01
0.000000e+00
1.000000e+00
5.721948e-01
5.713014e-01
5.703418e-01
5.693603e-01
5.684295e-01
5.676474e-01
5.671204e-01
5.669338e-01
5.671204e-01
5.676474e-01
5.684295e-01
5.693603e-01
5.703418e-01
5.713014e-01
5.721948e-01
0.000000e+00
1.000000e+00
5.721841e-01
5.712788e-01
5.703064e-01
5.693118e-01
5.683687e-01
5.675762e-01
5.670421e-01
5.668530e-01
5.670421e-01
5.675762e-01
5.683687e-01
5.693118e-01
5.703064e-01
5.712788e-01
5.721841e-01
0.000000e+00
1.000000e+00
5.722010e-01
5.713146e-01
5.703624e-01
5.693885e-01
5.684651e-01
5.676890e-01
5.671661e-01
5.669809e-01
5.671661e-01
5.676890e-01
5.684651e-01
5.693885e-01
5.703624e-01
5.713146e-01
5.722010e-01
0.000000e+00
1.000000e+00
5.722441e-01
5.714055e-01
5.705046e-01
5.695832e-01
5.687095e-01
5.679753e-01
5.674806e-01
5.673054e-01
5.674806e-01
5.679753e-01
5.687095e-01
5.695832e-01
5.705046e-01
5.714055e-01
5.722441e-01
0.000000e+00
1.000000e+00
5.723097e-01
5.715438e-01
5.707210e-01
5.698796e-01
5.690816e-01
5.684111e-01
5.679593e-01
5.677993e-01
5.679593e-01
5.684111e-01
5.690816e-01
5.698796e-01
5.707210e-01
5.715438e-01
5.723097e-01
0.000000e+00
1.000000e+00
5.723929e-01
5.717194e-01
5.709959e-01
5.702559e-01
5.695542e-01
5.689645e-01
5.685672e-01
5.684264e-01
5.685672e-01
5.689645e-01
5.695542e-01
5.702559e-01
5.709959e-01
5.717194e-01
5.723929e-01
0.000000e+00
1.000000e+00
5.724886e-01
5.719212e-01
5.713118e-01
5.706884e-01
5.700973e-01
5.696006e-01
5.692659e-01