<?xml version="1.0"?>
<VTKFile type="StructuredGrid" version="0.1">
  <StructuredGrid WholeExtent="0 16 0 16 0 16">
    <Piece Extent="0 16 0 16 0 16">
      <PointData Scalars="temperature" Vectors="velocity">
        <DataArray type="Float32" Name="temperature" format="ascii">
1.000000e+00
5.815277e-01
5.882088e-01
5.972540e-01
6.062083e-01
6.147088e-01
6.218684e-01
6.267243e-01
6.285035e-01
6.268831e-01
6.221737e-01
6.151238e-01
6.065928e-01
5.975457e-01
5.887014e-01
5.796004e-01
0.000000e+00
1.000000e+00
5.805521e-01
5.864324e-01
5.943894e-01
6.022836e-01
6.097769e-01
6.160862e-01
6.203618e-01
6.219253e-01
6.204977e-01
6.163505e-01
6.101564e-01
6.026438e-01
5.946802e-01
5.868679e-01
5.789226e-01
0.000000e+00
1.000000e+00
5.793919e-01
5.844420e-01
5.911688e-01
5.978710e-01
6.042320e-01
6.095855e-01
6.132084e-01
6.145270e-01
6.133182e-01
6.097930e-01
6.045317e-01
5.981488e-01
5.914081e-01
5.847776e-01
5.780142e-01
0.000000e+00
1.000000e+00
5.781536e-01
5.822637e-01
5.876729e-01
5.930834e-01
5.982175e-01
6.025364e-01
6.054543e-01
6.065089e-01
6.055345e-01
6.026907e-01
5.984498e-01
5.933096e-01
5.878932e-01
5.825365e-01
5.770184e-01
0.000000e+00
1.000000e+00
5.768829e-01
5.799734e-01
5.840214e-01
5.880844e-01
5.919388e-01
5.951798e-01
5.973658e-01
5.981479e-01
5.974081e-01
5.952814e-01
5.921065e-01
5.882638e-01
5.842264e-01
5.801976e-01
5.759183e-01
0.000000e+00
1.000000e+00
5.756179e-01
5.776720e-01
5.803660e-01
5.830806e-01
5.856555e-01
5.878197e-01
5.892775e-01
5.897932e-01
5.892839e-01
5.878608e-01
5.857531e-01
5.832066e-01
5.805529e-01
5.778579e-01
5.748283e-01
0.000000e+00
1.000000e+00
5.744285e-01
5.754655e-01
5.768776e-01
5.783056e-01
5.796600e-01
5.807982e-01
5.815643e-01
5.818331e-01
5.815571e-01
5.807949e-01
5.796879e-01
5.783702e-01
5.770347e-01
5.756257e-01
5.737589e-01
0.000000e+00
1.000000e+00
5.734018e-01
5.734699e-01
5.737376e-01
5.740066e-01
5.742621e-01
5.744772e-01
5.746218e-01
5.746706e-01
5.746141e-01
5.744634e-01
5.742658e-01
5.740389e-01
5.738464e-01
5.736102e-01
5.727917e-01
0.000000e+00
1.000000e+00
5.725394e-01
5.717957e-01
5.711148e-01
5.704138e-01
5.697498e-01
5.691924e-01
5.688173e-01
5.686839e-01
5.688152e-01
5.691899e-01
5.697720e-01
5.704436e-01
5.712004e-01
5.719348e-01
5.719372e-01
0.000000e+00
1.000000e+00
5.719057e-01
5.705300e-01
5.691321e-01
5.676995e-01
5.663419e-01
5.652025e-01
5.644367e-01
5.641678e-01
5.644442e-01
5.652215e-01
5.663801e-01
5.677404e-01
5.692110e-01
5.706490e-01
5.713841e-01
0.000000e+00
1.000000e+00
5.715031e-01
5.697283e-01
5.678776e-01
5.659821e-01
5.641857e-01
5.626777e-01
5.616641e-01
5.613096e-01
5.616788e-01
5.627106e-01
5.642347e-01
5.660359e-01
5.679467e-01
5.697885e-01
5.713678e-01
0.000000e+00
1.000000e+00
5.713141e-01
5.694112e-01
5.673798e-01
5.653006e-01
5.633301e-01
5.616759e-01
5.605640e-01
5.601755e-01
5.605811e-01
5.617137e-01
5.633844e-01
5.653656e-01
5.674478e-01
5.694658e-01
5.712428e-01
0.000000e+00
1.000000e+00
5.713734e-01
5.695635e-01
5.676145e-01
5.656224e-01
5.637344e-01
5.621495e-01
5.610843e-01
5.607120e-01
5.611009e-01
5.621870e-01
5.637916e-01
5.656997e-01
5.676933e-01
5.696342e-01
5.710556e-01
0.000000e+00
1.000000e+00
5.716549e-01
5.701383e-01
5.685116e-01
5.668509e-01
5.652770e-01
5.639560e-01
5.630680e-01
5.627574e-01
5.630814e-01
5.639881e-01
5.653349e-01
5.669458e-01
5.686099e-01
5.702200e-01
5.714563e-01
0.000000e+00
1.000000e+00
5.721196e-01
5.710680e-01
5.699667e-01
5.688432e-01
5.677788e-01
5.668855e-01
5.662850e-01
5.660744e-01
5.662925e-01
5.669060e-01
5.678289e-01
5.689595e-01
5.700872e-01
5.711774e-01
5.718993e-01
0.000000e+00
1.000000e+00
5.727339e-01
5.722747e-01
5.718579e-01
5.714329e-01
5.710305e-01
5.706933e-01
5.704667e-01
5.703865e-01
5.704669e-01
5.706968e-01
5.710576e-01
5.715544e-01
5.719939e-01
5.724181e-01
5.723991e-01
0.000000e+00
1.000000e+00
5.734676e-01
5.736767e-01
5.740598e-01
5.744480e-01
5.748166e-01
5.751269e-01
5.753360e-01
5.754087e-01
5.753311e-01
5.751174e-01
5.748166e-01
5.745436e-01
5.742254e-01
5.738601e-01
5.728618e-01
0.000000e+00
1.000000e+00
5.824788e-01
5.895003e-01
5.995362e-01
6.093432e-01
6.186522e-01
6.264959e-01
6.318196e-01
6.337725e-01
6.319826e-01
6.268305e-01
6.191091e-01
6.097513e-01
5.998195e-01
5.901176e-01
5.805123e-01
0.000000e+00
1.000000e+00
5.815907e-01
5.877905e-01
5.968324e-01
6.056399e-01
6.139992e-01
6.210414e-01
6.258190e-01
6.275690e-01
6.259537e-01
6.213359e-01
6.144438e-01
6.060607e-01
5.971650e-01
5.884174e-01
5.798084e-01
0.000000e+00
1.000000e+00
5.804867e-01
5.858921e-01
5.937291e-01
6.013862e-01
6.086535e-01
6.147735e-01
6.189213e-01
6.204358e-01
6.190360e-01
6.150182e-01
6.090224e-01
6.017259e-01
5.940163e-01
5.864146e-01
5.788258e-01
0.000000e+00
1.000000e+00
5.792227e-01
5.838092e-01
5.903006e-01
5.966871e-01
6.027485e-01
6.078508e-01
6.113050e-01
6.125619e-01
6.113989e-01
6.080424e-01
6.030432e-01
5.969646e-01
5.905554e-01
5.842128e-01
5.778030e-01
0.000000e+00
1.000000e+00
5.779062e-01
5.815738e-01
5.866647e-01
5.917057e-01
5.964896e-01
6.005147e-01
6.032359e-01
6.042209e-01
6.033029e-01
6.006544e-01
5.967133e-01
5.919293e-01
5.868954e-01
5.818825e-01
5.766832e-01
0.000000e+00
1.000000e+00
5.765908e-01
5.792857e-01
5.829772e-01
5.866554e-01
5.901450e-01
5.930797e-01
5.950606e-01
5.957722e-01
5.950991e-01
5.931677e-01
5.902973e-01
5.868248e-01
5.831808e-01
5.795151e-01
5.755769e-01
0.000000e+00
1.000000e+00
5.753292e-01
5.770604e-01
5.794175e-01
5.817820e-01
5.840248e-01
5.859101e-01
5.871811e-01
5.876336e-01
5.871946e-01
5.859444e-01
5.841062e-01
5.818923e-01
5.795970e-01
5.772347e-01
5.744940e-01
0.000000e+00
1.000000e+00
5.742287e-01
5.750153e-01
5.761784e-01
5.773485e-01
5.784587e-01
5.793919e-01
5.800209e-01
5.802431e-01
5.800197e-01
5.793924e-01
5.784797e-01
5.773951e-01
5.763105e-01
5.751536e-01
5.735158e-01
0.000000e+00
1.000000e+00
5.733230e-01
5.732796e-01
5.734498e-01
5.736115e-01
5.737652e-01
5.738945e-01
5.739813e-01
5.740105e-01
5.739752e-01
5.738831e-01
5.737613e-01
5.736244e-01
5.735254e-01
5.733974e-01
5.726330e-01
0.000000e+00
1.000000e+00
5.726587e-01
5.719548e-01
5.713719e-01
5.707668e-01
5.701937e-01
5.697126e-01
5.693888e-01
5.692740e-01
5.693872e-01
5.697114e-01
5.702040e-01
5.707819e-01
5.714221e-01
5.720623e-01
5.720413e-01
0.000000e+00
1.000000e+00
5.721840e-01
5.711052e-01
5.700414e-01
5.689443e-01
5.679044e-01
5.670311e-01
5.664438e-01
5.662380e-01
5.664503e-01
5.670463e-01
5.679326e-01
5.689730e-01
5.700822e-01
5.711682e-01
5.720316e-01
0.000000e+00
1.000000e+00
5.719850e-01
5.707561e-01
5.694911e-01
5.681913e-01
5.669593e-01
5.659249e-01
5.652294e-01
5.649859e-01
5.652389e-01
5.659475e-01
5.669973e-01
5.682365e-01
5.695374e-01
5.708146e-01
5.718922e-01
0.000000e+00
1.000000e+00
5.720424e-01
5.708922e-01
5.697000e-01
5.684777e-01
5.673192e-01
5.663465e-01
5.656924e-01
5.654633e-01
5.657011e-01
5.663679e-01
5.673584e-01
5.685395e-01
5.697602e-01
5.709640e-01
5.717312e-01
0.000000e+00
1.000000e+00
5.723269e-01
5.714633e-01
5.705922e-01
5.696994e-01
5.688532e-01
5.681429e-01
5.676651e-01
5.674972e-01
5.676700e-01
5.681569e-01
5.688871e-01
5.697785e-01
5.706707e-01
5.715477e-01
5.721189e-01
0.000000e+00
1.000000e+00
5.728030e-01
5.723972e-01
5.720556e-01
5.717031e-01
5.713693e-01
5.710892e-01
5.709007e-01
5.708338e-01
5.709003e-01
5.710912e-01
5.713879e-01
5.717889e-01
5.721547e-01
5.725068e-01
5.725357e-01
0.000000e+00
1.000000e+00
5.734298e-01
5.736106e-01
5.739602e-01
5.743112e-01
5.746444e-01
5.749246e-01
5.751131e-01
5.751786e-01
5.751084e-01
5.749161e-01
5.746442e-01
5.743798e-01
5.740905e-01
5.737507e-01
5.731107e-01
0.000000e+00
1.000000e+00
5.741742e-01
5.750178e-01
5.761730e-01
5.773415e-01
5.784499e-01
5.793817e-01
5.800093e-01
5.802304e-01
5.800049e-01
5.793725e-01
5.784453e-01
5.774089e-01
5.763548e-01
5.751997e-01
5.735490e-01
0.000000e+00
1.000000e+00
5.831495e-01
5.904420e-01
6.013555e-01
6.118399e-01
6.217875e-01
6.301712e-01
6.358629e-01
6.379441e-01
6.360288e-01
6.305421e-01
6.222922e-01
6.122798e-01
6.016341e-01
5.912550e-01
5.810962e-01
0.000000e+00
1.000000e+00
5.822777e-01
5.888334e-01
5.988258e-01
6.083727e-01
6.174306e-01
6.250633e-01
6.302429e-01
6.321328e-01
6.303735e-01
6.253998e-01
6.179196e-01
6.088210e-01
5.991547e-01
5.896766e-01
5.804405e-01
0.000000e+00
1.000000e+00
5.812477e-01
5.869743e-01
5.958472e-01
6.042919e-01
6.123031e-01
6.190520e-01
6.236291e-01
6.252961e-01
6.237362e-01
6.193445e-01
6.127212e-01
6.046670e-01
5.961383e-01
5.877578e-01
5.794956e-01
0.000000e+00
1.000000e+00
5.800723e-01
5.849535e-01
5.924945e-01
5.996971e-01
6.065301e-01
6.122842e-01
6.161844e-01
6.176020e-01
6.162704e-01
6.125255e-01
6.068689e-01
6.000029e-01
5.927488e-01
5.856055e-01
5.784774e-01
0.000000e+00
1.000000e+00
5.787805e-01
5.827902e-01
5.888835e-01
5.947487e-01
6.003133e-01
6.049972e-01
6.081692e-01
6.093189e-01
6.082361e-01
6.051836e-01
6.005780e-01
5.949973e-01
5.891112e-01
5.832924e-01
5.773674e-01
0.000000e+00
1.000000e+00
5.774548e-01
5.805360e-01
5.851731e-01
5.896652e-01
5.939271e-01
5.975130e-01
5.999387e-01
6.008138e-01
5.999859e-01
5.976410e-01
5.941217e-01
5.898576e-01
5.853694e-01
5.809093e-01
5.762486e-01
0.000000e+00
1.000000e+00
5.761356e-01
5.783266e-01
5.815551e-01
5.847097e-01
5.877024e-01
5.902197e-01
5.919200e-01
5.925283e-01
5.919436e-01
5.902883e-01
5.878287e-01
5.848447e-01
5.817186e-01
5.785840e-01
5.751358e-01
0.000000e+00
1.000000e+00
5.749556e-01
5.762729e-01
5.782297e-01
5.801569e-01
5.819853e-01
5.835230e-01
5.845606e-01
5.849304e-01
5.845700e-01
5.835507e-01
5.820483e-01
5.802327e-01
5.783641e-01
5.764520e-01
5.741411e-01
0.000000e+00
1.000000e+00
5.739735e-01
5.744989e-01
5.754067e-01
5.762906e-01
5.771292e-01
5.778341e-01
5.783086e-01
5.784753e-01
5.783045e-01
5.778309e-01
5.771331e-01
5.763034e-01
5.754798e-01
5.746283e-01
5.732521e-01
0.000000e+00
1.000000e+00
5.732233e-01
5.731316e-01
5.732412e-01
5.733252e-01
5.734050e-01
5.734718e-01
5.735165e-01
5.735311e-01
5.735109e-01
5.734605e-01
5.733910e-01
5.733167e-01
5.732705e-01
5.732280e-01
5.726260e-01
0.000000e+00
1.000000e+00
5.727412e-01
5.722425e-01
5.718358e-01
5.714012e-01
5.709892e-01
5.706432e-01
5.704102e-01
5.703281e-01
5.704110e-01
5.706456e-01
5.709961e-01
5.714066e-01
5.718514e-01
5.723070e-01
5.725216e-01
0.000000e+00
1.000000e+00
5.725401e-01
5.718670e-01
5.712388e-01
5.705844e-01
5.699641e-01
5.694432e-01
5.690928e-01
5.689699e-01
5.690968e-01
5.694534e-01
5.699848e-01
5.706086e-01
5.712568e-01
5.719254e-01
5.723404e-01
0.000000e+00
1.000000e+00
5.725969e-01
5.719900e-01
5.714260e-01
5.708408e-01
5.702862e-01
5.698205e-01
5.695072e-01
5.693972e-01
5.695104e-01
5.698295e-01
5.703070e-01
5.708826e-01
5.714581e-01
5.720564e-01
5.722504e-01
0.000000e+00
1.000000e+00
5.728870e-01
5.725598e-01
5.723162e-01
5.720598e-01
5.718167e-01
5.716128e-01
5.714754e-01
5.714266e-01
5.714750e-01
5.716144e-01
5.718285e-01
5.721068e-01
5.723662e-01
5.726403e-01
5.725500e-01
0.000000e+00
1.000000e+00
5.733739e-01
5.734995e-01
5.737903e-01
5.740782e-01
5.743513e-01
5.745809e-01
5.747352e-01
5.747887e-01
5.747312e-01
5.745740e-01
5.743498e-01
5.741185e-01
5.738743e-01
5.736066e-01
5.729407e-01
0.000000e+00
1.000000e+00
5.740114e-01
5.747211e-01
5.757100e-01
5.767072e-01
5.776529e-01
5.784477e-01
5.789828e-01
5.791712e-01
5.789783e-01
5.784385e-01
5.776455e-01
5.767520e-01
5.758487e-01
5.748638e-01
5.735505e-01
0.000000e+00
1.000000e+00
5.747670e-01
5.761350e-01
5.779357e-01
5.797550e-01
5.814805e-01
5.829309e-01
5.839084e-01
5.842543e-01
5.839072e-01
5.829281e-01
5.814925e-01
5.798497e-01
5.781233e-01
5.763144e-01
5.740976e-01
0.000000e+00
1.000000e+00
5.836801e-01
5.911127e-01
6.025829e-01
6.135226e-01
6.239008e-01
6.326474e-01
6.385837e-01
6.407461e-01
6.387606e-01
6.330448e-01
6.244487e-01
6.139977e-01
6.028631e-01
5.919958e-01
5.814911e-01
0.000000e+00
1.000000e+00
5.828488e-01
5.895964e-01
6.002217e-01
6.102836e-01
6.198286e-01
6.278719e-01
6.333306e-01
6.353130e-01
6.334723e-01
6.282398e-01
6.203484e-01
6.107486e-01
6.005401e-01
5.905326e-01
5.808571e-01
0.000000e+00
1.000000e+00
5.818417e-01
5.878128e-01
5.973703e-01
6.063759e-01
6.149175e-01
6.221152e-01
6.269990e-01
6.287698e-01
6.271127e-01
6.224420e-01
6.153717e-01
6.067774e-01
5.976652e-01
5.887110e-01
5.799648e-01
0.000000e+00
1.000000e+00
5.806829e-01
5.858497e-01
5.940965e-01
6.018898e-01
6.092823e-01
6.155104e-01
6.197343e-01
6.212634e-01
6.198241e-01
6.157865e-01
6.096548e-01
6.022168e-01
5.943499e-01
5.866072e-01
5.789516e-01
0.000000e+00
1.000000e+00
5.793717e-01
5.837266e-01
5.905157e-01
5.969844e-01
6.031209e-01
6.082883e-01
6.117901e-01
6.130555e-01
6.118596e-01
6.085089e-01
6.034139e-01
5.972504e-01
5.907427e-01
5.843143e-01
5.778651e-01
0.000000e+00
1.000000e+00
5.780528e-01
5.814707e-01
5.867905e-01
5.918818e-01
5.967113e-01
6.007758e-01
6.035267e-01
6.045179e-01
6.035778e-01
6.009374e-01
5.969298e-01
5.920889e-01
5.869868e-01
5.819233e-01
5.767420e-01
0.000000e+00
1.000000e+00
5.767570e-01
5.792320e-01
5.831203e-01
5.868544e-01
5.903966e-01
5.933763e-01
5.953896e-01
5.961111e-01
5.954217e-01
5.934775e-01
5.905471e-01
5.870045e-01
5.832805e-01
5.795639e-01
5.756075e-01
0.000000e+00
1.000000e+00
5.755257e-01
5.771623e-01
5.797211e-01
5.821990e-01
5.845496e-01
5.865263e-01
5.878604e-01
5.883372e-01
5.878781e-01
5.865770e-01
5.846396e-01
5.822943e-01
5.798489e-01
5.773783e-01
5.745933e-01
0.000000e+00
1.000000e+00
5.744501e-01
5.753629e-01
5.768138e-01
5.782170e-01
5.795479e-01
5.806664e-01
5.814199e-01
5.816866e-01
5.814212e-01
5.806755e-01
5.795754e-01
5.782469e-01
5.768930e-01
5.755054e-01
5.737154e-01
0.000000e+00
1.000000e+00
5.736598e-01
5.739645e-01
5.745682e-01
5.751422e-01
5.756863e-01
5.761433e-01
5.764506e-01
5.765581e-01
5.764461e-01
5.761352e-01
5.756754e-01
5.751315e-01
5.745940e-01
5.740550e-01
5.730741e-01
0.000000e+00
1.000000e+00
5.731598e-01
5.730436e-01
5.731024e-01
5.731355e-01
5.731668e-01
5.731930e-01
5.732105e-01
5.732163e-01
5.732088e-01
5.731895e-01
5.731600e-01
5.731264e-01
5.731046e-01
5.731015e-01
5.728744e-01
0.000000e+00
1.000000e+00
5.729435e-01
5.726467e-01
5.724683e-01
5.722678e-01
5.720777e-01
5.719181e-01
5.718108e-01
5.717731e-01
5.718119e-01
5.719212e-01
5.720837e-01
5.722718e-01
5.724651e-01
5.726939e-01
5.726222e-01
0.000000e+00
1.000000e+00
5.729957e-01
5.727622e-01
5.726422e-01
5.725060e-01
5.723769e-01
5.722685e-01
5.721955e-01
5.721699e-01
5.721962e-01
5.722709e-01
5.723842e-01
5.725202e-01
5.726494e-01
5.728114e-01
5.726224e-01
0.000000e+00
1.000000e+00
5.732905e-01
5.733361e-01
5.735389e-01
5.737338e-01
5.739186e-01
5.740739e-01
5.741782e-01
5.742145e-01
5.741759e-01
5.740702e-01
5.739181e-01
5.737491e-01
5.735714e-01
5.734061e-01
5.728426e-01
0.000000e+00
1.000000e+00
5.737871e-01
5.742874e-01
5.750319e-01
5.757783e-01
5.764861e-01
5.770808e-01
5.774811e-01
5.776217e-01
5.774769e-01
5.770721e-01
5.764761e-01
5.757969e-01
5.751138e-01
5.743877e-01
5.732898e-01
0.000000e+00
1.000000e+00
5.744370e-01
5.755233e-01
5.769754e-01
5.784397e-01
5.798284e-01
5.809955e-01
5.817817e-01
5.820596e-01
5.817790e-01
5.809891e-01
5.798249e-01
5.785001e-01
5.771173e-01
5.756596e-01
5.738998e-01
0.000000e+00
1.000000e+00
5.752045e-01
5.769500e-01
5.792231e-01
5.815176e-01
5.836936e-01
5.855228e-01
5.867559e-01
5.871936e-01
5.867584e-01
5.855287e-01
5.837311e-01
5.816426e-01
5.793969e-01
5.771178e-01
5.744773e-01
0.000000e+00
1.000000e+00
5.837276e-01
5.916009e-01
6.031046e-01
6.142390e-01
6.248055e-01
6.337108e-01
6.397550e-01
6.419604e-01
6.399393e-01
6.341247e-01
6.253927e-01
6.147556e-01
6.034020e-01
5.923229e-01
5.816435e-01
0.000000e+00
1.000000e+00
5.830990e-01
5.900438e-01
6.008812e-01
6.111970e-01
6.209826e-01
6.292278e-01
6.348221e-01
6.368577e-01
6.349795e-01
6.296153e-01
6.215295e-01
6.116833e-01
6.012094e-01
5.909365e-01
5.810349e-01
0.000000e+00
1.000000e+00
5.821198e-01
5.883310e-01
5.981455e-01
6.074462e-01
6.162675e-01
6.236990e-01
6.287397e-01
6.305699e-01
6.288710e-01
6.240435e-01
6.167481e-01
6.078743e-01
5.984596e-01
5.892023e-01
5.801809e-01
0.000000e+00
1.000000e+00
5.809242e-01
5.864560e-01
5.949486e-01
6.030624e-01
6.107589e-01
6.172412e-01
6.216358e-01
6.232284e-01
6.217453e-01
6.175330e-01
6.111540e-01
6.034092e-01
5.952130e-01
5.871429e-01
5.792015e-01
0.000000e+00
1.000000e+00
5.796314e-01
5.843576e-01
5.914006e-01
5.981988e-01
6.046483e-01
6.100786e-01
6.137573e-01
6.150886e-01
6.138480e-01
6.103131e-01
6.049613e-01
5.984813e-01
5.916364e-01
5.848701e-01
5.781344e-01
0.000000e+00
1.000000e+00
5.783142e-01
5.820944e-01
5.876652e-01
5.930801e-01
5.982177e-01
6.025420e-01
6.054684e-01
6.065265e-01
6.055402e-01
6.027163e-01
5.984548e-01
5.933022e-01
5.878678e-01
5.824719e-01
5.769926e-01
0.000000e+00
1.000000e+00
5.770121e-01
5.798208e-01
5.839515e-01
5.879919e-01
5.918256e-01
5.950509e-01
5.972312e-01
5.980181e-01
5.972803e-01
5.951647e-01
5.919915e-01
5.881549e-01
5.841166e-01
5.800869e-01
5.758494e-01
0.000000e+00
1.000000e+00
5.757699e-01
5.776912e-01
5.804857e-01
5.832463e-01
5.858652e-01
5.880681e-01
5.895565e-01
5.900919e-01
5.895826e-01
5.881290e-01
5.859700e-01
5.833560e-01
5.806151e-01
5.778552e-01
5.748794e-01
0.000000e+00
1.000000e+00
5.747135e-01
5.758255e-01
5.775021e-01
5.791601e-01
5.807331e-01
5.820556e-01
5.829478e-01
5.832659e-01
5.829549e-01
5.820749e-01
5.807794e-01
5.792141e-01
5.775976e-01
5.759322e-01
5.740535e-01
0.000000e+00
1.000000e+00
5.739031e-01
5.743711e-01
5.751933e-01
5.759981e-01
5.767612e-01
5.774023e-01
5.778337e-01
5.779853e-01
5.778303e-01
5.773985e-01
5.767612e-01
5.759979e-01
5.752286e-01
5.744341e-01
5.733785e-01
0.000000e+00
1.000000e+00
5.733822e-01
5.734172e-01
5.736834e-01
5.739307e-01
5.741650e-01
5.743618e-01
5.744940e-01
5.745400e-01
5.744915e-01
5.743565e-01
5.741553e-01
5.739188e-01
5.736852e-01
5.734465e-01
5.730547e-01
0.000000e+00
1.000000e+00
5.731406e-01
5.730039e-01
5.730282e-01
5.730338e-01
5.730390e-01
5.730435e-01
5.730466e-01
5.730479e-01
5.730471e-01
5.730439e-01
5.730377e-01
5.730291e-01
5.730203e-01
5.730342e-01
5.728539e-01
0.000000e+00
1.000000e+00
5.731851e-01
5.731192e-01
5.732032e-01
5.732737e-01
5.733405e-01
5.733966e-01
5.734344e-01
5.734478e-01
5.734345e-01
5.733968e-01
5.733410e-01
5.732731e-01
5.732031e-01
5.731544e-01
5.728785e-01
0.000000e+00
1.000000e+00
5.734846e-01
5.737061e-01
5.741208e-01
5.745303e-01
5.749186e-01
5.752448e-01
5.754642e-01
5.755411e-01
5.754616e-01
5.752398e-01
5.749128e-01
5.745293e-01
5.741511e-01
5.737706e-01
5.729790e-01
0.000000e+00
1.000000e+00
5.739935e-01
5.746787e-01
5.756478e-01
5.766215e-01
5.775448e-01
5.783206e-01
5.788429e-01
5.790269e-01
5.788390e-01
5.783114e-01
5.775307e-01
5.766370e-01
5.757361e-01
5.747766e-01
5.734196e-01
0.000000e+00
1.000000e+00
5.746586e-01
5.759391e-01
5.776307e-01
5.793368e-01
5.809547e-01
5.823144e-01
5.832304e-01
5.835545e-01
5.832286e-01
5.823095e-01
5.809547e-01
5.794134e-01
5.777832e-01
5.760705e-01
5.740454e-01
0.000000e+00
1.000000e+00
5.754401e-01
5.773895e-01
5.799170e-01
5.824677e-01
5.848867e-01
5.869202e-01
5.882912e-01
5.887787e-01
5.882968e-01
5.869339e-01
5.849378e-01
5.826071e-01
5.800894e-01
5.775490e-01
5.746820e-01
0.000000e+00
1.000000e+00
5.835008e-01
5.916231e-01
6.028610e-01
6.138999e-01
6.243819e-01
6.332175e-01
6.392181e-01
6.414178e-01
6.394084e-01
6.336331e-01
6.249869e-01
6.144283e-01
6.031627e-01
5.922176e-01
5.816079e-01
0.000000e+00
1.000000e+00
5.829620e-01
5.901939e-01
6.007456e-01
6.110070e-01
6.207476e-01
6.289557e-01
6.345252e-01
6.365633e-01
6.346995e-01
6.293468e-01
6.213035e-01
6.114955e-01
6.010716e-01
5.908865e-01
5.810037e-01
0.000000e+00
1.000000e+00
5.820482e-01
5.885381e-01
5.980926e-01
6.073704e-01
6.161770e-01
6.235961e-01
6.286269e-01
6.304653e-01
6.287808e-01
6.239456e-01
6.166735e-01
6.078168e-01
5.984201e-01
5.892026e-01
5.801829e-01
0.000000e+00
1.000000e+00
5.808963e-01
5.866441e-01
5.949489e-01
6.030595e-01
6.107587e-01
6.172432e-01
6.216372e-01
6.232399e-01
6.217714e-01
6.175391e-01
6.111696e-01
6.034240e-01
5.952280e-01
5.871725e-01
5.792187e-01
0.000000e+00
1.000000e+00
5.796048e-01
5.845049e-01
5.914205e-01
5.982221e-01
6.046790e-01
6.101155e-01
6.137964e-01
6.151371e-01
6.139105e-01
6.103536e-01
6.050064e-01
5.985210e-01
5.916712e-01
5.849103e-01
5.781460e-01
0.000000e+00
1.000000e+00
5.782629e-01
5.822008e-01
5.876719e-01
5.930853e-01
5.982233e-01
6.025476e-01
6.054728e-01
6.065366e-01
6.055632e-01
6.027252e-01
5.984715e-01
5.933204e-01
5.878864e-01
5.825023e-01
5.769880e-01
0.000000e+00
1.000000e+00
5.769274e-01
5.798703e-01
5.839152e-01
5.879405e-01
5.917595e-01
5.949718e-01
5.971425e-01
5.979290e-01
5.972023e-01
5.950887e-01
5.919329e-01
5.881148e-01
5.840930e-01
5.800915e-01
5.758340e-01
0.000000e+00
1.000000e+00
5.756824e-01
5.776661e-01
5.803891e-01
5.831139e-01
5.856985e-01
5.878721e-01
5.893400e-01
5.898687e-01
5.893704e-01
5.879360e-01
5.858068e-01
5.832340e-01
5.805354e-01
5.778240e-01
5.748971e-01
0.000000e+00
1.000000e+00
5.746417e-01
5.757446e-01
5.773441e-01
5.789441e-01
5.804620e-01
5.817382e-01
5.825992e-01
5.829063e-01
5.826071e-01
5.817577e-01
5.805064e-01
5.790034e-01
5.774542e-01
5.758544e-01
5.741453e-01
0.000000e+00
1.000000e+00
5.738331e-01
5.742488e-01
5.749868e-01
5.757152e-01
5.764059e-01
5.769861e-01
5.773766e-01
5.775136e-01
5.773725e-01
5.769803e-01
5.764039e-01
5.757205e-01
5.750319e-01
5.743063e-01
5.734649e-01
0.000000e+00
1.000000e+00
5.733072e-01
5.732732e-01
5.734480e-01
5.736083e-01
5.737602e-01
5.738877e-01
5.739732e-01
5.740025e-01
5.739696e-01
5.738800e-01
5.737490e-01
5.736026e-01
5.734583e-01
5.732907e-01
5.729751e-01
0.000000e+00
1.000000e+00
5.730770e-01
5.728566e-01
5.727901e-01
5.727076e-01
5.726293e-01
5.725635e-01
5.725191e-01
5.725032e-01
5.725183e-01
5.725609e-01
5.726243e-01
5.727067e-01
5.727894e-01
5.728483e-01
5.728410e-01
0.000000e+00
1.000000e+00
5.731197e-01
5.729844e-01
5.729874e-01
5.729778e-01
5.729686e-01
5.729608e-01
5.729555e-01
5.729534e-01
5.729547e-01
5.729586e-01
5.729642e-01
5.729784e-01
5.729944e-01
5.729860e-01
5.728477e-01
0.000000e+00
1.000000e+00
5.734284e-01
5.735972e-01
5.739464e-01
5.742912e-01
5.746181e-01
5.748926e-01
5.750772e-01
5.751415e-01
5.750738e-01
5.748857e-01
5.746072e-01
5.742802e-01
5.739954e-01
5.736374e-01
5.730751e-01
0.000000e+00
1.000000e+00
5.739535e-01
5.746046e-01
5.755283e-01
5.764577e-01
5.773390e-01
5.780794e-01
5.785778e-01
5.787530e-01
5.785730e-01
5.780685e-01
5.773200e-01
5.764509e-01
5.756148e-01
5.746839e-01
5.734568e-01
0.000000e+00
1.000000e+00
5.746379e-01
5.759039e-01
5.775723e-01
5.792567e-01
5.808540e-01
5.821964e-01
5.831006e-01
5.834203e-01
5.830979e-01
5.821898e-01
5.808465e-01
5.793130e-01
5.777357e-01
5.760155e-01
5.740270e-01
0.000000e+00
1.000000e+00
5.754394e-01
5.773929e-01
5.799202e-01
5.824719e-01
5.848919e-01
5.869262e-01
5.882977e-01
5.887852e-01
5.883030e-01
5.869396e-01
5.849365e-01
5.826033e-01
5.801041e-01
5.775369e-01
5.746696e-01
0.000000e+00
1.000000e+00
5.830674e-01
5.910760e-01
6.018318e-01
6.124781e-01
6.225903e-01
6.311163e-01
6.369077e-01
6.390371e-01
6.371052e-01
6.315137e-01
6.231854e-01
6.129862e-01
6.021229e-01
5.915618e-01
5.813018e-01
0.000000e+00
1.000000e+00
5.824511e-01
5.897563e-01
5.997809e-01
6.096710e-01
6.190636e-01
6.269795e-01
6.323515e-01
6.343235e-01
6.325395e-01
6.273581e-01
6.196069e-01
6.101397e-01
6.000969e-01
5.902750e-01
5.806880e-01
0.000000e+00
1.000000e+00
5.815475e-01
5.881326e-01
5.971711e-01
6.060952e-01
6.145694e-01
6.217089e-01
6.265501e-01
6.283256e-01
6.267219e-01
6.220496e-01
6.150591e-01
6.065332e-01
5.974960e-01
5.886247e-01
5.798961e-01
0.000000e+00
1.000000e+00
5.804317e-01
5.862085e-01
5.940474e-01
6.018149e-01
6.091897e-01
6.154005e-01
6.196080e-01
6.211476e-01
6.197576e-01
6.156884e-01
6.095962e-01
6.021784e-01
5.943336e-01
5.866180e-01
5.789391e-01
0.000000e+00
1.000000e+00
5.791766e-01
5.840215e-01
5.905138e-01
5.969744e-01
6.031068e-01
6.082689e-01
6.117617e-01
6.130357e-01
6.118834e-01
6.084979e-01
6.034301e-01
5.972757e-01
5.907754e-01
5.843549e-01
5.778649e-01
0.000000e+00
1.000000e+00
5.778519e-01
5.816667e-01
5.867360e-01
5.918015e-01
5.966079e-01
6.006513e-01
6.033834e-01
6.043747e-01
6.034698e-01
6.008182e-01
5.968502e-01
5.920420e-01
5.869675e-01
5.819318e-01
5.767077e-01
0.000000e+00
1.000000e+00
5.765252e-01
5.792835e-01
5.829326e-01
5.865951e-01
5.900690e-01
5.929897e-01
5.949607e-01
5.956702e-01
5.950079e-01
5.930931e-01
5.902352e-01
5.867777e-01
5.831326e-01
5.794901e-01
5.755379e-01
0.000000e+00
1.000000e+00
5.752911e-01
5.770290e-01
5.793554e-01
5.816982e-01
5.839203e-01
5.857883e-01
5.870482e-01
5.874982e-01
5.870647e-01
5.858328e-01
5.840114e-01
5.818178e-01
5.795283e-01
5.771905e-01
5.745784e-01
0.000000e+00
1.000000e+00
5.742547e-01
5.750693e-01
5.762625e-01
5.774632e-01
5.786022e-01
5.795597e-01
5.802050e-01
5.804335e-01
5.802050e-01
5.795644e-01
5.786253e-01
5.775111e-01
5.763811e-01
5.751787e-01
5.738373e-01
0.000000e+00
1.000000e+00
5.734568e-01
5.735480e-01
5.738719e-01
5.741890e-01
5.744897e-01
5.747421e-01
5.749116e-01
5.749696e-01
5.749049e-01
5.747303e-01
5.744804e-01
5.742044e-01
5.739301e-01
5.736098e-01
5.731478e-01
0.000000e+00
1.000000e+00
5.729274e-01
5.725629e-01
5.723249e-01
5.720705e-01
5.718290e-01
5.716259e-01
5.714886e-01
5.714387e-01
5.714842e-01
5.716170e-01
5.718215e-01
5.720862e-01
5.723548e-01
5.725970e-01
5.726156e-01
0.000000e+00
1.000000e+00
5.727123e-01
5.721557e-01
5.716832e-01
5.711921e-01
5.707264e-01
5.703349e-01
5.700712e-01
5.699775e-01
5.700701e-01
5.703324e-01
5.707256e-01
5.712144e-01
5.717024e-01
5.721670e-01
5.724302e-01
0.000000e+00
1.000000e+00
5.727747e-01
5.723100e-01
5.719233e-01
5.715208e-01
5.711392e-01
5.708184e-01
5.706021e-01
5.705253e-01
5.706011e-01
5.708158e-01
5.711361e-01
5.715438e-01
5.719501e-01
5.723241e-01
5.723968e-01
0.000000e+00
1.000000e+00
5.730987e-01
5.729633e-01
5.729462e-01
5.729216e-01
5.728982e-01
5.728782e-01
5.728643e-01
5.728581e-01
5.728602e-01
5.728699e-01
5.728844e-01
5.729294e-01
5.730064e-01
5.729883e-01
5.728558e-01
0.000000e+00
1.000000e+00
5.736452e-01
5.740211e-01
5.746063e-01
5.751950e-01
5.757532e-01
5.762221e-01
5.765372e-01
5.766470e-01
5.765308e-01
5.762084e-01
5.757303e-01
5.751796e-01
5.746897e-01
5.740864e-01
5.733431e-01
0.000000e+00
1.000000e+00
5.743556e-01
5.753756e-01
5.767357e-01
5.781113e-01
5.794157e-01
5.805119e-01
5.812500e-01
5.815102e-01
5.812451e-01
5.805009e-01
5.793960e-01
5.781278e-01
5.768934e-01
5.754785e-01
5.739238e-01
0.000000e+00
1.000000e+00
5.751823e-01
5.769205e-01
5.791712e-01
5.814462e-01
5.836039e-01
5.854176e-01
5.866400e-01
5.870735e-01
5.866412e-01
5.854213e-01
5.836226e-01
5.815490e-01
5.793731e-01
5.770559e-01
5.745114e-01
0.000000e+00
1.000000e+00
5.823666e-01
5.900108e-01
6.000350e-01
6.100105e-01
6.194824e-01
6.274655e-01
6.328853e-01
6.348775e-01
6.330789e-01
6.278252e-01
6.200280e-01
6.104622e-01
6.003107e-01
5.904203e-01
5.807583e-01
0.000000e+00
1.000000e+00
5.817068e-01
5.887233e-01
5.979963e-01
6.072189e-01
6.159747e-01
6.233511e-01
6.283529e-01
6.301880e-01
6.285361e-01
6.236924e-01
6.164714e-01
6.076460e-01
5.983021e-01
5.891412e-01
5.801453e-01
0.000000e+00
1.000000e+00
5.808068e-01
5.870921e-01
5.953841e-01
6.036415e-01
6.114798e-01
6.180804e-01
6.225517e-01
6.241892e-01
6.227180e-01
6.183892e-01
6.119329e-01
6.040517e-01
5.957049e-01
5.874857e-01
5.793520e-01
0.000000e+00
1.000000e+00
5.797089e-01
5.851355e-01
5.922433e-01
5.993407e-01
6.060767e-01
6.117462e-01
6.155821e-01
6.169804e-01
6.157182e-01
6.120044e-01
6.064523e-01
5.996890e-01
5.925395e-01
5.854730e-01
5.783897e-01
0.000000e+00
1.000000e+00
5.784735e-01
5.829069e-01
5.886784e-01
5.944603e-01
5.999464e-01
6.045616e-01
6.076795e-01
6.088084e-01
6.077775e-01
6.047606e-01
6.002426e-01
5.947557e-01
5.889579e-01
5.831957e-01
5.773020e-01
0.000000e+00
1.000000e+00
5.771557e-01
5.805089e-01
5.848582e-01
5.892311e-01
5.933792e-01
5.968672e-01
5.992203e-01
6.000649e-01
5.992744e-01
5.969981e-01
5.935946e-01
5.894718e-01
5.851156e-01
5.807490e-01
5.761377e-01
0.000000e+00
1.000000e+00
5.758297e-01
5.780827e-01
5.810078e-01
5.839602e-01
5.867606e-01
5.891147e-01
5.907014e-01
5.912661e-01
5.907193e-01
5.891751e-01
5.868908e-01
5.841373e-01
5.812415e-01
5.782816e-01
5.749583e-01
0.000000e+00
1.000000e+00
5.746021e-01
5.757900e-01
5.773873e-01
5.790034e-01
5.805365e-01
5.818253e-01
5.826938e-01
5.830009e-01
5.826940e-01
5.818361e-01
5.805839e-01
5.791002e-01
5.775861e-01
5.759564e-01
5.739706e-01
0.000000e+00
1.000000e+00
5.735710e-01
5.738022e-01
5.742607e-01
5.747223e-01
5.751604e-01
5.755289e-01
5.757770e-01
5.758635e-01
5.757723e-01
5.755218e-01
5.751664e-01
5.747761e-01
5.743866e-01
5.739137e-01
5.731986e-01
0.000000e+00
1.000000e+00
5.727856e-01
5.722674e-01
5.718534e-01
5.714255e-01
5.710200e-01
5.706794e-01
5.704497e-01
5.703672e-01
5.704462e-01
5.706741e-01
5.710286e-01
5.714809e-01
5.719393e-01
5.723420e-01
5.724936e-01
0.000000e+00
1.000000e+00
5.722686e-01
5.712864e-01
5.703159e-01
5.693199e-01
5.683756e-01
5.675822e-01
5.670478e-01
5.668586e-01
5.670483e-01
5.675839e-01
5.683929e-01
5.693770e-01
5.703805e-01
5.713371e-01
5.720449e-01
0.000000e+00
1.000000e+00
5.720595e-01
5.709010e-01
5.697102e-01
5.684908e-01
5.673346e-01
5.663633e-01
5.657094e-01
5.654788e-01
5.657126e-01
5.663698e-01
5.673537e-01
5.685462e-01
5.697586e-01
5.709367e-01
5.717089e-01
0.000000e+00
1.000000e+00
5.721551e-01
5.710935e-01
5.700108e-01
5.689026e-01
5.678518e-01
5.669690e-01
5.663746e-01
5.661649e-01
5.663772e-01
5.669743e-01
5.678651e-01
5.689607e-01
5.700639e-01
5.711328e-01
5.717325e-01
0.000000e+00
1.000000e+00
5.724979e-01
5.717993e-01
5.711157e-01
5.704155e-01
5.697515e-01
5.691937e-01
5.688178e-01
5.686844e-01
5.688168e-01
5.691923e-01
5.697498e-01
5.704782e-01
5.711876e-01
5.718403e-01
5.722228e-01
0.000000e+00
1.000000e+00
5.730679e-01
5.729208e-01
5.728737e-01
5.728227e-01
5.727743e-01
5.727334e-01
5.727053e-01
5.726936e-01
5.726995e-01
5.727221e-01
5.727553e-01
5.728588e-01
5.729680e-01
5.729843e-01
5.728850e-01
0.000000e+00
1.000000e+00
5.738089e-01
5.743452e-01
5.751103e-01
5.758856e-01
5.766208e-01
5.772385e-01
5.776540e-01