<?xml version="1.0"?>
<VTKFile type="StructuredGrid" version="0.1">
  <StructuredGrid WholeExtent="0 16 0 16 0 16">
    <Piece Extent="0 16 0 16 0 16">
      <PointData Scalars="temperature" Vectors="velocity">
        <DataArray type="Float32" Name="temperature" format="ascii">
1.000000e+00
5.650422e-01
5.568435e-01
5.476933e-01
5.383558e-01
5.295136e-01
5.221006e-01
5.171289e-01
5.154032e-01
5.172272e-01
5.222801e-01
5.297471e-01
5.386599e-01
5.479259e-01
5.571249e-01
5.649764e-01
0.000000e+00
1.000000e+00
5.658910e-01
5.586492e-01
5.505017e-01
5.421968e-01
5.343310e-01
5.277361e-01
5.233132e-01
5.217786e-01
5.234024e-01
5.278981e-01
5.345432e-01
5.424897e-01
5.507035e-01
5.588855e-01
5.658025e-01
0.000000e+00
1.000000e+00
5.669198e-01
5.607053e-01
5.537156e-01
5.465942e-01
5.398478e-01
5.341892e-01
5.303925e-01
5.290733e-01
5.304640e-01
5.343189e-01
5.400186e-01
5.468595e-01
5.539023e-01
5.609157e-01
5.667779e-01
0.000000e+00
1.000000e+00
5.680373e-01
5.629592e-01
5.572451e-01
5.514261e-01
5.459128e-01
5.412878e-01
5.381834e-01
5.371039e-01
5.382395e-01
5.413890e-01
5.460481e-01
5.516641e-01
5.574178e-01
5.631516e-01
5.678616e-01
0.000000e+00
1.000000e+00
5.692237e-01
5.653448e-01
5.609824e-01
5.565427e-01
5.523358e-01
5.488061e-01
5.464360e-01
5.456105e-01
5.464761e-01
5.488790e-01
5.524357e-01
5.567529e-01
5.611399e-01
5.655214e-01
5.689106e-01
0.000000e+00
1.000000e+00
5.704381e-01
5.677671e-01
5.647796e-01
5.617411e-01
5.588619e-01
5.564459e-01
5.548230e-01
5.542559e-01
5.548467e-01
5.564914e-01
5.589259e-01
5.619290e-01
5.649328e-01
5.678700e-01
5.705852e-01
0.000000e+00
1.000000e+00
5.716289e-01
5.701151e-01
5.684632e-01
5.667844e-01
5.651934e-01
5.638585e-01
5.629608e-01
5.626454e-01
5.629690e-01
5.638760e-01
5.652174e-01
5.669532e-01
5.686156e-01
5.701956e-01
5.719999e-01
0.000000e+00
1.000000e+00
5.727440e-01
5.722715e-01
5.718506e-01
5.714220e-01
5.710159e-01
5.706754e-01
5.704460e-01
5.703638e-01
5.704429e-01
5.706695e-01
5.710028e-01
5.715347e-01
5.719875e-01
5.723880e-01
5.727778e-01
0.000000e+00
1.000000e+00
5.737222e-01
5.741249e-01
5.747676e-01
5.754163e-01
5.760316e-01
5.765488e-01
5.768968e-01
5.770183e-01
5.768906e-01
5.765360e-01
5.760081e-01
5.754526e-01
5.749078e-01
5.742412e-01
5.735894e-01
0.000000e+00
1.000000e+00
5.744999e-01
5.755841e-01
5.770697e-01
5.785685e-01
5.799901e-01
5.811852e-01
5.819906e-01
5.822752e-01
5.819871e-01
5.811772e-01
5.799806e-01
5.786330e-01
5.772394e-01
5.756672e-01
5.742895e-01
0.000000e+00
1.000000e+00
5.750428e-01
5.765871e-01
5.786576e-01
5.807426e-01
5.827202e-01
5.843826e-01
5.855035e-01
5.859011e-01
5.855039e-01
5.843867e-01
5.827539e-01
5.808722e-01
5.788325e-01
5.766486e-01
5.744014e-01
0.000000e+00
1.000000e+00
5.753291e-01
5.771085e-01
5.794866e-01
5.818779e-01
5.841460e-01
5.860528e-01
5.873389e-01
5.877963e-01
5.873435e-01
5.860695e-01
5.842168e-01
5.820266e-01
5.796497e-01
5.772143e-01
5.742833e-01
0.000000e+00
1.000000e+00
5.753590e-01
5.771585e-01
5.795678e-01
5.819893e-01
5.842858e-01
5.862166e-01
5.875190e-01
5.879823e-01
5.875240e-01
5.862328e-01
5.843640e-01
5.821384e-01
5.797229e-01
5.772951e-01
5.744471e-01
0.000000e+00
1.000000e+00
5.751493e-01
5.767759e-01
5.789609e-01
5.811582e-01
5.832420e-01
5.849938e-01
5.861752e-01
5.865947e-01
5.861769e-01
5.849983e-01
5.832945e-01
5.812924e-01
5.791134e-01
5.769215e-01
5.742794e-01
0.000000e+00
1.000000e+00
5.747380e-01
5.760186e-01
5.777610e-01
5.795151e-01
5.811786e-01
5.825771e-01
5.835199e-01
5.838538e-01
5.835183e-01
5.825707e-01
5.811872e-01
5.796131e-01
5.779297e-01
5.761770e-01
5.739372e-01
0.000000e+00
1.000000e+00
5.741714e-01
5.749573e-01
5.760843e-01
5.772193e-01
5.782959e-01
5.792009e-01
5.798104e-01
5.800250e-01
5.798052e-01
5.791882e-01
5.782797e-01
5.772748e-01
5.762503e-01
5.751220e-01
5.734380e-01
0.000000e+00
1.000000e+00
5.734909e-01
5.736697e-01
5.740540e-01
5.744392e-01
5.748048e-01
5.751122e-01
5.753190e-01
5.753902e-01
5.753117e-01
5.750972e-01
5.747893e-01
5.745140e-01
5.741975e-01
5.738257e-01
5.728207e-01
0.000000e+00
1.000000e+00
5.645074e-01
5.553678e-01
5.454005e-01
5.352170e-01
5.255732e-01
5.174875e-01
5.120631e-01
5.101782e-01
5.121649e-01
5.176746e-01
5.258160e-01
5.355207e-01
5.456515e-01
5.556306e-01
5.641173e-01
0.000000e+00
1.000000e+00
5.652146e-01
5.570381e-01
5.480104e-01
5.387886e-01
5.300566e-01
5.227369e-01
5.178287e-01
5.161266e-01
5.179296e-01
5.229203e-01
5.302933e-01
5.391051e-01
5.482541e-01
5.573032e-01
5.649305e-01
0.000000e+00
1.000000e+00
5.661740e-01
5.590092e-01
5.510842e-01
5.429928e-01
5.353287e-01
5.289024e-01
5.245918e-01
5.230950e-01
5.246756e-01
5.290527e-01
5.355196e-01
5.432892e-01
5.512995e-01
5.592542e-01
5.658502e-01
0.000000e+00
1.000000e+00
5.672407e-01
5.612106e-01
5.545254e-01
5.477033e-01
5.412405e-01
5.358202e-01
5.321836e-01
5.309201e-01
5.322520e-01
5.359417e-01
5.413928e-01
5.479686e-01
5.547237e-01
5.614860e-01
5.670853e-01
0.000000e+00
1.000000e+00
5.683960e-01
5.635785e-01
5.582292e-01
5.527736e-01
5.476046e-01
5.432684e-01
5.403578e-01
5.393455e-01
5.404097e-01
5.433600e-01
5.477178e-01
5.530052e-01
5.584106e-01
5.639835e-01
5.676850e-01
0.000000e+00
1.000000e+00
5.695961e-01
5.660157e-01
5.620438e-01
5.579957e-01
5.541597e-01
5.509410e-01
5.487795e-01
5.480259e-01
5.488143e-01
5.510038e-01
5.542370e-01
5.581884e-01
5.622028e-01
5.663063e-01
5.686919e-01
0.000000e+00
1.000000e+00
5.707883e-01
5.684049e-01
5.657864e-01
5.631194e-01
5.605919e-01
5.584706e-01
5.570450e-01
5.565461e-01
5.570637e-01
5.585062e-01
5.606355e-01
5.632811e-01
5.659343e-01
5.684808e-01
5.705839e-01
0.000000e+00
1.000000e+00
5.719112e-01
5.706196e-01
5.692597e-01
5.678747e-01
5.665619e-01
5.654599e-01
5.647184e-01
5.644572e-01
5.647236e-01
5.654709e-01
5.665723e-01
5.680072e-01
5.693898e-01
5.706771e-01
5.717772e-01
0.000000e+00
1.000000e+00
5.729016e-01
5.725383e-01
5.722736e-01
5.720011e-01
5.717428e-01
5.715259e-01
5.713793e-01
5.713264e-01
5.713760e-01
5.715195e-01
5.717288e-01
5.720698e-01
5.723818e-01
5.725851e-01
5.725419e-01
0.000000e+00
1.000000e+00
5.737002e-01
5.740589e-01
5.746678e-01
5.752794e-01
5.758594e-01
5.763469e-01
5.766749e-01
5.767899e-01
5.766702e-01
5.763366e-01
5.758407e-01
5.753001e-01
5.747795e-01
5.741148e-01
5.736184e-01
0.000000e+00
1.000000e+00
5.742639e-01
5.751111e-01
5.763309e-01
5.775566e-01
5.787191e-01
5.796962e-01
5.803546e-01
5.805873e-01
5.803515e-01
5.796881e-01
5.787124e-01
5.776072e-01
5.764634e-01
5.751488e-01
5.740927e-01
0.000000e+00
1.000000e+00
5.745639e-01
5.756648e-01
5.772110e-01
5.787619e-01
5.802326e-01
5.814690e-01
5.823025e-01
5.825981e-01
5.823019e-01
5.814663e-01
5.802488e-01
5.788502e-01
5.773487e-01
5.757259e-01
5.737513e-01
0.000000e+00
1.000000e+00
5.745993e-01
5.757305e-01
5.773185e-01
5.789091e-01
5.804177e-01
5.816858e-01
5.825409e-01
5.828443e-01
5.825410e-01
5.816842e-01
5.804401e-01
5.790052e-01
5.774503e-01
5.758423e-01
5.737487e-01
0.000000e+00
1.000000e+00
5.743945e-01
5.753502e-01
5.767171e-01
5.780857e-01
5.793836e-01
5.804746e-01
5.812100e-01
5.814707e-01
5.812088e-01
5.804694e-01
5.793890e-01
5.781590e-01
5.768358e-01
5.754821e-01
5.736297e-01
0.000000e+00
1.000000e+00
5.739858e-01
5.745865e-01
5.755090e-01
5.764314e-01
5.773062e-01
5.780415e-01
5.785370e-01
5.787119e-01
5.785336e-01
5.780327e-01
5.772956e-01
5.764763e-01
5.756309e-01
5.747336e-01
5.732625e-01
0.000000e+00
1.000000e+00
5.734215e-01
5.735152e-01
5.738183e-01
5.741163e-01
5.743990e-01
5.746367e-01
5.747967e-01
5.748519e-01
5.747916e-01
5.746262e-01
5.743900e-01
5.741790e-01
5.739426e-01
5.736718e-01
5.727583e-01
0.000000e+00
1.000000e+00
5.727418e-01
5.722181e-01
5.717756e-01
5.713193e-01
5.708868e-01
5.705241e-01
5.702798e-01
5.701924e-01
5.702770e-01
5.705201e-01
5.708974e-01
5.714321e-01
5.718944e-01
5.723649e-01
5.721013e-01
0.000000e+00
1.000000e+00
5.639802e-01
5.542069e-01
5.435823e-01
5.327279e-01
5.224492e-01
5.138315e-01
5.080506e-01
5.060421e-01
5.081605e-01
5.140347e-01
5.227149e-01
5.330320e-01
5.438531e-01
5.544182e-01
5.636479e-01
0.000000e+00
1.000000e+00
5.646134e-01
5.557472e-01
5.459936e-01
5.360282e-01
5.265928e-01
5.186841e-01
5.133814e-01
5.115432e-01
5.134920e-01
5.188856e-01
5.268591e-01
5.363429e-01
5.462544e-01
5.559687e-01
5.643730e-01
0.000000e+00
1.000000e+00
5.655175e-01
5.576191e-01
5.489129e-01
5.400204e-01
5.315983e-01
5.245372e-01
5.198012e-01
5.181574e-01
5.198947e-01
5.247048e-01
5.318193e-01
5.403244e-01
5.491396e-01
5.578225e-01
5.652014e-01
0.000000e+00
1.000000e+00
5.665445e-01
5.597537e-01
5.522492e-01
5.445870e-01
5.373289e-01
5.312422e-01
5.271588e-01
5.257403e-01
5.272364e-01
5.313799e-01
5.375084e-01
5.448603e-01
5.524520e-01
5.600392e-01
5.662879e-01
0.000000e+00
1.000000e+00
5.676762e-01
5.620889e-01
5.559008e-01
5.495856e-01
5.436023e-01
5.385834e-01
5.352149e-01
5.340433e-01
5.352748e-01
5.386895e-01
5.437375e-01
5.498199e-01
5.560945e-01
5.625733e-01
5.667264e-01
0.000000e+00
1.000000e+00
5.688659e-01
5.645261e-01
5.597135e-01
5.548050e-01
5.501537e-01
5.462509e-01
5.436299e-01
5.427165e-01
5.436719e-01
5.463259e-01
5.502467e-01
5.549915e-01
5.598789e-01
5.648595e-01
5.676942e-01
0.000000e+00
1.000000e+00
5.700607e-01
5.669429e-01
5.634968e-01
5.599843e-01
5.566552e-01
5.538609e-01
5.519831e-01
5.513264e-01
5.520080e-01
5.539072e-01
5.567120e-01
5.601249e-01
5.636292e-01
5.670070e-01
5.698873e-01
0.000000e+00
1.000000e+00
5.711971e-01
5.692037e-01
5.670401e-01
5.648354e-01
5.627454e-01
5.609904e-01
5.598098e-01
5.593950e-01
5.598203e-01
5.610115e-01
5.627705e-01
5.649449e-01
5.671553e-01
5.692172e-01
5.713340e-01
0.000000e+00
1.000000e+00
5.722064e-01
5.711768e-01
5.701372e-01
5.690758e-01
5.680693e-01
5.672238e-01
5.666542e-01
5.664525e-01
5.666545e-01
5.672253e-01
5.680679e-01
5.691521e-01
5.702324e-01
5.711620e-01
5.721604e-01
0.000000e+00
1.000000e+00
5.730234e-01
5.727503e-01
5.726116e-01
5.724637e-01
5.723234e-01
5.722053e-01
5.721253e-01
5.720959e-01
5.721216e-01
5.721978e-01
5.723097e-01
5.724895e-01
5.726859e-01
5.727589e-01
5.731882e-01
0.000000e+00
1.000000e+00
5.736035e-01
5.738455e-01
5.743398e-01
5.748299e-01
5.752948e-01
5.756854e-01
5.759483e-01
5.760405e-01
5.759449e-01
5.756778e-01
5.752826e-01
5.748404e-01
5.744164e-01
5.738425e-01
5.736652e-01
0.000000e+00
1.000000e+00
5.739158e-01
5.744270e-01
5.752630e-01
5.760942e-01
5.768824e-01
5.775449e-01
5.779913e-01
5.781491e-01
5.779895e-01
5.775395e-01
5.768782e-01
5.761265e-01
5.753446e-01
5.744045e-01
5.731507e-01
0.000000e+00
1.000000e+00
5.739580e-01
5.745042e-01
5.753898e-01
5.762680e-01
5.771009e-01
5.778009e-01
5.782728e-01
5.784398e-01
5.782716e-01
5.777967e-01
5.770998e-01
5.763060e-01
5.754631e-01
5.745584e-01
5.728620e-01
0.000000e+00
1.000000e+00
5.737544e-01
5.741232e-01
5.747885e-01
5.754448e-01
5.760672e-01
5.765903e-01
5.769428e-01
5.770674e-01
5.769410e-01
5.765853e-01
5.760632e-01
5.754744e-01
5.748558e-01
5.742270e-01
5.728477e-01
0.000000e+00
1.000000e+00
5.733463e-01
5.733511e-01
5.735685e-01
5.737742e-01
5.739693e-01
5.741333e-01
5.742436e-01
5.742821e-01
5.742410e-01
5.741277e-01
5.739679e-01
5.738183e-01
5.736472e-01
5.734774e-01
5.725562e-01
0.000000e+00
1.000000e+00
5.727838e-01
5.722680e-01
5.718615e-01
5.714368e-01
5.710341e-01
5.706960e-01
5.704681e-01
5.703870e-01
5.704666e-01
5.706945e-01
5.710459e-01
5.715271e-01
5.719667e-01
5.724122e-01
5.721090e-01
0.000000e+00
1.000000e+00
5.721094e-01
5.709605e-01
5.698049e-01
5.686210e-01
5.674988e-01
5.665566e-01
5.659227e-01
5.656993e-01
5.659269e-01
5.665688e-01
5.675376e-01
5.687354e-01
5.699146e-01
5.710998e-01
5.714881e-01
0.000000e+00
1.000000e+00
5.636218e-01
5.534253e-01
5.423619e-01
5.310574e-01
5.203539e-01
5.113811e-01
5.053629e-01
5.032739e-01
5.054820e-01
5.116002e-01
5.206343e-01
5.313981e-01
5.426407e-01
5.536331e-01
5.632674e-01
0.000000e+00
1.000000e+00
5.642182e-01
5.548432e-01
5.445842e-01
5.340992e-01
5.241726e-01
5.158529e-01
5.102751e-01
5.083424e-01
5.103940e-01
5.160693e-01
5.244616e-01
5.344255e-01
5.448428e-01
5.550620e-01
5.639154e-01
0.000000e+00
1.000000e+00
5.650621e-01
5.566146e-01
5.473477e-01
5.378781e-01
5.289106e-01
5.213930e-01
5.163516e-01
5.146029e-01
5.164539e-01
5.215770e-01
5.291640e-01
5.381768e-01
5.475771e-01
5.568369e-01
5.648147e-01
0.000000e+00
1.000000e+00
5.660476e-01
5.586790e-01
5.505735e-01
5.422931e-01
5.344501e-01
5.278739e-01
5.234628e-01
5.219313e-01
5.235490e-01
5.280274e-01
5.346630e-01
5.425599e-01
5.507816e-01
5.590495e-01
5.656747e-01
0.000000e+00
1.000000e+00
5.671538e-01
5.609750e-01
5.541628e-01
5.472061e-01
5.406156e-01
5.350880e-01
5.313788e-01
5.300892e-01
5.314466e-01
5.352084e-01
5.407786e-01
5.474386e-01
5.543655e-01
5.615770e-01
5.655203e-01
0.000000e+00
1.000000e+00
5.683323e-01
5.634032e-01
5.579604e-01
5.524047e-01
5.471404e-01
5.427236e-01
5.397580e-01
5.387248e-01
5.398065e-01
5.428104e-01
5.472523e-01
5.525939e-01
5.581359e-01
5.638012e-01
5.665617e-01
0.000000e+00
1.000000e+00
5.695234e-01
5.658372e-01
5.617687e-01
5.576182e-01
5.536845e-01
5.503828e-01
5.481643e-01
5.473889e-01
5.481945e-01
5.504382e-01
5.537533e-01
5.577522e-01
5.618959e-01
5.659135e-01
5.690644e-01
0.000000e+00
1.000000e+00
5.706638e-01
5.681340e-01
5.653654e-01
5.625421e-01
5.598656e-01
5.576182e-01
5.561066e-01
5.555759e-01
5.561211e-01
5.576465e-01
5.599006e-01
5.626278e-01
5.654591e-01
5.681403e-01
5.707952e-01
0.000000e+00
1.000000e+00
5.716840e-01
5.701511e-01
5.685291e-01
5.668735e-01
5.653037e-01
5.639848e-01
5.630965e-01
5.627828e-01
5.630994e-01
5.639920e-01
5.653124e-01
5.669256e-01
5.686035e-01
5.701448e-01
5.721938e-01
0.000000e+00
1.000000e+00
5.725225e-01
5.717668e-01
5.710682e-01
5.703502e-01
5.696692e-01
5.690967e-01
5.687105e-01
5.685730e-01
5.687079e-01
5.690918e-01
5.696611e-01
5.703717e-01
5.711197e-01
5.718064e-01
5.734069e-01
0.000000e+00
1.000000e+00
5.731208e-01
5.728954e-01
5.728470e-01
5.727858e-01
5.727277e-01
5.726787e-01
5.726455e-01
5.726331e-01
5.726430e-01
5.726733e-01
5.727184e-01
5.727844e-01
5.728849e-01
5.729100e-01
5.740023e-01
0.000000e+00
1.000000e+00
5.734378e-01
5.734960e-01
5.738002e-01
5.740909e-01
5.743665e-01
5.745982e-01
5.747543e-01
5.748095e-01
5.747539e-01
5.745967e-01
5.743633e-01
5.740977e-01
5.738349e-01
5.733711e-01
5.734044e-01
0.000000e+00
1.000000e+00
5.734788e-01
5.735768e-01
5.739343e-01
5.742749e-01
5.745979e-01
5.748694e-01
5.750525e-01
5.751175e-01
5.750530e-01
5.748702e-01
5.745997e-01
5.742874e-01
5.739610e-01
5.734780e-01
5.725558e-01
0.000000e+00
1.000000e+00
5.732712e-01
5.731876e-01
5.733219e-01
5.734365e-01
5.735453e-01
5.736367e-01
5.736984e-01
5.737201e-01
5.736980e-01
5.736366e-01
5.735505e-01
5.734573e-01
5.733530e-01
5.731751e-01
5.722720e-01
0.000000e+00
1.000000e+00
5.728605e-01
5.724011e-01
5.720801e-01
5.717362e-01
5.714100e-01
5.711361e-01
5.709515e-01
5.708862e-01
5.709514e-01
5.711373e-01
5.714239e-01
5.717866e-01
5.721344e-01
5.724400e-01
5.720156e-01
0.000000e+00
1.000000e+00
5.722988e-01
5.713013e-01
5.703479e-01
5.693643e-01
5.684318e-01
5.676486e-01
5.671214e-01
5.669355e-01
5.671246e-01
5.676581e-01
5.684624e-01
5.694461e-01
5.704363e-01
5.713796e-01
5.715580e-01
0.000000e+00
1.000000e+00
5.716259e-01
5.699788e-01
5.682690e-01
5.665181e-01
5.648584e-01
5.634648e-01
5.625274e-01
5.621983e-01
5.625373e-01
5.634888e-01
5.649107e-01
5.666102e-01
5.683590e-01
5.700808e-01
5.709629e-01
0.000000e+00
1.000000e+00
5.634893e-01
5.530957e-01
5.418475e-01
5.303532e-01
5.194712e-01
5.103498e-01
5.042334e-01
5.021120e-01
5.043595e-01
5.105828e-01
5.197582e-01
5.307402e-01
5.420991e-01
5.533197e-01
5.630469e-01
0.000000e+00
1.000000e+00
5.640490e-01
5.544070e-01
5.439035e-01
5.331673e-01
5.230037e-01
5.144858e-01
5.087759e-01
5.067983e-01
5.089008e-01
5.147140e-01
5.233030e-01
5.335236e-01
5.441400e-01
5.546469e-01
5.636384e-01
0.000000e+00
1.000000e+00
5.648393e-01
5.560868e-01
5.465259e-01
5.367537e-01
5.275004e-01
5.197443e-01
5.145438e-01
5.127410e-01
5.146527e-01
5.199417e-01
5.277720e-01
5.370678e-01
5.467542e-01
5.563489e-01
5.646145e-01
0.000000e+00
1.000000e+00
5.657878e-01
5.580855e-01
5.496491e-01
5.410279e-01
5.328629e-01
5.260174e-01
5.214266e-01
5.198338e-01
5.215195e-01
5.261841e-01
5.330964e-01
5.413067e-01
5.498714e-01
5.585682e-01
5.650634e-01
0.000000e+00
1.000000e+00
5.668717e-01
5.603425e-01
5.531768e-01
5.458563e-01
5.389218e-01
5.331063e-01
5.292046e-01
5.278492e-01
5.292787e-01
5.332387e-01
5.391042e-01
5.461052e-01
5.533910e-01
5.610423e-01
5.645597e-01
0.000000e+00
1.000000e+00
5.680405e-01
5.627575e-01
5.569535e-01
5.510261e-01
5.454099e-01
5.406985e-01
5.375357e-01
5.364347e-01
5.375896e-01
5.407954e-01
5.455379e-01
5.512344e-01
5.571265e-01
5.631879e-01
5.662005e-01
0.000000e+00
1.000000e+00
5.692290e-01
5.652006e-01
5.607756e-01
5.562584e-01
5.519775e-01
5.483847e-01
5.459710e-01
5.451281e-01
5.460053e-01
5.484477e-01
5.520582e-01
5.564046e-01
5.608887e-01
5.652814e-01
5.686943e-01
0.000000e+00
1.000000e+00
5.703735e-01
5.675227e-01
5.644103e-01
5.612343e-01
5.582236e-01
5.556957e-01
5.539957e-01
5.533994e-01
5.540128e-01
5.557287e-01
5.582669e-01
5.613174e-01
5.644800e-01
5.675146e-01
5.702967e-01
0.000000e+00
1.000000e+00
5.714007e-01
5.695722e-01
5.676225e-01
5.656320e-01
5.637445e-01
5.621588e-01
5.610909e-01
5.607141e-01
5.610951e-01
5.621684e-01
5.637592e-01
5.656687e-01
5.676632e-01
5.696026e-01
5.720830e-01
0.000000e+00
1.000000e+00
5.722428e-01
5.712174e-01
5.702069e-01
5.691704e-01
5.681874e-01
5.673609e-01
5.668036e-01
5.666052e-01
5.668005e-01
5.673561e-01
5.681823e-01
5.691773e-01
5.702281e-01
5.713948e-01
5.737138e-01
0.000000e+00
1.000000e+00
5.728528e-01
5.723655e-01
5.720162e-01
5.716481e-01
5.712988e-01
5.710050e-01
5.708066e-01
5.707354e-01
5.708032e-01
5.709978e-01
5.712881e-01
5.716380e-01
5.720241e-01
5.726199e-01
5.750473e-01
0.000000e+00
1.000000e+00
5.731849e-01
5.729731e-01
5.729800e-01
5.729677e-01
5.729560e-01
5.729461e-01
5.729393e-01
5.729368e-01
5.729385e-01
5.729437e-01
5.729505e-01
5.729626e-01
5.729828e-01
5.730377e-01
5.753170e-01
0.000000e+00
1.000000e+00
5.732166e-01
5.730456e-01
5.731045e-01
5.731383e-01
5.731703e-01
5.731973e-01
5.732156e-01
5.732225e-01
5.732168e-01
5.731990e-01
5.731707e-01
5.731380e-01
5.731034e-01
5.729095e-01
5.743477e-01
0.000000e+00
1.000000e+00
5.729946e-01
5.726360e-01
5.724632e-01
5.722606e-01
5.720685e-01
5.719072e-01
5.717986e-01
5.717606e-01
5.717999e-01
5.719109e-01
5.720765e-01
5.722706e-01
5.724746e-01
5.724827e-01
5.734173e-01
0.000000e+00
1.000000e+00
5.725762e-01
5.718252e-01
5.711825e-01
5.705071e-01
5.698667e-01
5.693288e-01
5.689666e-01
5.688389e-01
5.689686e-01
5.693356e-01
5.698874e-01
5.705430e-01
5.712201e-01
5.717113e-01
5.726936e-01
0.000000e+00
1.000000e+00
5.720099e-01
5.706996e-01
5.694087e-01
5.680784e-01
5.668172e-01
5.657580e-01
5.650452e-01
5.647945e-01
5.650512e-01
5.657739e-01
5.668530e-01
5.681355e-01
5.694759e-01
5.706270e-01
5.717953e-01
0.000000e+00
1.000000e+00
5.713295e-01
5.693524e-01
5.672913e-01
5.651794e-01
5.631776e-01
5.614966e-01
5.603661e-01
5.599696e-01
5.603791e-01
5.615261e-01
5.632309e-01
5.652500e-01
5.673642e-01
5.693435e-01
5.706755e-01
0.000000e+00
1.000000e+00
5.635679e-01
5.532651e-01
5.421126e-01
5.307153e-01
5.199264e-01
5.108845e-01
5.048227e-01
5.027222e-01
5.049532e-01
5.111279e-01
5.202161e-01
5.311242e-01
5.423570e-01
5.535390e-01
5.629692e-01
0.000000e+00
1.000000e+00
5.641138e-01
5.544961e-01
5.440417e-01
5.333556e-01
5.232397e-01
5.147624e-01
5.090803e-01
5.071136e-01
5.092080e-01
5.149975e-01
5.235422e-01
5.337285e-01
5.442662e-01
5.547578e-01
5.635676e-01
0.000000e+00
1.000000e+00
5.648635e-01
5.561033e-01
5.465530e-01
5.367910e-01
5.275481e-01
5.198013e-01
5.146080e-01
5.128092e-01
5.147208e-01
5.200073e-01
5.278277e-01
5.371227e-01
5.467735e-01
5.564099e-01
5.645989e-01
0.000000e+00
1.000000e+00
5.657877e-01
5.580502e-01
5.495952e-01
5.409542e-01
5.327711e-01
5.259111e-01
5.213115e-01
5.197171e-01
5.214085e-01
5.260866e-01
5.330155e-01
5.412515e-01
5.498216e-01
5.586218e-01
5.645364e-01
0.000000e+00
1.000000e+00
5.668557e-01
5.602753e-01
5.530733e-01
5.457148e-01
5.387447e-01
5.329000e-01
5.289796e-01
5.276189e-01
5.290576e-01
5.330406e-01
5.389398e-01
5.459854e-01
5.532885e-01
5.610415e-01
5.641413e-01
0.000000e+00
1.000000e+00
5.680178e-01
5.626786e-01
5.568317e-01
5.508595e-01
5.452012e-01
5.404550e-01
5.372695e-01
5.361618e-01
5.373269e-01
5.405590e-01
5.453423e-01
5.510873e-01
5.570001e-01
5.631559e-01
5.657114e-01
0.000000e+00
1.000000e+00
5.692083e-01
5.651268e-01
5.606617e-01
5.561027e-01
5.517822e-01
5.481567e-01
5.457215e-01
5.448719e-01
5.457583e-01
5.482249e-01
5.518738e-01
5.562621e-01
5.607779e-01
5.652146e-01
5.685698e-01
0.000000e+00
1.000000e+00
5.703606e-01
5.674650e-01
5.643211e-01
5.611123e-01
5.580707e-01
5.555171e-01
5.538002e-01
5.531982e-01
5.538185e-01
5.555532e-01
5.581214e-01
5.612037e-01
5.643986e-01
5.674491e-01
5.706948e-01
0.000000e+00
1.000000e+00
5.713984e-01
5.695341e-01
5.675630e-01
5.655506e-01
5.636425e-01
5.620395e-01
5.609601e-01
5.605790e-01
5.609640e-01
5.620494e-01
5.636610e-01
5.655921e-01
5.676095e-01
5.695636e-01
5.719000e-01
0.000000e+00
1.000000e+00
5.722454e-01
5.711947e-01
5.701707e-01
5.691207e-01
5.681249e-01
5.672876e-01
5.667227e-01
5.665211e-01
5.667180e-01
5.672801e-01
5.681195e-01
5.691295e-01
5.701939e-01
5.713136e-01
5.722231e-01
0.000000e+00
1.000000e+00
5.728546e-01
5.723465e-01
5.719878e-01
5.716087e-01
5.712490e-01
5.709463e-01
5.707416e-01
5.706674e-01
5.707356e-01
5.709345e-01
5.712340e-01
5.715980e-01
5.719928e-01
5.725542e-01
5.730577e-01
0.000000e+00
1.000000e+00
5.731862e-01
5.729437e-01
5.729377e-01
5.729096e-01
5.728828e-01
5.728601e-01
5.728444e-01
5.728381e-01
5.728415e-01
5.728539e-01
5.728735e-01
5.729016e-01
5.729322e-01
5.732445e-01
5.751272e-01
0.000000e+00
1.000000e+00
5.732211e-01
5.729936e-01
5.730286e-01
5.730342e-01
5.730395e-01
5.730438e-01
5.730466e-01
5.730473e-01
5.730458e-01
5.730417e-01
5.730348e-01
5.730271e-01
5.730129e-01
5.731592e-01
5.754846e-01
0.000000e+00
1.000000e+00
5.729698e-01
5.725482e-01
5.723376e-01
5.720882e-01
5.718518e-01
5.716532e-01
5.715196e-01
5.714726e-01
5.715203e-01
5.716541e-01
5.718509e-01
5.720822e-01
5.723305e-01
5.725337e-01
5.748563e-01
0.000000e+00
1.000000e+00
5.725279e-01
5.716993e-01
5.709949e-01
5.702500e-01
5.695439e-01
5.689506e-01
5.685512e-01
5.684103e-01
5.685532e-01
5.689570e-01
5.695569e-01
5.702631e-01
5.710162e-01
5.716014e-01
5.739235e-01
0.000000e+00
1.000000e+00
5.719488e-01
5.705358e-01
5.691569e-01
5.677335e-01
5.663841e-01
5.652507e-01
5.644880e-01
5.642197e-01
5.644942e-01
5.652668e-01
5.664138e-01
5.677684e-01
5.692059e-01
5.703873e-01
5.730879e-01
0.000000e+00
1.000000e+00
5.712532e-01
5.691502e-01
5.669777e-01
5.647500e-01
5.626384e-01
5.608653e-01
5.596728e-01
5.592546e-01
5.596861e-01
5.608950e-01
5.626857e-01
5.648018e-01
5.670359e-01
5.689741e-01
5.715118e-01
0.000000e+00
1.000000e+00
5.638592e-01
5.539527e-01
5.431875e-01
5.321850e-01
5.217707e-01
5.130440e-01
5.071951e-01
5.051708e-01
5.073271e-01
5.132921e-01
5.220600e-01
5.325949e-01
5.434317e-01
5.542721e-01
5.630336e-01
0.000000e+00
1.000000e+00
5.644129e-01
5.551362e-01
5.450404e-01
5.347211e-01
5.249522e-01
5.167661e-01
5.112801e-01
5.093828e-01
5.114072e-01
5.170015e-01
5.252518e-01
5.350911e-01
5.452614e-01
5.553903e-01
5.638805e-01
0.000000e+00
1.000000e+00
5.651420e-01
5.566986e-01
5.474834e-01
5.380645e-01
5.291465e-01
5.216725e-01
5.166633e-01
5.149298e-01
5.167766e-01
5.218807e-01
5.294271e-01
5.383982e-01
5.477076e-01
5.570257e-01
5.648710e-01
0.000000e+00
1.000000e+00
5.660561e-01
5.586147e-01
5.504776e-01
5.421623e-01
5.342876e-01
5.276868e-01
5.232620e-01
5.217297e-01
5.233598e-01
5.278652e-01
5.345359e-01
5.424669e-01
5.507127e-01
5.592329e-01
5.645897e-01
0.000000e+00
1.000000e+00
5.671176e-01
5.608220e-01
5.539283e-01
5.468854e-01
5.402145e-01
5.346209e-01
5.308701e-01
5.295698e-01
5.309490e-01
5.347645e-01
5.404168e-01
5.471660e-01
5.541511e-01
5.615793e-01
5.644006e-01
0.000000e+00
1.000000e+00
5.682784e-01
5.632199e-01
5.576786e-01
5.520193e-01
5.466577e-01
5.421605e-01
5.391429e-01
5.380948e-01
5.392011e-01
5.422669e-01
5.468081e-01
5.522566e-01
5.578615e-01
5.636671e-01
5.661614e-01
0.000000e+00
1.000000e+00
5.694742e-01
5.656728e-01
5.615157e-01
5.572721e-01
5.532508e-01
5.498766e-01
5.476107e-01
5.468209e-01
5.476476e-01
5.499463e-01
5.533511e-01
5.574467e-01
5.616608e-01
5.657780e-01
5.689305e-01
0.000000e+00
1.000000e+00
5.706360e-01
5.680201e-01
5.651892e-01
5.623011e-01
5.595636e-01
5.572657e-01
5.557208e-01
5.551792e-01
5.557380e-01
5.573013e-01
5.596204e-01
5.624127e-01
5.653068e-01
5.680093e-01
5.710492e-01
0.000000e+00
1.000000e+00
5.716844e-01
5.700963e-01
5.684424e-01
5.667550e-01
5.651552e-01
5.638113e-01
5.629062e-01
5.625860e-01
5.629079e-01
5.638183e-01
5.651756e-01
5.668168e-01
5.685337e-01
5.701276e-01
5.728166e-01
0.000000e+00
1.000000e+00
5.725426e-01
5.717564e-01
5.710493e-01
5.703242e-01
5.696366e-01
5.690583e-01
5.686677e-01
5.685273e-01
5.686610e-01
5.690473e-01
5.696297e-01
5.703457e-01
5.711100e-01
5.718529e-01
5.727478e-01
0.000000e+00
1.000000e+00
5.731590e-01
5.728958e-01
5.728480e-01
5.727867e-01
5.727285e-01
5.726792e-01
5.726451e-01
5.726307e-01
5.726377e-01
5.726661e-01
5.727152e-01
5.727874e-01
5.728858e-01
5.728418e-01
5.701067e-01
0.000000e+00
1.000000e+00
5.734841e-01
5.734644e-01
5.737599e-01
5.740353e-01
5.742964e-01
5.745155e-01
5.746628e-01
5.747136e-01
5.746584e-01
5.745089e-01
5.742924e-01
5.740387e-01
5.737818e-01
5.734667e-01
5.715368e-01
0.000000e+00
1.000000e+00
5.735043e-01
5.734728e-01
5.737915e-01
5.740787e-01
5.743511e-01
5.745798e-01
5.747335e-01
5.747869e-01
5.747305e-01
5.745756e-01
5.743490e-01
5.740774e-01
5.737959e-01
5.737154e-01
5.740997e-01
0.000000e+00
1.000000e+00
5.732290e-01
5.729750e-01
5.730262e-01
5.730309e-01
5.730354e-01
5.730392e-01
5.730413e-01
5.730411e-01
5.730378e-01
5.730326e-01
5.730275e-01
5.730193e-01
5.730235e-01
5.732438e-01
5.751939e-01
0.000000e+00
1.000000e+00
5.727415e-01
5.720728e-01
5.715976e-01
5.710749e-01
5.705795e-01
5.701633e-01
5.698830e-01
5.697837e-01
5.698825e-01
5.701632e-01
5.705781e-01
5.710710e-01
5.716128e-01
5.722313e-01
5.749032e-01
0.000000e+00
1.000000e+00
5.721390e-01
5.708590e-01
5.696683e-01
5.684338e-01
5.672637e-01
5.662809e-01
5.656193e-01
5.653863e-01
5.656233e-01
5.662920e-01
5.672816e-01
5.684529e-01
5.697115e-01
5.709114e-01
5.745183e-01
0.000000e+00
1.000000e+00
5.714050e-01
5.694186e-01
5.674007e-01
5.653292e-01
5.633658e-01
5.617173e-01
5.606086e-01
5.602196e-01
5.606204e-01
5.617441e-01
5.634046e-01
5.653677e-01
5.674537e-01
5.692766e-01
5.737118e-01
0.000000e+00
1.000000e+00
5.643786e-01
5.551436e-01
5.450482e-01
5.347298e-01
5.249628e-01
5.167794e-01
5.112962e-01
5.094008e-01
5.114258e-01
5.170231e-01
5.252458e-01
5.351237e-01
5.452883e-01
5.554880e-01
5.633454e-01
0.000000e+00
1.000000e+00
5.649538e-01
5.563151e-01
5.468806e-01
5.372386e-01
5.281100e-01
5.204605e-01
5.153349e-01
5.135637e-01
5.154574e-01
5.206878e-01
5.283981e-01
5.375898e-01
5.471032e-01
5.565540e-01
5.645937e-01
0.000000e+00
1.000000e+00
5.656788e-01
5.578648e-01
5.493053e-01
5.405581e-01
5.322758e-01
5.253347e-01
5.206836e-01
5.190758e-01
5.207936e-01
5.255374e-01
5.325492e-01
5.408806e-01
5.495355e-01
5.581980e-01
5.653892e-01
0.000000e+00
1.000000e+00
5.665944e-01
5.597754e-01
5.522912e-01
5.446450e-01
5.374037e-01
5.313339e-01
5.272661e-01
5.258591e-01
5.273607e-01
5.315078e-01
5.376477e-01
5.449459e-01
5.525382e-01
5.603856e-01
5.650276e-01
0.000000e+00
1.000000e+00
5.676615e-01
5.619825e-01
5.557420e-01
5.493687e-01
5.433317e-01
5.382700e-01
5.348765e-01
5.337019e-01
5.349525e-01
5.384096e-01
5.435340e-01
5.496516e-01
5.559800e-01
5.626797e-01
5.650670e-01
0.000000e+00
1.000000e+00
5.688281e-01
5.643847e-01
5.594993e-01
5.545122e-01
5.497873e-01
5.458246e-01
5.431662e-01
5.422442e-01
5.432214e-01
5.459272e-01
5.499414e-01
5.547601e-01
5.597123e-01
5.648392e-01
5.670337e-01
0.000000e+00
1.000000e+00
5.700314e-01
5.668435e-01
5.633459e-01
5.597780e-01
5.563971e-01
5.535607e-01
5.516563e-01
5.509929e-01
5.516893e-01
5.536254e-01
5.565018e-01
5.599793e-01
5.635389e-01
5.670568e-01
5.691313e-01
0.000000e+00
1.000000e+00
5.712033e-01
5.691942e-01
5.670253e-01
5.648152e-01
5.627205e-01
5.609623e-01
5.597803e-01
5.593652e-01
5.597923e-01
5.609899e-01
5.627780e-01
5.649628e-01
5.671992e-01
5.692403e-01
5.714274e-01
0.000000e+00
1.000000e+00
5.722620e-01
5.712663e-01
5.702737e-01
5.692626e-01
5.683041e-01
5.674990e-01
5.669562e-01
5.667627e-01
5.669526e-01
5.674956e-01
5.683174e-01
5.693487e-01
5.704140e-01
5.713231e-01
5.735928e-01
0.000000e+00
1.000000e+00
5.731292e-01
5.729103e-01
5.728580e-01
5.728012e-01
5.727474e-01
5.727018e-01
5.726701e-01
5.726563e-01
5.726614e-01
5.726866e-01
5.727380e-01
5.728362e-01
5.729737e-01
5.730359e-01
5.733350e-01
0.000000e+00
1.000000e+00
5.737472e-01
5.740198e-01
5.746123e-01
5.752033e-01
5.757638e-01
5.762349e-01
5.765520e-01
5.766635e-01
5.765491e-01
5.762321e-01
5.757716e-01
5.752377e-01
5.747196e-01
5.739760e-01
5.716358e-01
0.000000e+00
1.000000e+00
5.740720e-01
5.745449e-01
5.754591e-01
5.763629e-01
5.772204e-01
5.779416e-01
5.784284e-01
5.786023e-01
5.784339e-01
5.779560e-01
5.772503e-01
5.764079e-01
5.755531e-01
5.742973e-01
5.704806e-01
0.000000e+00
1.000000e+00
5.740872e-01
5.744937e-01
5.754094e-01
5.762947e-01
5.771346e-01
5.778411e-01
5.783180e-01
5.784886e-01
5.783236e-01
5.778533e-01
5.771597e-01
5.763274e-01
5.754805e-01
5.742790e-01
5.696657e-01
0.000000e+00
1.000000e+00
5.737876e-01
5.739220e-01
5.745479e-01
5.751144e-01
5.756518e-01
5.761034e-01
5.764074e-01
5.765142e-01
5.764052e-01
5.761020e-01
5.756596e-01
5.751223e-01
5.745954e-01
5.739969e-01
5.709511e-01
0.000000e+00
1.000000e+00
5.732411e-01
5.729537e-01
5.730120e-01
5.730118e-01
5.730120e-01
5.730123e-01
5.730124e-01
5.730115e-01
5.730089e-01
5.730068e-01
5.730065e-01
5.730061e-01
5.730527e-01
5.732252e-01
5.731490e-01
0.000000e+00
1.000000e+00
5.725832e-01
5.716835e-01
5.709677e-01
5.702132e-01
5.694983e-01
5.688983e-01
5.684948e-01