<?xml version="1.0"?>
<VTKFile type="StructuredGrid" version="0.1">
  <StructuredGrid WholeExtent="0 16 0 16 0 16">
    <Piece Extent="0 16 0 16 0 16">
      <PointData Scalars="temperature" Vectors="velocity">
        <DataArray type="Float32" Name="temperature" format="ascii">
1.000000e+00
5.727729e-01
5.722851e-01
5.718714e-01
5.714485e-01
5.710484e-01
5.707132e-01
5.704878e-01
5.704072e-01
5.704847e-01
5.707102e-01
5.710511e-01
5.716046e-01
5.720512e-01
5.734188e-01
5.681445e-01
0.000000e+00
1.000000e+00
5.736013e-01
5.738549e-01
5.743375e-01
5.748249e-01
5.752875e-01
5.756763e-01
5.759373e-01
5.760257e-01
5.759238e-01
5.756506e-01
5.752504e-01
5.749263e-01
5.745049e-01
5.748092e-01
5.699039e-01
0.000000e+00
1.000000e+00
5.745544e-01
5.757032e-01
5.772434e-01
5.788035e-01
5.802829e-01
5.815253e-01
5.823602e-01
5.826497e-01
5.823415e-01
5.814931e-01
5.802458e-01
5.788588e-01
5.774210e-01
5.767014e-01
5.695373e-01
0.000000e+00
1.000000e+00
5.756437e-01
5.777948e-01
5.805340e-01
5.833095e-01
5.859413e-01
5.881514e-01
5.896375e-01
5.901578e-01
5.896219e-01
5.881335e-01
5.859419e-01
5.833860e-01
5.807068e-01
5.788710e-01
5.702730e-01
0.000000e+00
1.000000e+00
5.768465e-01
5.800647e-01
5.841121e-01
5.882087e-01
5.920946e-01
5.953597e-01
5.975577e-01
5.983330e-01
5.975537e-01
5.953700e-01
5.921414e-01
5.883223e-01
5.842734e-01
5.809443e-01
5.720079e-01
0.000000e+00
1.000000e+00
5.780993e-01
5.824286e-01
5.878429e-01
5.933161e-01
5.985080e-01
6.028725e-01
6.058148e-01
6.068594e-01
6.058278e-01
6.029140e-01
5.985920e-01
5.934589e-01
5.880029e-01
5.831093e-01
5.734916e-01
0.000000e+00
1.000000e+00
5.793612e-01
5.847775e-01
5.915588e-01
5.984034e-01
6.048963e-01
6.103553e-01
6.140379e-01
6.153510e-01
6.140688e-01
6.104263e-01
6.050155e-01
5.985800e-01
5.917276e-01
5.852044e-01
5.762047e-01
0.000000e+00
1.000000e+00
5.805688e-01
5.869907e-01
5.950712e-01
6.032125e-01
6.109358e-01
6.174311e-01
6.218169e-01
6.233876e-01
6.218712e-01
6.175420e-01
6.111076e-01
6.034476e-01
5.952699e-01
5.873374e-01
5.781583e-01
0.000000e+00
1.000000e+00
5.816428e-01
5.889492e-01
5.981908e-01
6.074830e-01
6.162985e-01
6.237154e-01
6.287293e-01
6.305350e-01
6.288179e-01
6.238873e-01
6.165507e-01
6.077982e-01
5.984323e-01
5.892690e-01
5.797787e-01
0.000000e+00
1.000000e+00
5.825151e-01
5.905495e-01
6.007472e-01
6.109806e-01
6.206904e-01
6.288641e-01
6.343971e-01
6.364021e-01
6.345292e-01
6.291148e-01
6.210376e-01
6.113795e-01
6.010458e-01
5.908967e-01
5.810256e-01
0.000000e+00
1.000000e+00
5.831960e-01
5.916983e-01
6.026027e-01
6.135203e-01
6.238822e-01
6.326093e-01
6.385241e-01
6.406799e-01
6.387008e-01
6.329413e-01
6.243252e-01
6.139897e-01
6.029597e-01
5.920898e-01
5.815671e-01
0.000000e+00
1.000000e+00
5.836606e-01
5.923361e-01
6.036742e-01
6.149911e-01
6.257345e-01
6.347860e-01
6.409258e-01
6.431719e-01
6.411350e-01
6.351804e-01
6.262548e-01
6.155088e-01
6.040445e-01
5.927665e-01
5.817701e-01
0.000000e+00
1.000000e+00
5.837889e-01
5.924784e-01
6.039449e-01
6.153634e-01
6.262048e-01
6.353409e-01
6.415398e-01
6.438103e-01
6.417626e-01
6.357687e-01
6.267761e-01
6.159050e-01
6.042915e-01
5.929335e-01
5.818316e-01
0.000000e+00
1.000000e+00
5.835952e-01
5.921676e-01
6.034464e-01
6.146776e-01
6.253401e-01
6.343248e-01
6.404244e-01
6.426609e-01
6.406463e-01
6.347645e-01
6.259263e-01
6.152051e-01
6.037474e-01
5.926096e-01
5.817884e-01
0.000000e+00
1.000000e+00
5.832106e-01
5.914222e-01
6.022345e-01
6.130146e-01
6.232517e-01
6.318811e-01
6.377425e-01
6.398963e-01
6.379523e-01
6.323177e-01
6.238361e-01
6.135280e-01
6.025309e-01
5.918207e-01
5.814290e-01
0.000000e+00
1.000000e+00
5.826596e-01
5.902430e-01
6.004184e-01
6.105329e-01
6.201387e-01
6.282343e-01
6.337301e-01
6.357478e-01
6.339229e-01
6.286467e-01
6.207002e-01
6.110325e-01
6.007305e-01
5.906428e-01
5.810486e-01
0.000000e+00
1.000000e+00
5.818122e-01
5.887854e-01
5.981276e-01
6.073975e-01
6.162006e-01
6.236180e-01
6.286501e-01
6.304929e-01
6.288271e-01
6.239998e-01
6.167274e-01
6.078786e-01
5.984706e-01
5.891608e-01
5.803813e-01
0.000000e+00
1.000000e+00
5.735009e-01
5.736942e-01
5.740858e-01
5.744802e-01
5.748544e-01
5.751687e-01
5.753795e-01
5.754506e-01
5.753679e-01
5.751470e-01
5.748248e-01
5.745747e-01
5.742239e-01
5.746368e-01
5.680754e-01
0.000000e+00
1.000000e+00
5.743543e-01
5.753063e-01
5.766210e-01
5.779512e-01
5.792125e-01
5.802717e-01
5.809833e-01
5.812301e-01
5.809673e-01
5.802431e-01
5.791766e-01
5.780023e-01
5.767744e-01
5.757257e-01
5.728710e-01
0.000000e+00
1.000000e+00
5.753421e-01
5.772013e-01
5.796034e-01
5.820349e-01
5.843403e-01
5.862762e-01
5.875780e-01
5.880337e-01
5.875636e-01
5.862576e-01
5.843330e-01
5.820926e-01
5.797790e-01
5.776653e-01
5.730053e-01
0.000000e+00
1.000000e+00
5.764677e-01
5.793406e-01
5.829732e-01
5.866492e-01
5.901354e-01
5.930641e-01
5.950354e-01
5.957304e-01
5.950299e-01
5.930678e-01
5.901686e-01
5.867465e-01
5.831459e-01
5.797403e-01
5.744122e-01
0.000000e+00
1.000000e+00
5.776953e-01
5.816554e-01
5.866261e-01
5.916499e-01
5.964152e-01
6.004204e-01
6.031196e-01
6.040765e-01
6.031278e-01
6.004513e-01
5.964829e-01
5.917802e-01
5.868069e-01
5.820014e-01
5.762927e-01
0.000000e+00
1.000000e+00
5.789789e-01
5.840525e-01
5.904152e-01
5.968374e-01
6.029292e-01
6.080502e-01
6.115039e-01
6.127337e-01
6.115282e-01
6.081081e-01
6.030286e-01
5.970066e-01
5.906128e-01
5.843849e-01
5.771577e-01
0.000000e+00
1.000000e+00
5.802576e-01
5.864131e-01
5.941570e-01
6.019605e-01
6.093627e-01
6.155870e-01
6.197881e-01
6.212901e-01
6.198328e-01
6.156792e-01
6.095067e-01
6.021897e-01
5.943868e-01
5.867122e-01
5.788627e-01
0.000000e+00
1.000000e+00
5.814569e-01
5.886078e-01
5.976478e-01
6.067391e-01
6.153633e-01
6.226177e-01
6.275195e-01
6.292811e-01
6.275957e-01
6.227659e-01
6.155816e-01
6.070527e-01
5.979306e-01
5.889476e-01
5.801263e-01
0.000000e+00
1.000000e+00
5.825075e-01
5.905076e-01
6.006835e-01
6.108930e-01
6.205789e-01
6.287307e-01
6.342470e-01
6.362430e-01
6.343705e-01
6.289635e-01
6.209014e-01
6.112951e-01
6.010359e-01
5.908848e-01
5.810479e-01
0.000000e+00
1.000000e+00
5.833605e-01
5.919969e-01
6.030814e-01
6.141733e-01
6.246992e-01
6.335643e-01
6.395731e-01
6.417640e-01
6.397534e-01
6.338969e-01
6.251362e-01
6.146579e-01
6.035113e-01
5.924137e-01
5.817248e-01
0.000000e+00
1.000000e+00
5.840186e-01
5.929748e-01
6.047010e-01
6.163923e-01
6.274922e-01
6.368472e-01
6.431969e-01
6.455262e-01
6.434275e-01
6.372690e-01
6.280352e-01
6.169634e-01
6.051797e-01
5.934475e-01
5.821893e-01
0.000000e+00
1.000000e+00
5.844274e-01
5.933890e-01
6.054681e-01
6.174509e-01
6.288317e-01
6.384267e-01
6.449437e-01
6.473419e-01
6.452038e-01
6.389061e-01
6.294571e-01
6.180933e-01
6.059426e-01
5.939476e-01
5.823460e-01
0.000000e+00
1.000000e+00
5.844935e-01
5.932637e-01
6.053795e-01
6.173382e-01
6.286969e-01
6.382738e-01
6.447792e-01
6.471735e-01
6.450458e-01
6.387778e-01
6.293704e-01
6.180142e-01
6.058214e-01
5.938861e-01
5.823187e-01
0.000000e+00
1.000000e+00
5.842358e-01
5.926693e-01
6.044869e-01
6.161169e-01
6.271625e-01
6.364754e-01
6.428037e-01
6.451321e-01
6.430598e-01
6.369810e-01
6.278445e-01
6.167697e-01
6.048967e-01
5.932950e-01
5.823605e-01
0.000000e+00
1.000000e+00
5.837469e-01
5.916463e-01
6.028731e-01
6.139086e-01
6.243888e-01
6.332240e-01
6.392279e-01
6.414387e-01
6.394631e-01
6.337110e-01
6.250471e-01
6.145224e-01
6.032768e-01
5.922576e-01
5.819106e-01
0.000000e+00
1.000000e+00
5.829528e-01
5.902883e-01
6.006718e-01
6.108914e-01
6.205960e-01
6.287745e-01
6.343279e-01
6.363717e-01
6.345412e-01
6.292206e-01
6.211987e-01
6.114507e-01
6.010749e-01
5.908459e-01
5.812954e-01
0.000000e+00
1.000000e+00
5.818741e-01
5.886832e-01
5.980162e-01
6.072492e-01
6.160159e-01
6.234009e-01
6.284103e-01
6.302481e-01
6.285997e-01
6.237863e-01
6.165298e-01
6.077274e-01
5.983745e-01
5.891634e-01
5.812151e-01
0.000000e+00
1.000000e+00
5.741316e-01
5.749038e-01
5.759894e-01
5.770863e-01
5.781264e-01
5.789995e-01
5.795861e-01
5.797897e-01
5.795728e-01
5.789751e-01
5.780965e-01
5.771303e-01
5.760950e-01
5.755623e-01
5.693789e-01
0.000000e+00
1.000000e+00
5.749919e-01
5.765426e-01
5.785681e-01
5.806171e-01
5.825597e-01
5.841909e-01
5.852879e-01
5.856719e-01
5.852756e-01
5.841733e-01
5.825472e-01
5.806543e-01
5.787053e-01
5.767996e-01
5.739407e-01
0.000000e+00
1.000000e+00
5.760011e-01
5.784672e-01
5.815988e-01
5.847668e-01
5.877708e-01
5.902943e-01
5.919926e-01
5.925911e-01
5.919867e-01
5.902933e-01
5.877898e-01
5.848376e-01
5.817629e-01
5.788010e-01
5.741700e-01
0.000000e+00
1.000000e+00
5.771621e-01
5.806345e-01
5.850181e-01
5.894483e-01
5.936500e-01
5.971810e-01
5.995600e-01
6.004029e-01
5.995653e-01
5.972030e-01
5.937008e-01
5.895586e-01
5.851966e-01
5.809156e-01
5.754969e-01
0.000000e+00
1.000000e+00
5.784113e-01
5.829747e-01
5.887154e-01
5.945103e-01
6.000063e-01
6.046260e-01
6.077410e-01
6.088493e-01
6.077604e-01
6.046724e-01
6.000848e-01
5.946621e-01
5.889210e-01
5.832663e-01
5.771391e-01
0.000000e+00
1.000000e+00
5.796996e-01
5.853863e-01
5.925326e-01
5.997361e-01
6.065688e-01
6.123133e-01
6.161898e-01
6.175741e-01
6.162264e-01
6.123887e-01
6.066842e-01
5.999456e-01
5.927714e-01
5.856995e-01
5.781461e-01
0.000000e+00
1.000000e+00
5.809741e-01
5.877423e-01
5.962724e-01
6.048554e-01
6.129970e-01
6.198445e-01
6.244695e-01
6.261283e-01
6.245324e-01
6.199676e-01
6.131786e-01
6.051474e-01
5.965588e-01
5.880685e-01
5.796175e-01
0.000000e+00
1.000000e+00
5.821726e-01
5.898997e-01
5.997150e-01
6.095673e-01
6.189135e-01
6.267775e-01
6.320960e-01
6.340159e-01
6.322026e-01
6.269813e-01
6.192017e-01
6.099539e-01
6.000750e-01
5.902749e-01
5.806987e-01
0.000000e+00
1.000000e+00
5.832128e-01
5.917205e-01
6.026428e-01
6.135732e-01
6.239440e-01
6.326760e-01
6.385919e-01
6.407457e-01
6.387606e-01
6.329893e-01
6.243645e-01
6.140714e-01
6.030497e-01
5.921404e-01
5.815521e-01
0.000000e+00
1.000000e+00
5.840436e-01
5.930806e-01
6.048645e-01
6.166132e-01
6.277655e-01
6.371638e-01
6.435431e-01
6.458841e-01
6.437759e-01
6.375863e-01
6.283106e-01
6.172086e-01
6.053149e-01
5.935553e-01
5.822009e-01
0.000000e+00
1.000000e+00
5.846601e-01
5.938740e-01
6.062394e-01
6.185019e-01
6.301487e-01
6.399703e-01
6.466442e-01
6.491054e-01
6.469219e-01
6.404711e-01
6.307840e-01
6.191538e-01
6.067377e-01
5.944516e-01
5.825867e-01
0.000000e+00
1.000000e+00
5.850004e-01
5.940518e-01
6.067044e-01
6.191545e-01
6.309812e-01
6.409547e-01
6.477326e-01
6.502351e-01
6.480265e-01
6.414923e-01
6.316763e-01
6.198460e-01
6.072220e-01
5.947663e-01
5.827363e-01
0.000000e+00
1.000000e+00
5.849829e-01
5.936475e-01
6.062737e-01
6.185795e-01
6.302634e-01
6.401135e-01
6.468053e-01
6.492715e-01
6.470905e-01
6.406548e-01
6.309890e-01
6.193054e-01
6.068006e-01
5.944764e-01
5.828096e-01
0.000000e+00
1.000000e+00
5.846075e-01
5.927841e-01
6.050164e-01
6.168579e-01
6.280969e-01
6.375708e-01
6.440075e-01
6.463766e-01
6.442685e-01
6.380970e-01
6.288222e-01
6.175722e-01
6.055230e-01
5.936572e-01
5.828447e-01
0.000000e+00
1.000000e+00
5.839505e-01
5.915491e-01
6.030311e-01
6.141363e-01
6.246762e-01
6.335598e-01
6.395951e-01
6.418173e-01
6.398278e-01
6.340527e-01
6.253656e-01
6.147981e-01
6.034867e-01
5.923954e-01
5.822054e-01
0.000000e+00
1.000000e+00
5.829378e-01
5.900731e-01
6.004703e-01
6.106210e-01
6.202568e-01
6.283762e-01
6.338879e-01
6.359148e-01
6.340964e-01
6.288142e-01
6.208721e-01
6.112025e-01
6.008941e-01
5.907937e-01
5.816136e-01
0.000000e+00
1.000000e+00
5.817040e-01
5.883292e-01
5.974819e-01
6.065196e-01
6.151000e-01
6.223275e-01
6.272287e-01
6.290252e-01
6.274128e-01
6.226991e-01
6.156139e-01
6.070048e-01
5.978598e-01
5.889879e-01
5.815275e-01
0.000000e+00
1.000000e+00
5.746193e-01
5.758338e-01
5.774560e-01
5.790943e-01
5.806475e-01
5.819517e-01
5.828287e-01
5.831355e-01
5.828180e-01
5.819350e-01
5.806330e-01
5.791187e-01
5.775522e-01
5.762285e-01
5.712787e-01
0.000000e+00
1.000000e+00
5.754831e-01
5.774754e-01
5.800402e-01
5.826329e-01
5.850911e-01
5.871557e-01
5.885452e-01
5.890346e-01
5.885391e-01
5.871510e-01
5.850977e-01
5.826784e-01
5.801692e-01
5.776217e-01
5.750692e-01
0.000000e+00
1.000000e+00
5.764975e-01
5.794033e-01
5.830785e-01
5.867923e-01
5.903143e-01
5.932737e-01
5.952672e-01
5.959729e-01
5.952692e-01
5.932864e-01
5.903458e-01
5.868758e-01
5.832415e-01
5.796872e-01
5.751077e-01
0.000000e+00
1.000000e+00
5.776493e-01
5.815761e-01
5.865061e-01
5.914848e-01
5.962067e-01
6.001752e-01
6.028506e-01
6.038016e-01
6.028645e-01
6.002092e-01
5.962632e-01
5.916094e-01
5.866977e-01
5.818263e-01
5.762173e-01
0.000000e+00
1.000000e+00
5.788972e-01
5.839181e-01
5.902064e-01
5.965507e-01
6.025680e-01
6.076264e-01
6.110390e-01
6.122563e-01
6.110673e-01
6.076845e-01
6.026546e-01
5.967288e-01
5.904306e-01
5.841962e-01
5.776714e-01
0.000000e+00
1.000000e+00
5.801896e-01
5.863205e-01
5.940118e-01
6.017602e-01
6.091096e-01
6.152896e-01
6.194622e-01
6.209558e-01
6.195103e-01
6.153841e-01
6.092536e-01
6.020113e-01
5.942794e-01
5.866273e-01
5.787826e-01
0.000000e+00
1.000000e+00
5.814705e-01
5.886465e-01
5.977130e-01
6.068265e-01
6.154713e-01
6.227433e-01
6.276581e-01
6.294262e-01
6.277401e-01
6.229051e-01
6.157136e-01
6.071721e-01
5.980403e-01
5.889869e-01
5.800433e-01
0.000000e+00
1.000000e+00
5.826669e-01
5.907447e-01
6.010777e-01
6.114317e-01
6.212541e-01
6.295211e-01
6.351168e-01
6.371454e-01
6.352553e-01
6.297887e-01
6.216280e-01
6.118738e-01
6.014811e-01
5.911372e-01
5.810562e-01
0.000000e+00
1.000000e+00
5.836838e-01
5.924721e-01
6.038779e-01
6.152627e-01
6.260665e-01
6.351668e-01
6.413390e-01
6.435975e-01
6.415497e-01
6.355593e-01
6.265757e-01
6.158125e-01
6.043309e-01
5.929247e-01
5.818819e-01
0.000000e+00
1.000000e+00
5.844946e-01
5.936921e-01
6.059141e-01
6.180519e-01
6.295769e-01
6.392941e-01
6.458962e-01
6.483306e-01
6.461710e-01
6.397911e-01
6.302011e-01
6.186951e-01
6.064055e-01
5.942352e-01
5.824229e-01
0.000000e+00
1.000000e+00
5.850792e-01
5.942934e-01
6.070489e-01
6.196192e-01
6.315610e-01
6.416333e-01
6.484817e-01
6.510149e-01
6.487903e-01
6.421898e-01
6.322579e-01
6.203001e-01
6.075629e-01
5.950084e-01
5.828320e-01
0.000000e+00
1.000000e+00
5.853521e-01
5.942283e-01
6.072343e-01
6.198951e-01
6.319180e-01
6.420558e-01
6.489466e-01
6.514939e-01
6.492576e-01
6.426270e-01
6.326532e-01
6.205944e-01
6.077888e-01
5.951689e-01
5.831391e-01
0.000000e+00
1.000000e+00
5.852146e-01
5.935322e-01
6.064996e-01
6.189005e-01
6.306663e-01
6.405846e-01
6.473222e-01
6.498046e-01
6.476115e-01
6.411415e-01
6.314178e-01
6.196506e-01
6.070765e-01
5.947083e-01
5.832085e-01
0.000000e+00
1.000000e+00
5.847183e-01
5.924183e-01
6.049220e-01
6.167341e-01
6.279386e-01
6.373834e-01
6.437987e-01
6.461576e-01
6.440511e-01
6.379086e-01
6.286805e-01
6.174760e-01
6.054561e-01
5.937169e-01
5.830994e-01
0.000000e+00
1.000000e+00
5.838625e-01
5.911149e-01
6.026168e-01
6.135713e-01
6.239643e-01
6.327238e-01
6.386727e-01
6.408594e-01
6.388913e-01
6.332000e-01
6.246578e-01
6.142521e-01
6.030930e-01
5.922592e-01
5.824397e-01
0.000000e+00
1.000000e+00
5.826616e-01
5.896124e-01
5.997569e-01
6.096439e-01
6.190282e-01
6.269349e-01
6.323001e-01
6.342678e-01
6.324940e-01
6.273440e-01
6.196340e-01
6.102270e-01
6.001986e-01
5.904796e-01
5.818669e-01
0.000000e+00
1.000000e+00
5.813344e-01
5.877329e-01
5.965011e-01
6.051767e-01
6.134127e-01
6.203495e-01
6.250514e-01
6.267698e-01
6.252193e-01
6.206879e-01
6.139025e-01
6.056435e-01
5.968814e-01
5.883863e-01
5.811865e-01
0.000000e+00
1.000000e+00
5.749329e-01
5.764077e-01
5.783629e-01
5.803362e-01
5.822069e-01
5.837779e-01
5.848349e-01
5.852067e-01
5.848281e-01
5.837691e-01
5.822015e-01
5.803598e-01
5.784567e-01
5.766745e-01
5.724533e-01
0.000000e+00
1.000000e+00
5.757951e-01
5.780204e-01
5.809028e-01
5.838141e-01
5.865746e-01
5.888937e-01
5.904553e-01
5.910071e-01
5.904538e-01
5.888966e-01
5.865883e-01
5.838667e-01
5.810390e-01
5.781364e-01
5.756705e-01
0.000000e+00
1.000000e+00
5.767956e-01
5.799170e-01
5.838953e-01
5.879109e-01
5.917188e-01
5.949187e-01
5.970751e-01
5.978403e-01
5.970823e-01
5.949389e-01
5.917523e-01
5.879998e-01
5.840749e-01
5.801758e-01
5.758301e-01
0.000000e+00
1.000000e+00
5.778994e-01
5.820620e-01
5.872772e-01
5.925403e-01
5.975318e-01
6.017274e-01
6.045568e-01
6.055644e-01
6.045761e-01
6.017672e-01
5.975902e-01
5.926760e-01
5.874854e-01
5.823011e-01
5.768947e-01
0.000000e+00
1.000000e+00
5.791026e-01
5.843760e-01
5.909279e-01
5.975372e-01
6.038058e-01
6.090764e-01
6.126333e-01
6.139039e-01
6.126670e-01
6.091422e-01
6.039096e-01
5.977461e-01
5.911665e-01
5.846553e-01
5.780424e-01
0.000000e+00
1.000000e+00
5.803880e-01
5.867407e-01
5.946727e-01
6.026633e-01
6.102424e-01
6.166165e-01
6.209215e-01
6.224647e-01
6.209775e-01
6.167285e-01
6.104341e-01
6.029579e-01
5.949530e-01
5.870499e-01
5.791437e-01
0.000000e+00
1.000000e+00
5.816792e-01
5.890110e-01
5.982935e-01
6.076203e-01
6.164675e-01
6.239106e-01
6.289428e-01
6.307568e-01
6.290387e-01
6.241074e-01
6.167827e-01
6.080165e-01
5.986213e-01
5.893657e-01
5.802173e-01
0.000000e+00
1.000000e+00
5.828650e-01
5.910325e-01
6.015508e-01
6.120792e-01
6.220674e-01
6.304755e-01
6.361691e-01
6.382389e-01
6.363295e-01
6.307940e-01
6.225179e-01
6.125650e-01
6.019508e-01
5.914316e-01
5.811729e-01
0.000000e+00
1.000000e+00
5.838479e-01
5.926601e-01
6.042097e-01
6.157174e-01
6.266393e-01
6.358413e-01
6.420855e-01
6.443771e-01
6.423216e-01
6.362896e-01
6.272097e-01
6.162774e-01
6.047084e-01
5.931108e-01
5.819738e-01
0.000000e+00
1.000000e+00
5.846247e-01
5.937507e-01
6.060660e-01
6.182639e-01
6.298477e-01
6.396159e-01
6.462544e-01
6.487071e-01
6.465493e-01
6.401585e-01
6.305152e-01
6.188914e-01
6.066712e-01
5.942961e-01
5.825804e-01
0.000000e+00
1.000000e+00
5.851562e-01
5.941939e-01
6.069883e-01
6.195445e-01
6.314719e-01
6.415310e-01
6.483700e-01
6.509010e-01
6.486871e-01
6.421144e-01
6.322062e-01
6.202613e-01
6.075813e-01
5.949758e-01
5.831485e-01
0.000000e+00
1.000000e+00
5.853484e-01
5.939405e-01
6.069388e-01
6.194982e-01
6.314200e-01
6.414714e-01
6.483009e-01
6.508229e-01
6.486076e-01
6.420489e-01
6.321838e-01
6.202502e-01
6.075194e-01
5.950478e-01
5.834676e-01
0.000000e+00
1.000000e+00
5.850566e-01
5.930350e-01
6.059593e-01
6.181601e-01
6.297315e-01
6.394865e-01
6.461121e-01
6.485447e-01
6.463822e-01
6.400303e-01
6.304891e-01
6.189240e-01
6.065316e-01
5.944767e-01
5.834013e-01
0.000000e+00
1.000000e+00
5.844366e-01
5.918014e-01
6.041305e-01
6.156428e-01
6.265623e-01
6.357689e-01
6.420240e-01
6.443154e-01
6.422474e-01
6.362664e-01
6.272937e-01
6.163779e-01
6.046501e-01
5.933385e-01
5.832407e-01
0.000000e+00
1.000000e+00
5.834261e-01
5.904807e-01
6.015837e-01
6.121488e-01
6.221730e-01
6.306223e-01
6.363631e-01
6.384692e-01
6.365558e-01
6.310609e-01
6.228442e-01
6.128159e-01
6.020566e-01
5.916212e-01
5.822608e-01
0.000000e+00
1.000000e+00
5.821398e-01
5.889117e-01
5.985127e-01
6.079324e-01
6.168725e-01
6.244039e-01
6.295157e-01
6.313890e-01
6.296903e-01
6.247684e-01
6.174442e-01
6.084850e-01
5.989435e-01
5.896491e-01
5.813142e-01
0.000000e+00
1.000000e+00
5.807750e-01
5.868862e-01
5.950780e-01
6.032248e-01
6.109567e-01
6.174663e-01
6.218764e-01
6.234844e-01
6.220218e-01
6.177571e-01
6.114023e-01
6.036484e-01
5.954367e-01
5.873426e-01
5.798276e-01
0.000000e+00
1.000000e+00
5.750128e-01
5.765621e-01
5.786055e-01
5.806681e-01
5.826236e-01
5.842661e-01
5.853713e-01
5.857606e-01
5.853658e-01
5.842585e-01
5.826171e-01
5.806881e-01
5.787061e-01
5.767447e-01
5.727672e-01
0.000000e+00
1.000000e+00
5.758573e-01
5.781087e-01
5.810417e-01
5.840043e-01
5.868135e-01
5.891736e-01
5.907632e-01
5.913253e-01
5.907624e-01
5.891772e-01
5.868242e-01
5.840531e-01
5.811898e-01
5.782341e-01
5.754870e-01
0.000000e+00
1.000000e+00
5.768308e-01
5.799347e-01
5.839256e-01
5.879525e-01
5.917712e-01
5.949802e-01
5.971429e-01
5.979108e-01
5.971512e-01
5.950008e-01
5.918013e-01
5.880469e-01
5.841100e-01
5.801852e-01
5.757634e-01
0.000000e+00
1.000000e+00
5.779018e-01
5.820080e-01
5.871966e-01
5.924304e-01
5.973941e-01
6.015663e-01
6.043802e-01
6.053827e-01
6.044002e-01
6.016059e-01
5.974567e-01
5.925916e-01
5.874119e-01
5.822517e-01
5.768542e-01
0.000000e+00
1.000000e+00
5.790642e-01
5.842496e-01
5.907345e-01
5.972729e-01
6.034742e-01
6.086881e-01
6.122070e-01
6.134644e-01
6.122411e-01
6.087554e-01
6.036025e-01
5.975184e-01
5.909759e-01
5.845355e-01
5.778836e-01
0.000000e+00
1.000000e+00
5.802894e-01
5.865431e-01
5.943640e-01
6.022405e-01
6.097113e-01
6.159943e-01
6.202379e-01
6.217595e-01
6.202944e-01
6.161128e-01
6.099449e-01
6.025681e-01
5.946386e-01
5.868530e-01
5.790007e-01
0.000000e+00
1.000000e+00
5.815215e-01
5.887410e-01
5.978635e-01
6.070304e-01
6.157262e-01
6.230421e-01
6.279884e-01
6.297715e-01
6.280853e-01
6.232520e-01
6.160848e-01
6.074494e-01
5.981718e-01
5.890851e-01
5.800310e-01
0.000000e+00
1.000000e+00
5.826853e-01
5.906783e-01
6.009873e-01
6.113076e-01
6.210990e-01
6.293411e-01
6.349221e-01
6.369505e-01
6.350836e-01
6.296757e-01
6.215800e-01
6.118168e-01
6.013721e-01
5.910499e-01
5.809573e-01
0.000000e+00
1.000000e+00
5.836343e-01
5.922121e-01
6.034997e-01
6.147474e-01
6.254228e-01
6.344161e-01
6.405171e-01
6.427545e-01
6.407519e-01
6.348765e-01
6.260089e-01
6.153419e-01
6.039982e-01
5.926283e-01
5.818730e-01
0.000000e+00
1.000000e+00
5.843240e-01
5.932136e-01
6.051996e-01
6.170795e-01
6.283610e-01
6.378720e-01
6.443330e-01
6.467166e-01
6.446204e-01
6.384193e-01
6.290395e-01
6.177311e-01
6.058212e-01
5.937232e-01
5.826281e-01
0.000000e+00
1.000000e+00
5.847305e-01
5.935844e-01
6.059571e-01
6.181316e-01
6.296949e-01
6.394453e-01
6.460705e-01
6.485157e-01
6.463702e-01
6.400213e-01
6.304358e-01
6.188526e-01
6.065723e-01
5.943310e-01
5.832008e-01
0.000000e+00
1.000000e+00
5.848021e-01
5.932744e-01
6.057404e-01
6.178484e-01
6.293415e-01
6.390314e-01
6.456153e-01
6.480356e-01
6.458915e-01
6.395870e-01
6.301018e-01
6.186108e-01
6.063138e-01
5.943259e-01
5.834447e-01
0.000000e+00
1.000000e+00
5.845309e-01
5.922231e-01
6.045812e-01
6.162659e-01
6.273502e-01
6.366964e-01
6.430476e-01
6.453722e-01
6.432796e-01
6.372060e-01
6.280920e-01
6.170237e-01
6.051265e-01
5.936204e-01
5.832920e-01
0.000000e+00
1.000000e+00
5.839623e-01
5.908230e-01
6.025890e-01
6.135300e-01
6.239088e-01
6.326605e-01
6.386088e-01
6.407895e-01
6.387962e-01
6.331103e-01
6.246038e-01
6.142316e-01
6.030925e-01
5.922734e-01
5.826942e-01
0.000000e+00
1.000000e+00
5.828454e-01
5.894950e-01
5.999084e-01
6.098516e-01
6.192872e-01
6.272412e-01
6.326477e-01
6.346357e-01
6.328151e-01
6.276260e-01
6.199115e-01
6.104731e-01
6.003633e-01
5.904171e-01
5.812366e-01
0.000000e+00
1.000000e+00
5.814982e-01
5.878643e-01
5.967374e-01
6.054953e-01
6.138081e-01
6.208110e-01
6.255648e-01
6.273110e-01
6.257219e-01
6.211237e-01
6.143264e-01
6.059955e-01
5.971353e-01
5.883942e-01
5.800918e-01
0.000000e+00
1.000000e+00
5.801003e-01
5.857648e-01
5.932342e-01
6.006956e-01
6.077758e-01
6.137349e-01
6.177702e-01
6.192407e-01
6.178914e-01
6.139795e-01
6.081632e-01
6.010627e-01
5.935478e-01
5.861121e-01
5.789405e-01
0.000000e+00
1.000000e+00
5.748399e-01
5.762501e-01
5.781117e-01
5.799915e-01
5.817738e-01
5.832706e-01
5.842774e-01
5.846311e-01
5.842693e-01
5.832575e-01
5.817564e-01
5.799881e-01
5.782235e-01
5.763782e-01
5.729739e-01
0.000000e+00
1.000000e+00
5.756448e-01
5.776905e-01
5.803804e-01
5.830987e-01
5.856764e-01
5.878420e-01
5.893003e-01
5.898153e-01
5.892973e-01
5.878397e-01
5.856756e-01
5.831374e-01
5.805329e-01
5.778219e-01
5.752929e-01
0.000000e+00
1.000000e+00
5.765604e-01
5.794057e-01
5.830882e-01
5.868060e-01
5.903316e-01
5.932943e-01
5.952906e-01
5.959983e-01
5.952948e-01
5.933071e-01
5.903531e-01
5.869179e-01
5.832773e-01
5.796460e-01
5.755184e-01
0.000000e+00
1.000000e+00
5.775866e-01
5.813654e-01
5.861799e-01
5.910385e-01
5.956466e-01
5.995196e-01
6.021309e-01
6.030602e-01
6.021465e-01
5.995514e-01
5.957100e-01
5.912274e-01
5.863997e-01
5.816055e-01
5.765769e-01
0.000000e+00
1.000000e+00
5.787152e-01
5.834912e-01
5.895389e-01
5.956372e-01
6.014211e-01
6.062835e-01
6.095642e-01
6.107352e-01
6.095928e-01
6.063414e-01
6.015608e-01
5.959040e-01
5.897831e-01
5.837766e-01
5.775391e-01
0.000000e+00
1.000000e+00
5.798734e-01
5.856744e-01
5.929958e-01
6.003688e-01
6.073622e-01
6.132429e-01
6.172135e-01
6.186353e-01
6.172612e-01
6.133486e-01
6.076076e-01
6.007061e-01
5.932665e-01
5.859792e-01
5.785862e-01
0.000000e+00
1.000000e+00
5.810137e-01
5.877755e-01
5.963330e-01
6.049358e-01
6.130966e-01
6.199616e-01
6.246012e-01
6.262699e-01
6.246831e-01
6.201534e-01
6.134578e-01
6.053590e-01
5.966324e-01
5.880960e-01
5.795792e-01
0.000000e+00
1.000000e+00
5.821034e-01
5.896277e-01
5.993053e-01
6.090054e-01
6.182087e-01
6.259540e-01
6.311950e-01
6.330933e-01
6.313333e-01
6.262628e-01
6.186794e-01
6.095246e-01
5.996689e-01
5.899556e-01
5.805998e-01
0.000000e+00
1.000000e+00
5.829890e-01
5.910872e-01
6.016784e-01
6.122555e-01
6.222936e-01
6.307471e-01
6.364762e-01
6.385678e-01
6.366804e-01
6.311725e-01
6.228538e-01
6.128704e-01
6.021285e-01
5.914629e-01
5.816641e-01
0.000000e+00
1.000000e+00
5.835843e-01
5.920364e-01
6.032558e-01
6.144183e-01
6.250165e-01
6.339482e-01
6.400089e-01
6.422331e-01
6.402602e-01
6.344530e-01
6.256530e-01
6.150831e-01
6.038039e-01
5.925077e-01
5.824156e-01
0.000000e+00
1.000000e+00
5.839099e-01
5.923755e-01
6.039094e-01
6.153208e-01
6.261583e-01
6.352954e-01
6.415019e-01
6.437803e-01
6.417602e-01
6.358281e-01
6.268560e-01
6.160090e-01
6.044824e-01
5.930458e-01
5.829028e-01
0.000000e+00
1.000000e+00
5.839790e-01
5.920079e-01
6.035960e-01
6.149024e-01
6.256377e-01
6.346911e-01
6.408470e-01
6.431039e-01
6.410803e-01
6.352047e-01
6.263600e-01
6.156139e-01
6.041422e-01
5.929401e-01
5.830373e-01
0.000000e+00
1.000000e+00
5.837252e-01
5.909366e-01
6.023652e-01
6.132266e-01
6.235323e-01
6.322221e-01
6.381310e-01
6.402992e-01
6.383256e-01
6.326790e-01
6.242211e-01
6.139246e-01
6.028734e-01
5.920853e-01
5.824927e-01
0.000000e+00
1.000000e+00
5.831867e-01
5.895173e-01
6.003307e-01
6.104382e-01
6.200262e-01
6.281087e-01
6.336023e-01
6.356248e-01
6.337652e-01
6.284949e-01
6.206513e-01
6.110649e-01
6.008001e-01
5.906599e-01
5.811824e-01
0.000000e+00
1.000000e+00
5.821326e-01
5.881363e-01
5.976419e-01
6.067473e-01
6.153878e-01
6.226690e-01
6.276159e-01
6.294393e-01
6.277711e-01
6.229865e-01
6.159338e-01
6.072861e-01
5.980499e-01
5.889286e-01
5.799402e-01
0.000000e+00
1.000000e+00
5.807646e-01
5.864746e-01
5.944907e-01
6.024167e-01
6.099397e-01
6.162750e-01
6.205720e-01
6.221503e-01
6.207145e-01
6.165315e-01
6.103815e-01
6.028420e-01
5.948336e-01
5.869232e-01
5.792162e-01
0.000000e+00
1.000000e+00
5.793485e-01
5.843924e-01
5.910317e-01
5.976778e-01
6.039834e-01
6.092890e-01
6.128785e-01
6.141833e-01
6.129760e-01
6.094904e-01
6.043044e-01
5.979829e-01
5.912951e-01
5.846861e-01
5.780060e-01
0.000000e+00
1.000000e+00
5.744314e-01
5.754530e-01
5.768557e-01
5.782715e-01
5.796136e-01
5.807403e-01
5.814973e-01
5.817609e-01
5.814836e-01
5.807155e-01
5.795762e-01
5.782465e-01
5.769671e-01
5.755707e-01
5.727398e-01
0.000000e+00
1.000000e+00
5.751615e-01
5.767482e-01
5.788949e-01
5.810648e-01
5.831223e-01
5.848503e-01
5.860131e-01
5.864221e-01
5.860054e-01
5.848376e-01
5.831022e-01
5.810840e-01
5.790557e-01
5.768913e-01
5.747452e-01
0.000000e+00
1.000000e+00
5.759821e-01
5.783140e-01
5.813626e-01
5.844434e-01
5.873651e-01
5.898202e-01
5.914737e-01
5.920580e-01
5.914716e-01
5.898190e-01
5.873642e-01
5.845540e-01
5.815693e-01
5.785509e-01
5.750004e-01
0.000000e+00
1.000000e+00
5.769229e-01
5.801220e-01
5.842109e-01
5.883427e-01
5.922615e-01
5.955552e-01
5.977754e-01
5.985630e-01
5.977813e-01
5.955698e-01
5.923050e-01
5.885393e-01
5.844450e-01
5.803604e-01
5.759661e-01
0.000000e+00
1.000000e+00
5.779852e-01
5.820983e-01
5.873317e-01
5.926153e-01
5.976268e-01
6.018393e-01
6.046801e-01
6.056914e-01
6.046972e-01
6.018758e-01
5.977507e-01
5.928869e-01
5.875882e-01
5.823763e-01
5.768616e-01
0.000000e+00
1.000000e+00
5.790860e-01
5.841394e-01
5.905650e-01
5.970419e-01
6.031855e-01
6.083509e-01
6.118364e-01
6.130807e-01
6.118676e-01
6.084246e-01
6.034113e-01
5.973775e-01
5.908463e-01
5.844271e-01
5.778211e-01
0.000000e+00
1.000000e+00
5.801486e-01
5.861180e-01
5.937045e-01
6.013392e-01
6.085817e-01
6.146729e-01
6.187863e-01
6.202599e-01
6.188410e-01
6.148182e-01
6.089198e-01
6.017522e-01
5.940097e-01
5.864026e-01
5.788583e-01
0.000000e+00
1.000000e+00
5.811325e-01
5.878801e-01
5.965149e-01
6.051865e-01
6.134137e-01
6.203359e-01
6.250150e-01
6.266997e-01
6.251111e-01
6.205859e-01
6.138561e-01
6.056835e-01
5.968661e-01
5.881701e-01
5.800035e-01
0.000000e+00
1.000000e+00
5.819295e-01
5.892807e-01
5.987663e-01
6.082690e-01
6.172872e-01
6.248786e-01
6.300164e-01
6.318782e-01
6.301666e-01
6.252359e-01
6.178053e-01
6.088511e-01
5.991719e-01
5.896282e-01
5.810695e-01
0.000000e+00
1.000000e+00
5.825008e-01
5.901930e-01
6.002651e-01
6.103223e-01
6.198687e-01
6.279107e-01
6.333633e-01
6.353502e-01
6.335584e-01
6.283443e-01
6.204404e-01
6.109582e-01
6.007395e-01
5.906404e-01
5.817564e-01
0.000000e+00
1.000000e+00
5.828365e-01
5.905188e-01
6.008867e-01
6.111735e-01
6.209407e-01
6.291747e-01
6.347694e-01
6.368174e-01
6.349799e-01
6.296399e-01
6.215520e-01
6.118174e-01
6.013932e-01
5.911205e-01
5.821784e-01
0.000000e+00
1.000000e+00
5.829228e-01
5.901873e-01
6.005802e-01
6.107615e-01
6.204298e-01
6.285830e-01
6.341291e-01
6.361696e-01
6.343278e-01
6.290324e-01
6.210607e-01
6.113858e-01
6.010741e-01
5.909189e-01
5.818878e-01
0.000000e+00
1.000000e+00
5.826396e-01
5.892658e-01
5.993978e-01
6.091525e-01
6.184119e-01
6.262179e-01
6.315255e-01
6.334823e-01
6.316992e-01
6.266086e-01
6.190112e-01
6.097452e-01
5.998478e-01
5.900407e-01
5.806702e-01
0.000000e+00
1.000000e+00
5.819772e-01
5.880210e-01
5.974522e-01
6.064869e-01
6.150602e-01
6.222847e-01
6.271929e-01
6.290024e-01
6.273468e-01
6.226018e-01
6.155905e-01
6.070058e-01
5.978469e-01
5.887820e-01
5.796274e-01
0.000000e+00
1.000000e+00
5.810378e-01
5.865576e-01
5.948817e-01
6.029611e-01
6.106289e-01
6.170878e-01
6.214722e-01
6.230865e-01
6.216177e-01
6.173426e-01
6.110796e-01
6.033975e-01
5.952162e-01
5.871756e-01
5.790361e-01
0.000000e+00
1.000000e+00
5.798014e-01
5.848603e-01
5.918710e-01
5.988268e-01
6.054282e-01
6.109851e-01
6.147495e-01