<?xml version="1.0"?>
<VTKFile type="StructuredGrid" version="0.1">
  <StructuredGrid WholeExtent="0 16 0 16 0 16">
    <Piece Extent="0 16 0 16 0 16">
      <PointData Scalars="temperature" Vectors="velocity">
        <DataArray type="Float32" Name="temperature" format="ascii">
1.000000e+00
5.807197e-01
5.884310e-01
5.973069e-01
6.062821e-01
6.147963e-01
6.219554e-01
6.267867e-01
6.285112e-01
6.268277e-01
6.220367e-01
6.149234e-01
6.063973e-01
5.974115e-01
5.886247e-01
5.801202e-01
0.000000e+00
1.000000e+00
5.798273e-01
5.866638e-01
5.945076e-01
6.024483e-01
6.099808e-01
6.163138e-01
6.205862e-01
6.221094e-01
6.206181e-01
6.163824e-01
6.100892e-01
6.025480e-01
5.946100e-01
5.868391e-01
5.793312e-01
0.000000e+00
1.000000e+00
5.788010e-01
5.846484e-01
5.913153e-01
5.980765e-01
6.044897e-01
6.098810e-01
6.135168e-01
6.148106e-01
6.135376e-01
6.099341e-01
6.045735e-01
5.981559e-01
5.914085e-01
5.847965e-01
5.783445e-01
0.000000e+00
1.000000e+00
5.776839e-01
5.824255e-01
5.878074e-01
5.932732e-01
5.984573e-01
6.028148e-01
6.057525e-01
6.067957e-01
6.057631e-01
6.028495e-01
5.985185e-01
5.933403e-01
5.878990e-01
5.825535e-01
5.773356e-01
0.000000e+00
1.000000e+00
5.765095e-01
5.800709e-01
5.840994e-01
5.881963e-01
5.920818e-01
5.953475e-01
5.975483e-01
5.983283e-01
5.975515e-01
5.953640e-01
5.921209e-01
5.882517e-01
5.841876e-01
5.801813e-01
5.762115e-01
0.000000e+00
1.000000e+00
5.753192e-01
5.776807e-01
5.803408e-01
5.830500e-01
5.856194e-01
5.877787e-01
5.892336e-01
5.897483e-01
5.892324e-01
5.877816e-01
5.856370e-01
5.830909e-01
5.804240e-01
5.777785e-01
5.750725e-01
0.000000e+00
1.000000e+00
5.741716e-01
5.753646e-01
5.767055e-01
5.780725e-01
5.793692e-01
5.804593e-01
5.811937e-01
5.814526e-01
5.811899e-01
5.804542e-01
5.793714e-01
5.780966e-01
5.767748e-01
5.754501e-01
5.739911e-01
0.000000e+00
1.000000e+00
5.731389e-01
5.732391e-01
5.733758e-01
5.735134e-01
5.736444e-01
5.737549e-01
5.738293e-01
5.738543e-01
5.738252e-01
5.737477e-01
5.736436e-01
5.735328e-01
5.734269e-01
5.733087e-01
5.729606e-01
0.000000e+00
1.000000e+00
5.723172e-01
5.714221e-01
5.705242e-01
5.696092e-01
5.687423e-01
5.680146e-01
5.675248e-01
5.673512e-01
5.675241e-01
5.680144e-01
5.687523e-01
5.696295e-01
5.705692e-01
5.714856e-01
5.719504e-01
0.000000e+00
1.000000e+00
5.716520e-01
5.699996e-01
5.682955e-01
5.665576e-01
5.649105e-01
5.635275e-01
5.625969e-01
5.622687e-01
5.626009e-01
5.635366e-01
5.649292e-01
5.665821e-01
5.683385e-01
5.700670e-01
5.711658e-01
0.000000e+00
1.000000e+00
5.711255e-01
5.690290e-01
5.667866e-01
5.644917e-01
5.623166e-01
5.604900e-01
5.592607e-01
5.588275e-01
5.592673e-01
5.605038e-01
5.623394e-01
5.645210e-01
5.668259e-01
5.691040e-01
5.706578e-01
0.000000e+00
1.000000e+00
5.708729e-01
5.685517e-01
5.660400e-01
5.634697e-01
5.610335e-01
5.589878e-01
5.576114e-01
5.571270e-01
5.576204e-01
5.590046e-01
5.610570e-01
5.635022e-01
5.660777e-01
5.686407e-01
5.703190e-01
0.000000e+00
1.000000e+00
5.708667e-01
5.685559e-01
5.660434e-01
5.634743e-01
5.610393e-01
5.589947e-01
5.576192e-01
5.571355e-01
5.576296e-01
5.590151e-01
5.610643e-01
5.635094e-01
5.660812e-01
5.686530e-01
5.703653e-01
0.000000e+00
1.000000e+00
5.710739e-01
5.690004e-01
5.667362e-01
5.644228e-01
5.622300e-01
5.603888e-01
5.591502e-01
5.587147e-01
5.591601e-01
5.604093e-01
5.622571e-01
5.644605e-01
5.667754e-01
5.691014e-01
5.706418e-01
0.000000e+00
1.000000e+00
5.714652e-01
5.698228e-01
5.680212e-01
5.661820e-01
5.644388e-01
5.629750e-01
5.619901e-01
5.616438e-01
5.619978e-01
5.629918e-01
5.644648e-01
5.662261e-01
5.680642e-01
5.699064e-01
5.712926e-01
0.000000e+00
1.000000e+00
5.720065e-01
5.709476e-01
5.697802e-01
5.685904e-01
5.674627e-01
5.665157e-01
5.658784e-01
5.656538e-01
5.658819e-01
5.665247e-01
5.674806e-01
5.686439e-01
5.698311e-01
5.710842e-01
5.719722e-01
0.000000e+00
1.000000e+00
5.726632e-01
5.722944e-01
5.718886e-01
5.714772e-01
5.710873e-01
5.707601e-01
5.705397e-01
5.704613e-01
5.705385e-01
5.707589e-01
5.710895e-01
5.715305e-01
5.719465e-01
5.726750e-01
5.711676e-01
0.000000e+00
1.000000e+00
5.815524e-01
5.900767e-01
5.998943e-01
6.098247e-01
6.192455e-01
6.271681e-01
6.325165e-01
6.344295e-01
6.325706e-01
6.272601e-01
6.193932e-01
6.099602e-01
6.000005e-01
5.902671e-01
5.810410e-01
0.000000e+00
1.000000e+00
5.807038e-01
5.884339e-01
5.972872e-01
6.062533e-01
6.147588e-01
6.219108e-01
6.267375e-01
6.284626e-01
6.267847e-01
6.219881e-01
6.148929e-01
6.063775e-01
5.973964e-01
5.886054e-01
5.802182e-01
0.000000e+00
1.000000e+00
5.797228e-01
5.865070e-01
5.942368e-01
6.020760e-01
6.095117e-01
6.157631e-01
6.199805e-01
6.214849e-01
6.200151e-01
6.158266e-01
6.096221e-01
6.021753e-01
5.943341e-01
5.866543e-01
5.792867e-01
0.000000e+00
1.000000e+00
5.786297e-01
5.843382e-01
5.908135e-01
5.973887e-01
6.036249e-01
6.088672e-01
6.124023e-01
6.136604e-01
6.124241e-01
6.089149e-01
6.037094e-01
5.974701e-01
5.909058e-01
5.844659e-01
5.782761e-01
0.000000e+00
1.000000e+00
5.774627e-01
5.819997e-01
5.871304e-01
5.923459e-01
5.972923e-01
6.014497e-01
6.042523e-01
6.052476e-01
6.042634e-01
6.014804e-01
5.973525e-01
5.924129e-01
5.872172e-01
5.821106e-01
5.771564e-01
0.000000e+00
1.000000e+00
5.762642e-01
5.795902e-01
5.833403e-01
5.871568e-01
5.907761e-01
5.938178e-01
5.958676e-01
5.965943e-01
5.958714e-01
5.938331e-01
5.908133e-01
5.872100e-01
5.834216e-01
5.796869e-01
5.760086e-01
0.000000e+00
1.000000e+00
5.750915e-01
5.772262e-01
5.796266e-01
5.820720e-01
5.843910e-01
5.863399e-01
5.876531e-01
5.881178e-01
5.876524e-01
5.863433e-01
5.844075e-01
5.821090e-01
5.797004e-01
5.773120e-01
5.748811e-01
0.000000e+00
1.000000e+00
5.740170e-01
5.750321e-01
5.761857e-01
5.773608e-01
5.784754e-01
5.794119e-01
5.800426e-01
5.802647e-01
5.800393e-01
5.794076e-01
5.784778e-01
5.773811e-01
5.762423e-01
5.751044e-01
5.738702e-01
0.000000e+00
1.000000e+00
5.731075e-01
5.731334e-01
5.732088e-01
5.732845e-01
5.733567e-01
5.734173e-01
5.734579e-01
5.734712e-01
5.734543e-01
5.734113e-01
5.733574e-01
5.732967e-01
5.732461e-01
5.731881e-01
5.729826e-01
0.000000e+00
1.000000e+00
5.724247e-01
5.716328e-01
5.708553e-01
5.700622e-01
5.693106e-01
5.686793e-01
5.682542e-01
5.681036e-01
5.682534e-01
5.686788e-01
5.693180e-01
5.700744e-01
5.708856e-01
5.716770e-01
5.722486e-01
0.000000e+00
1.000000e+00
5.718790e-01
5.705946e-01
5.692364e-01
5.678455e-01
5.665271e-01
5.654199e-01
5.646746e-01
5.644118e-01
5.646778e-01
5.654264e-01
5.665407e-01
5.678631e-01
5.692646e-01
5.706352e-01
5.717949e-01
0.000000e+00
1.000000e+00
5.716017e-01
5.700614e-01
5.684028e-01
5.667045e-01
5.650947e-01
5.637428e-01
5.628329e-01
5.625125e-01
5.628381e-01
5.637528e-01
5.651104e-01
5.667273e-01
5.684306e-01
5.701138e-01
5.714452e-01
0.000000e+00
1.000000e+00
5.715719e-01
5.700256e-01
5.683442e-01
5.666245e-01
5.649944e-01
5.636255e-01
5.627045e-01
5.623805e-01
5.627114e-01
5.636393e-01
5.650120e-01
5.666517e-01
5.683742e-01
5.701015e-01
5.713778e-01
0.000000e+00
1.000000e+00
5.717691e-01
5.704448e-01
5.689974e-01
5.675187e-01
5.661172e-01
5.649402e-01
5.641483e-01
5.638697e-01
5.641543e-01
5.649535e-01
5.661364e-01
5.675512e-01
5.690328e-01
5.705475e-01
5.714671e-01
0.000000e+00
1.000000e+00
5.721562e-01
5.712521e-01
5.702593e-01
5.692463e-01
5.682862e-01
5.674799e-01
5.669373e-01
5.667461e-01
5.669406e-01
5.674882e-01
5.683018e-01
5.692862e-01
5.702999e-01
5.713604e-01
5.719800e-01
0.000000e+00
1.000000e+00
5.726964e-01
5.723674e-01
5.720041e-01
5.716353e-01
5.712857e-01
5.709922e-01
5.707946e-01
5.707244e-01
5.707939e-01
5.709921e-01
5.712898e-01
5.716793e-01
5.720505e-01
5.725625e-01
5.724280e-01
0.000000e+00
1.000000e+00
5.733513e-01
5.737058e-01
5.741001e-01
5.745052e-01
5.748893e-01
5.752121e-01
5.754292e-01
5.755049e-01
5.754252e-01
5.752045e-01
5.748801e-01
5.745362e-01
5.741476e-01
5.740194e-01
5.715844e-01
0.000000e+00
1.000000e+00
5.822046e-01
5.914538e-01
6.020363e-01
6.127559e-01
6.229263e-01
6.314807e-01
6.372580e-01
6.393288e-01
6.373266e-01
6.315869e-01
6.230947e-01
6.129115e-01
6.021387e-01
5.916304e-01
5.816782e-01
0.000000e+00
1.000000e+00
5.814246e-01
5.899359e-01
5.996331e-01
6.094643e-01
6.187910e-01
6.266349e-01
6.319310e-01
6.338285e-01
6.319923e-01
6.267240e-01
6.189488e-01
6.096089e-01
5.997395e-01
5.901014e-01
5.808986e-01
0.000000e+00
1.000000e+00
5.805060e-01
5.881050e-01
5.967411e-01
6.055042e-01
6.138165e-01
6.208062e-01
6.255237e-01
6.272110e-01
6.255723e-01
6.208821e-01
6.139516e-01
6.056186e-01
5.968345e-01
5.882498e-01
5.800179e-01
0.000000e+00
1.000000e+00
5.794485e-01
5.860007e-01
5.934220e-01
6.009598e-01
6.081090e-01
6.141195e-01
6.181744e-01
6.196212e-01
6.182091e-01
6.141808e-01
6.082155e-01
6.010512e-01
5.935094e-01
5.861280e-01
5.790388e-01
0.000000e+00
1.000000e+00
5.782964e-01
5.836905e-01
5.897842e-01
5.959792e-01
6.018545e-01
6.067931e-01
6.101233e-01
6.113087e-01
6.101446e-01
6.068380e-01
6.019340e-01
5.960532e-01
5.898662e-01
5.838011e-01
5.779336e-01
0.000000e+00
1.000000e+00
5.770955e-01
5.812731e-01
5.859821e-01
5.907738e-01
5.953178e-01
5.991369e-01
6.017114e-01
6.026256e-01
6.017214e-01
5.991644e-01
5.953730e-01
5.908323e-01
5.860565e-01
5.813693e-01
5.767767e-01
0.000000e+00
1.000000e+00
5.759048e-01
5.788703e-01
5.822070e-01
5.856051e-01
5.888276e-01
5.915356e-01
5.933606e-01
5.940075e-01
5.933632e-01
5.915472e-01
5.888606e-01
5.856491e-01
5.822736e-01
5.789534e-01
5.756346e-01
0.000000e+00
1.000000e+00
5.747914e-01
5.766147e-01
5.786690e-01
5.807609e-01
5.827447e-01
5.844116e-01
5.855347e-01
5.859320e-01
5.855341e-01
5.844141e-01
5.827587e-01
5.807882e-01
5.787265e-01
5.766907e-01
5.745599e-01
0.000000e+00
1.000000e+00
5.738321e-01
5.746425e-01
5.755767e-01
5.765265e-01
5.774270e-01
5.781836e-01
5.786930e-01
5.788724e-01
5.786903e-01
5.781805e-01
5.774280e-01
5.765358e-01
5.756142e-01
5.747062e-01
5.736177e-01
0.000000e+00
1.000000e+00
5.731024e-01
5.730676e-01
5.731053e-01
5.731428e-01
5.731785e-01
5.732083e-01
5.732281e-01
5.732340e-01
5.732247e-01
5.732034e-01
5.731769e-01
5.731452e-01
5.731267e-01
5.731207e-01
5.728475e-01
0.000000e+00
1.000000e+00
5.725451e-01
5.719649e-01
5.713814e-01
5.707822e-01
5.702141e-01
5.697368e-01
5.694154e-01
5.693016e-01
5.694149e-01
5.697363e-01
5.702175e-01
5.707872e-01
5.713970e-01
5.720148e-01
5.723591e-01
0.000000e+00
1.000000e+00
5.722471e-01
5.713773e-01
5.704623e-01
5.695240e-01
5.686346e-01
5.678874e-01
5.673844e-01
5.672071e-01
5.673866e-01
5.678918e-01
5.686423e-01
5.695365e-01
5.704784e-01
5.714497e-01
5.719422e-01
0.000000e+00
1.000000e+00
5.721899e-01
5.713017e-01
5.703427e-01
5.693604e-01
5.684292e-01
5.676472e-01
5.671209e-01
5.669356e-01
5.671243e-01
5.676543e-01
5.684389e-01
5.693784e-01
5.703609e-01
5.714188e-01
5.717738e-01
0.000000e+00
1.000000e+00
5.723731e-01
5.716947e-01
5.709551e-01
5.701990e-01
5.694823e-01
5.688805e-01
5.684754e-01
5.683329e-01
5.684782e-01
5.688872e-01
5.694935e-01
5.702238e-01
5.709784e-01
5.718444e-01
5.718896e-01
0.000000e+00
1.000000e+00
5.727550e-01
5.724858e-01
5.721917e-01
5.718921e-01
5.716082e-01
5.713698e-01
5.712093e-01
5.711525e-01
5.712094e-01
5.713713e-01
5.716141e-01
5.719216e-01
5.722210e-01
5.726287e-01
5.724130e-01
0.000000e+00
1.000000e+00
5.732924e-01
5.735901e-01
5.739200e-01
5.742585e-01
5.745794e-01
5.748491e-01
5.750305e-01
5.750939e-01
5.750275e-01
5.748438e-01
5.745751e-01
5.742843e-01
5.739544e-01
5.737798e-01
5.727138e-01
0.000000e+00
1.000000e+00
5.739449e-01
5.749189e-01
5.760016e-01
5.771086e-01
5.781582e-01
5.790400e-01
5.796336e-01
5.798424e-01
5.796291e-01
5.790317e-01
5.781487e-01
5.771222e-01
5.760390e-01
5.751347e-01
5.724005e-01
0.000000e+00
1.000000e+00
5.826969e-01
5.924578e-01
6.036070e-01
6.149047e-01
6.256223e-01
6.346383e-01
6.407299e-01
6.429170e-01
6.408099e-01
6.347629e-01
6.258072e-01
6.150781e-01
6.037079e-01
5.926259e-01
5.821437e-01
0.000000e+00
1.000000e+00
5.819784e-01
5.910711e-01
6.014057e-01
6.118904e-01
6.218362e-01
6.302019e-01
6.358527e-01
6.378803e-01
6.359231e-01
6.303079e-01
6.220119e-01
6.120569e-01
6.015152e-01
5.912269e-01
5.814271e-01
0.000000e+00
1.000000e+00
5.810973e-01
5.893436e-01
5.986756e-01
6.081522e-01
6.171412e-01
6.247007e-01
6.298047e-01
6.316333e-01
6.298619e-01
6.247928e-01
6.172973e-01
6.082862e-01
5.987707e-01
5.894791e-01
5.805917e-01
0.000000e+00
1.000000e+00
5.800790e-01
5.873085e-01
5.954691e-01
6.037623e-01
6.116279e-01
6.182412e-01
6.227043e-01
6.242996e-01
6.227463e-01
6.183179e-01
6.117544e-01
6.038666e-01
5.955548e-01
5.874299e-01
5.796467e-01
0.000000e+00
1.000000e+00
5.789488e-01
5.850335e-01
5.918888e-01
5.988607e-01
6.054725e-01
6.110307e-01
6.147799e-01
6.161166e-01
6.148070e-01
6.110898e-01
6.055692e-01
5.989423e-01
5.919689e-01
5.851395e-01
5.785569e-01
0.000000e+00
1.000000e+00
5.777516e-01
5.826164e-01
5.880892e-01
5.936586e-01
5.989402e-01
6.033794e-01
6.063726e-01
6.074371e-01
6.063871e-01
6.034194e-01
5.990094e-01
5.937222e-01
5.881603e-01
5.827095e-01
5.774006e-01
0.000000e+00
1.000000e+00
5.765507e-01
5.801816e-01
5.842673e-01
5.884263e-01
5.923704e-01
5.956849e-01
5.979188e-01
5.987114e-01
5.979243e-01
5.957059e-01
5.924164e-01
5.884751e-01
5.843296e-01
5.802628e-01
5.762400e-01
0.000000e+00
1.000000e+00
5.754150e-01
5.778739e-01
5.806467e-01
5.834688e-01
5.861450e-01
5.883940e-01
5.899095e-01
5.904466e-01
5.899111e-01
5.884017e-01
5.861720e-01
5.835043e-01
5.806991e-01
5.779451e-01
5.751413e-01
0.000000e+00
1.000000e+00
5.744189e-01
5.758383e-01
5.774515e-01
5.790934e-01
5.806503e-01
5.819585e-01
5.828399e-01
5.831517e-01
5.828393e-01
5.819590e-01
5.806588e-01
5.791109e-01
5.774914e-01
5.758968e-01
5.741785e-01
0.000000e+00
1.000000e+00
5.736391e-01
5.741955e-01
5.748731e-01
5.755632e-01
5.762175e-01
5.767672e-01
5.771372e-01
5.772675e-01
5.771353e-01
5.767649e-01
5.762163e-01
5.755654e-01
5.748925e-01
5.742413e-01
5.733654e-01
0.000000e+00
1.000000e+00
5.730659e-01
5.730332e-01
5.730540e-01
5.730722e-01
5.730895e-01
5.731039e-01
5.731134e-01
5.731161e-01
5.731111e-01
5.731003e-01
5.730864e-01
5.730694e-01
5.730603e-01
5.730707e-01
5.728539e-01
0.000000e+00
1.000000e+00
5.727380e-01
5.723969e-01
5.720584e-01
5.717091e-01
5.713779e-01
5.710997e-01
5.709124e-01
5.708462e-01
5.709127e-01
5.711002e-01
5.713793e-01
5.717118e-01
5.720627e-01
5.724675e-01
5.723390e-01
0.000000e+00
1.000000e+00
5.726764e-01
5.722858e-01
5.718835e-01
5.714698e-01
5.710776e-01
5.707482e-01
5.705264e-01
5.704483e-01
5.705276e-01
5.707507e-01
5.710815e-01
5.714788e-01
5.718901e-01
5.724346e-01
5.720591e-01
0.000000e+00
1.000000e+00
5.728427e-01
5.726560e-01
5.724614e-01
5.722612e-01
5.720714e-01
5.719120e-01
5.718048e-01
5.717670e-01
5.718054e-01
5.719141e-01
5.720758e-01
5.722755e-01
5.724726e-01
5.728521e-01
5.721567e-01
0.000000e+00
1.000000e+00
5.732183e-01
5.734340e-01
5.736778e-01
5.739267e-01
5.741627e-01
5.743611e-01
5.744945e-01
5.745413e-01
5.744929e-01
5.743588e-01
5.741624e-01
5.739421e-01
5.736959e-01
5.736013e-01
5.727083e-01
0.000000e+00
1.000000e+00
5.737537e-01
5.745305e-01
5.753943e-01
5.762770e-01
5.771139e-01
5.778171e-01
5.782904e-01
5.784569e-01
5.782869e-01
5.778108e-01
5.771078e-01
5.762868e-01
5.754196e-01
5.746851e-01
5.729984e-01
0.000000e+00
1.000000e+00
5.744040e-01
5.758530e-01
5.774666e-01
5.791145e-01
5.806770e-01
5.819897e-01
5.828736e-01
5.831854e-01
5.828701e-01
5.819842e-01
5.806726e-01
5.791223e-01
5.775019e-01
5.759794e-01
5.733291e-01
0.000000e+00
1.000000e+00
5.829754e-01
5.930173e-01
6.044869e-01
6.161120e-01
6.271396e-01
6.364152e-01
6.426820e-01
6.449336e-01
6.427656e-01
6.365554e-01
6.273307e-01
6.163014e-01
6.045929e-01
5.931831e-01
5.824101e-01
0.000000e+00
1.000000e+00
5.823059e-01
5.917473e-01
6.024705e-01
6.133518e-01
6.236722e-01
6.323515e-01
6.382146e-01
6.403193e-01
6.382861e-01
6.324723e-01
6.238529e-01
6.135391e-01
6.025871e-01
5.919055e-01
5.817583e-01
0.000000e+00
1.000000e+00
5.814828e-01
5.901160e-01
5.998934e-01
6.098215e-01
6.192369e-01
6.271542e-01
6.325009e-01
6.344177e-01
6.325599e-01
6.272600e-01
6.194020e-01
6.099755e-01
5.999920e-01
5.902536e-01
5.809639e-01
0.000000e+00
1.000000e+00
5.804998e-01
5.881526e-01
5.967958e-01
6.055796e-01
6.139094e-01
6.209128e-01
6.256399e-01
6.273310e-01
6.256837e-01
6.210008e-01
6.140482e-01
6.056980e-01
5.968809e-01
5.882734e-01
5.800486e-01
0.000000e+00
1.000000e+00
5.793846e-01
5.859154e-01
5.932749e-01
6.007591e-01
6.078561e-01
6.138221e-01
6.178470e-01
6.192832e-01
6.178755e-01
6.138905e-01
6.079654e-01
6.008494e-01
5.933539e-01
5.860209e-01
5.789768e-01
0.000000e+00
1.000000e+00
5.781914e-01
5.835027e-01
5.894840e-01
5.955695e-01
6.013402e-01
6.061904e-01
6.094607e-01
6.106246e-01
6.094765e-01
6.062378e-01
6.014200e-01
5.956384e-01
5.895539e-01
5.835967e-01
5.778228e-01
0.000000e+00
1.000000e+00
5.769830e-01
5.810458e-01
5.856264e-01
5.902876e-01
5.947081e-01
5.984231e-01
6.009275e-01
6.018170e-01
6.009351e-01
5.984521e-01
5.947645e-01
5.903415e-01
5.856884e-01
5.811270e-01
5.766548e-01
0.000000e+00
1.000000e+00
5.758247e-01
5.786973e-01
5.819375e-01
5.852363e-01
5.883645e-01
5.909936e-01
5.927656e-01
5.933942e-01
5.927684e-01
5.910067e-01
5.884012e-01
5.852779e-01
5.819878e-01
5.787646e-01
5.755301e-01
0.000000e+00
1.000000e+00
5.747965e-01
5.766068e-01
5.786549e-01
5.807412e-01
5.827196e-01
5.843822e-01
5.855024e-01
5.858991e-01
5.855023e-01
5.843841e-01
5.827350e-01
5.807668e-01
5.786941e-01
5.766603e-01
5.745459e-01
0.000000e+00
1.000000e+00
5.739744e-01
5.749057e-01
5.759858e-01
5.770866e-01
5.781304e-01
5.790074e-01
5.795981e-01
5.798070e-01
5.795974e-01
5.790065e-01
5.781320e-01
5.770934e-01
5.760058e-01
5.749476e-01
5.737135e-01
0.000000e+00
1.000000e+00
5.733873e-01
5.736924e-01
5.740852e-01
5.744842e-01
5.748625e-01
5.751801e-01
5.753938e-01
5.754686e-01
5.753914e-01
5.751765e-01
5.748581e-01
5.744800e-01
5.740883e-01
5.737224e-01
5.732003e-01
0.000000e+00
1.000000e+00
5.730393e-01
5.730171e-01
5.730287e-01
5.730374e-01
5.730458e-01
5.730527e-01
5.730573e-01
5.730587e-01
5.730565e-01
5.730511e-01
5.730432e-01
5.730333e-01
5.730245e-01
5.730860e-01
5.726040e-01
0.000000e+00
1.000000e+00
5.729658e-01
5.728795e-01
5.728124e-01
5.727415e-01
5.726744e-01
5.726180e-01
5.725800e-01
5.725668e-01
5.725805e-01
5.726189e-01
5.726754e-01
5.727432e-01
5.728101e-01
5.730675e-01
5.721580e-01
0.000000e+00
1.000000e+00
5.731307e-01
5.732355e-01
5.733689e-01
5.735035e-01
5.736312e-01
5.737385e-01
5.738108e-01
5.738363e-01
5.738107e-01
5.737387e-01
5.736321e-01
5.735087e-01
5.733709e-01
5.734823e-01
5.722582e-01
0.000000e+00
1.000000e+00
5.735010e-01
5.740085e-01
5.745783e-01
5.751595e-01
5.757106e-01
5.761736e-01
5.764852e-01
5.765950e-01
5.764833e-01
5.761703e-01
5.757076e-01
5.751642e-01
5.745889e-01
5.741933e-01
5.727397e-01
0.000000e+00
1.000000e+00
5.740364e-01
5.751056e-01
5.762961e-01
5.775116e-01
5.786642e-01
5.796325e-01
5.802844e-01
5.805143e-01
5.802813e-01
5.796272e-01
5.786588e-01
5.775143e-01
5.763183e-01
5.752665e-01
5.730537e-01
0.000000e+00
1.000000e+00
5.746899e-01
5.764305e-01
5.783727e-01
5.803551e-01
5.822348e-01
5.838141e-01
5.848778e-01
5.852537e-01
5.848757e-01
5.838115e-01
5.822338e-01
5.803630e-01
5.784067e-01
5.765151e-01
5.739014e-01
0.000000e+00
1.000000e+00
5.829993e-01
5.930955e-01
6.045957e-01
6.162590e-01
6.273249e-01
6.366342e-01
6.429239e-01
6.451832e-01
6.430096e-01
6.367845e-01
6.275154e-01
6.164579e-01
6.047005e-01
5.932453e-01
5.824362e-01
0.000000e+00
1.000000e+00
5.823879e-01
5.919173e-01
6.027284e-01
6.137039e-01
6.241163e-01
6.328742e-01
6.387898e-01
6.409119e-01
6.388613e-01
6.330045e-01
6.242968e-01
6.139052e-01
6.028482e-01
5.920675e-01
5.818357e-01
0.000000e+00
1.000000e+00
5.816020e-01
5.903625e-01
6.002736e-01
6.103437e-01
6.198961e-01
6.279284e-01
6.333514e-01
6.352939e-01
6.334093e-01
6.280413e-01
6.200636e-01
6.105177e-01
6.003810e-01
5.904964e-01
5.810755e-01
0.000000e+00
1.000000e+00
5.806447e-01
5.884531e-01
5.972655e-01
6.062253e-01
6.147233e-01
6.218676e-01
6.266890e-01
6.284123e-01
6.267312e-01
6.219602e-01
6.148675e-01
6.063597e-01
5.973556e-01
5.885728e-01
5.801848e-01
0.000000e+00
1.000000e+00
5.795485e-01
5.862465e-01
5.937946e-01
6.014725e-01
6.087544e-01
6.148756e-01
6.190049e-01
6.204774e-01
6.190325e-01
6.149474e-01
6.088724e-01
6.015754e-01
5.938785e-01
5.863530e-01
5.791287e-01
0.000000e+00
1.000000e+00
5.783597e-01
5.838404e-01
5.900126e-01
5.962938e-01
6.022510e-01
6.072584e-01
6.106353e-01
6.118369e-01
6.106517e-01
6.073098e-01
6.023417e-01
5.963733e-01
5.900871e-01
5.839343e-01
5.779772e-01
0.000000e+00
1.000000e+00
5.771415e-01
5.813678e-01
5.861277e-01
5.909738e-01
5.955699e-01
5.994331e-01
6.020379e-01
6.029633e-01
6.020466e-01
5.994653e-01
5.956356e-01
5.910356e-01
5.861933e-01
5.814467e-01
5.767969e-01
0.000000e+00
1.000000e+00
5.759652e-01
5.789844e-01
5.823838e-01
5.858473e-01
5.891319e-01
5.918923e-01
5.937529e-01
5.944127e-01
5.937553e-01
5.919059e-01
5.891729e-01
5.858956e-01
5.824374e-01
5.790484e-01
5.756559e-01
0.000000e+00
1.000000e+00
5.749123e-01
5.768484e-01
5.790309e-01
5.812561e-01
5.833663e-01
5.851395e-01
5.863342e-01
5.867570e-01
5.863331e-01
5.851399e-01
5.833821e-01
5.812880e-01
5.790741e-01
5.768990e-01
5.746493e-01
0.000000e+00
1.000000e+00
5.740614e-01
5.751014e-01
5.762910e-01
5.775045e-01
5.786552e-01
5.796220e-01
5.802732e-01
5.805032e-01
5.802714e-01
5.796189e-01
5.786549e-01
5.775133e-01
5.763143e-01
5.751414e-01
5.737901e-01
0.000000e+00
1.000000e+00
5.734574e-01
5.738495e-01
5.743295e-01
5.748188e-01
5.752825e-01
5.756720e-01
5.759340e-01
5.760259e-01
5.759314e-01
5.756674e-01
5.752763e-01
5.748143e-01
5.743344e-01
5.738796e-01
5.732549e-01
0.000000e+00
1.000000e+00
5.731048e-01
5.731480e-01
5.732319e-01
5.733156e-01
5.733949e-01
5.734614e-01
5.735059e-01
5.735210e-01
5.735037e-01
5.734571e-01
5.733884e-01
5.733077e-01
5.732266e-01
5.732235e-01
5.726165e-01
0.000000e+00
1.000000e+00
5.730180e-01
5.729975e-01
5.729958e-01
5.729925e-01
5.729893e-01
5.729865e-01
5.729847e-01
5.729839e-01
5.729843e-01
5.729854e-01
5.729867e-01
5.729886e-01
5.729909e-01
5.732313e-01
5.720449e-01
0.000000e+00
1.000000e+00
5.731915e-01
5.733521e-01
5.735504e-01
5.737521e-01
5.739433e-01
5.741039e-01
5.742121e-01
5.742502e-01
5.742116e-01
5.741030e-01
5.739415e-01
5.737513e-01
5.735513e-01
5.736442e-01
5.721588e-01
0.000000e+00
1.000000e+00
5.735650e-01
5.741332e-01
5.747732e-01
5.754263e-01
5.760456e-01
5.765658e-01
5.769160e-01
5.770393e-01
5.769139e-01
5.765620e-01
5.760407e-01
5.754249e-01
5.747845e-01
5.743535e-01
5.726470e-01
0.000000e+00
1.000000e+00
5.741065e-01
5.752440e-01
5.765130e-01
5.778085e-01
5.790369e-01
5.800689e-01
5.807638e-01
5.810089e-01
5.807608e-01
5.800639e-01
5.790311e-01
5.778073e-01
5.765333e-01
5.754262e-01
5.729706e-01
0.000000e+00
1.000000e+00
5.747655e-01
5.765851e-01
5.786151e-01
5.806870e-01
5.826516e-01
5.843022e-01
5.854140e-01
5.858072e-01
5.854123e-01
5.842999e-01
5.826502e-01
5.806939e-01
5.786513e-01
5.766412e-01
5.740551e-01
0.000000e+00
1.000000e+00
5.827636e-01
5.926569e-01
6.038898e-01
6.152917e-01
6.261084e-01
6.352075e-01
6.413558e-01
6.435632e-01
6.414426e-01
6.353597e-01
6.262914e-01
6.154935e-01
6.039912e-01
5.927855e-01
5.822138e-01
0.000000e+00
1.000000e+00
5.821902e-01
5.915403e-01
6.021235e-01
6.128751e-01
6.230744e-01
6.316533e-01
6.374478e-01
6.395240e-01
6.375188e-01
6.317865e-01
6.232510e-01
6.130770e-01
6.022405e-01
5.916783e-01
5.816526e-01
0.000000e+00
1.000000e+00
5.814329e-01
5.900362e-01
5.997514e-01
6.096276e-01
6.189960e-01
6.268748e-01
6.321945e-01
6.340970e-01
6.322509e-01
6.269915e-01
6.191632e-01
6.098091e-01
5.998626e-01
5.901631e-01
5.809185e-01
0.000000e+00
1.000000e+00
5.804959e-01
5.881625e-01
5.968010e-01
6.055879e-01
6.139226e-01
6.209311e-01
6.256615e-01
6.273499e-01
6.257018e-01
6.210260e-01
6.140708e-01
6.057325e-01
5.968947e-01
5.882762e-01
5.800412e-01
0.000000e+00
1.000000e+00
5.794101e-01
5.859739e-01
5.933591e-01
6.008753e-01
6.080043e-01
6.139981e-01
6.180421e-01
6.194830e-01
6.180682e-01
6.140698e-01
6.081288e-01
6.009890e-01
5.934480e-01
5.860760e-01
5.789932e-01
0.000000e+00
1.000000e+00
5.782216e-01
5.835674e-01
5.895775e-01
5.956973e-01
6.015017e-01
6.063811e-01
6.096720e-01
6.108427e-01
6.096872e-01
6.064299e-01
6.015983e-01
5.957866e-01
5.896573e-01
5.836574e-01
5.778415e-01
0.000000e+00
1.000000e+00
5.769949e-01
5.810778e-01
5.856670e-01
5.903428e-01
5.947773e-01
5.985047e-01
6.010176e-01
6.019099e-01
6.010244e-01
5.985316e-01
5.948450e-01
5.904126e-01
5.857388e-01
5.811532e-01
5.766544e-01
0.000000e+00
1.000000e+00
5.758035e-01
5.786654e-01
5.818789e-01
5.851560e-01
5.882637e-01
5.908754e-01
5.926355e-01
5.932589e-01
5.926355e-01
5.908824e-01
5.882999e-01
5.852100e-01
5.819404e-01
5.787271e-01
5.754998e-01
0.000000e+00
1.000000e+00
5.747343e-01
5.764951e-01
5.784740e-01
5.804937e-01
5.824089e-01
5.840181e-01
5.851021e-01
5.854850e-01
5.850987e-01
5.840130e-01
5.824147e-01
5.805238e-01
5.785255e-01
5.765461e-01
5.744780e-01
0.000000e+00
1.000000e+00
5.738663e-01
5.747165e-01
5.756859e-01
5.766760e-01
5.776147e-01
5.784033e-01
5.789342e-01
5.791210e-01
5.789303e-01
5.783957e-01
5.776057e-01
5.766799e-01
5.757141e-01
5.747580e-01
5.736109e-01
0.000000e+00
1.000000e+00
5.732505e-01
5.734414e-01
5.736887e-01
5.739412e-01
5.741806e-01
5.743814e-01
5.745162e-01
5.745628e-01
5.745125e-01
5.743742e-01
5.741697e-01
5.739377e-01
5.736997e-01
5.734764e-01
5.730357e-01
0.000000e+00
1.000000e+00
5.729006e-01
5.727291e-01
5.725740e-01
5.724148e-01
5.722638e-01
5.721365e-01
5.720504e-01
5.720189e-01
5.720472e-01
5.721303e-01
5.722547e-01
5.724098e-01
5.725765e-01
5.728162e-01
5.723973e-01
0.000000e+00
1.000000e+00
5.728142e-01
5.725817e-01
5.723431e-01
5.720986e-01
5.718666e-01
5.716715e-01
5.715399e-01
5.714927e-01
5.715381e-01
5.716678e-01
5.718608e-01
5.720957e-01
5.723457e-01
5.728468e-01
5.718446e-01
0.000000e+00
1.000000e+00
5.729899e-01
5.729513e-01
5.729211e-01
5.728903e-01
5.728610e-01
5.728362e-01
5.728193e-01
5.728128e-01
5.728178e-01
5.728331e-01
5.728561e-01
5.728903e-01
5.729301e-01
5.732628e-01
5.719388e-01
0.000000e+00
1.000000e+00
5.733852e-01
5.737563e-01
5.741816e-01
5.746163e-01
5.750284e-01
5.753745e-01
5.756073e-01
5.756889e-01
5.756047e-01
5.753694e-01
5.750208e-01
5.746152e-01
5.742001e-01
5.739990e-01
5.724409e-01
0.000000e+00
1.000000e+00
5.739389e-01
5.748969e-01
5.759684e-01
5.770628e-01
5.781005e-01
5.789721e-01
5.795589e-01
5.797655e-01
5.795552e-01
5.789654e-01
5.780910e-01
5.770575e-01
5.759928e-01
5.750619e-01
5.727728e-01
0.000000e+00
1.000000e+00
5.746126e-01
5.762709e-01
5.781220e-01
5.800118e-01
5.818037e-01
5.833092e-01
5.843231e-01
5.846813e-01
5.843205e-01
5.833050e-01
5.817987e-01
5.800102e-01
5.781640e-01
5.763092e-01
5.740232e-01
0.000000e+00
1.000000e+00
5.822732e-01
5.917042e-01
6.023779e-01
6.132214e-01
6.235070e-01
6.321579e-01
6.380016e-01
6.400977e-01
6.380813e-01
6.323006e-01
6.236792e-01
6.134120e-01
6.024704e-01
5.918136e-01
5.817483e-01
0.000000e+00
1.000000e+00
5.817180e-01
5.906140e-01
6.006560e-01
6.108654e-01
6.205495e-01
6.286938e-01
6.341932e-01
6.361617e-01
6.342571e-01
6.288196e-01
6.207188e-01
6.110553e-01
6.007652e-01
5.907375e-01
5.812040e-01
0.000000e+00
1.000000e+00
5.809741e-01
5.891296e-01
5.983175e-01
6.076637e-01
6.165289e-01
6.239838e-01
6.290159e-01
6.308137e-01
6.290655e-01
6.240938e-01
6.166920e-01
6.078405e-01
5.984294e-01
5.892479e-01
5.804811e-01
0.000000e+00
1.000000e+00
5.800458e-01
5.872666e-01
5.953862e-01
6.036503e-01
6.114888e-01
6.180795e-01
6.225269e-01
6.241128e-01
6.225611e-01
6.181661e-01
6.116348e-01
6.037956e-01
5.954830e-01
5.873732e-01
5.796050e-01
0.000000e+00
1.000000e+00
5.789628e-01
5.850788e-01
5.919471e-01
5.989416e-01
6.055756e-01
6.111529e-01
6.149151e-01
6.162544e-01
6.149361e-01
6.112138e-01
6.056981e-01
5.990601e-01
5.920408e-01
5.851756e-01
5.785568e-01
0.000000e+00
1.000000e+00
5.777714e-01
5.826630e-01
5.881523e-01
5.937457e-01
5.990506e-01
6.035099e-01
6.065169e-01
6.075854e-01
6.065275e-01
6.035462e-01
5.991428e-01
5.938418e-01
5.882395e-01
5.827498e-01
5.774073e-01
0.000000e+00
1.000000e+00
5.765358e-01
5.801558e-01
5.842155e-01
5.883554e-01
5.922816e-01
5.955815e-01
5.978058e-01
5.985945e-01
5.978083e-01
5.955951e-01
5.923381e-01
5.884320e-01
5.842968e-01
5.802297e-01
5.762128e-01
0.000000e+00
1.000000e+00
5.753332e-01
5.777208e-01
5.803938e-01
5.831226e-01
5.857103e-01
5.878849e-01
5.893500e-01
5.898680e-01
5.893470e-01
5.878815e-01
5.857276e-01
5.831742e-01
5.804673e-01
5.777831e-01
5.750483e-01
0.000000e+00
1.000000e+00
5.742551e-01
5.755280e-01
5.769556e-01
5.784147e-01
5.797982e-01
5.809605e-01
5.817430e-01
5.820185e-01
5.817375e-01
5.809496e-01
5.797872e-01
5.784305e-01
5.770124e-01
5.755804e-01
5.740127e-01
0.000000e+00
1.000000e+00
5.733799e-01
5.737326e-01
5.741429e-01
5.745633e-01
5.749618e-01
5.752963e-01
5.755210e-01
5.755990e-01
5.755157e-01
5.752855e-01
5.749455e-01
5.745712e-01
5.741769e-01
5.737776e-01
5.731245e-01
0.000000e+00
1.000000e+00
5.727618e-01
5.724508e-01
5.721361e-01
5.718154e-01
5.715112e-01
5.712553e-01
5.710823e-01
5.710199e-01
5.710787e-01
5.712483e-01
5.715011e-01
5.718267e-01
5.721588e-01
5.724923e-01
5.725021e-01
0.000000e+00
1.000000e+00
5.724198e-01
5.717442e-01
5.710305e-01
5.703015e-01
5.696100e-01
5.690288e-01
5.686367e-01
5.684971e-01
5.686344e-01
5.690246e-01
5.696051e-01
5.703114e-01
5.710492e-01
5.718430e-01
5.718714e-01
0.000000e+00
1.000000e+00
5.723467e-01
5.716155e-01
5.708292e-01
5.700257e-01
5.692637e-01
5.686231e-01
5.681913e-01
5.680378e-01
5.681898e-01
5.686205e-01
5.692616e-01
5.700349e-01
5.708485e-01
5.718986e-01
5.713735e-01
0.000000e+00
1.000000e+00
5.725315e-01
5.720162e-01
5.714555e-01
5.708833e-01
5.703406e-01
5.698844e-01
5.695767e-01
5.694672e-01
5.695751e-01
5.698814e-01
5.703378e-01
5.708942e-01
5.714776e-01
5.723412e-01
5.714992e-01
0.000000e+00
1.000000e+00
5.729441e-01
5.728613e-01
5.727782e-01
5.726947e-01
5.726153e-01
5.725484e-01
5.725028e-01
5.724857e-01
5.724999e-01
5.725429e-01
5.726076e-01
5.727055e-01
5.728071e-01
5.731162e-01
5.720775e-01
0.000000e+00
1.000000e+00
5.735261e-01
5.740480e-01
5.746373e-01
5.752403e-01
5.758119e-01
5.762919e-01
5.766146e-01