<?xml version="1.0"?>
<VTKFile type="StructuredGrid" version="0.1">
  <StructuredGrid WholeExtent="0 16 0 16 0 16">
    <Piece Extent="0 16 0 16 0 16">
      <PointData Scalars="temperature" Vectors="velocity">
        <DataArray type="Float32" Name="temperature" format="ascii">
1.000000e+00
5.726467e-01
5.722889e-01
5.718641e-01
5.714416e-01
5.710418e-01
5.707070e-01
5.704821e-01
5.704021e-01
5.704805e-01
5.707070e-01
5.710544e-01
5.716071e-01
5.720469e-01
5.733888e-01
5.681798e-01
0.000000e+00
1.000000e+00
5.734623e-01
5.738601e-01
5.743301e-01
5.748178e-01
5.752808e-01
5.756700e-01
5.759314e-01
5.760204e-01
5.759192e-01
5.756466e-01
5.752526e-01
5.749273e-01
5.745025e-01
5.747848e-01
5.699241e-01
0.000000e+00
1.000000e+00
5.744211e-01
5.757100e-01
5.772359e-01
5.787963e-01
5.802759e-01
5.815188e-01
5.823541e-01
5.826442e-01
5.823366e-01
5.814884e-01
5.802448e-01
5.788549e-01
5.774202e-01
5.766766e-01
5.695661e-01
0.000000e+00
1.000000e+00
5.755195e-01
5.778019e-01
5.805264e-01
5.833023e-01
5.859343e-01
5.881449e-01
5.896313e-01
5.901521e-01
5.896166e-01
5.881284e-01
5.859388e-01
5.833814e-01
5.807066e-01
5.788441e-01
5.703077e-01
0.000000e+00
1.000000e+00
5.767214e-01
5.800723e-01
5.841044e-01
5.882015e-01
5.920876e-01
5.953532e-01
5.975515e-01
5.983273e-01
5.975484e-01
5.953651e-01
5.921378e-01
5.883187e-01
5.842724e-01
5.809238e-01
5.720359e-01
0.000000e+00
1.000000e+00
5.779693e-01
5.824377e-01
5.878353e-01
5.933089e-01
5.985011e-01
6.028660e-01
6.058085e-01
6.068536e-01
6.058225e-01
6.029093e-01
5.985886e-01
5.934557e-01
5.880012e-01
5.830951e-01
5.735136e-01
0.000000e+00
1.000000e+00
5.792191e-01
5.847897e-01
5.915517e-01
5.983966e-01
6.048895e-01
6.103487e-01
6.140315e-01
6.153451e-01
6.140637e-01
6.104222e-01
6.050130e-01
5.985772e-01
5.917248e-01
5.851977e-01
5.762141e-01
0.000000e+00
1.000000e+00
5.804185e-01
5.870067e-01
5.950646e-01
6.032060e-01
6.109289e-01
6.174243e-01
6.218104e-01
6.233821e-01
6.218668e-01
6.175394e-01
6.111075e-01
6.034459e-01
5.952649e-01
5.873330e-01
5.781655e-01
0.000000e+00
1.000000e+00
5.815065e-01
5.889661e-01
5.981835e-01
6.074755e-01
6.162909e-01
6.237083e-01
6.287230e-01
6.305302e-01
6.288149e-01
6.238871e-01
6.165544e-01
6.077987e-01
5.984231e-01
5.892652e-01
5.797796e-01
0.000000e+00
1.000000e+00
5.824119e-01
5.905606e-01
6.007377e-01
6.109716e-01
6.206821e-01
6.288569e-01
6.343913e-01
6.363984e-01
6.345280e-01
6.291173e-01
6.210454e-01
6.113837e-01
6.010313e-01
5.908914e-01
5.810238e-01
0.000000e+00
1.000000e+00
5.830952e-01
5.917059e-01
6.025927e-01
6.135113e-01
6.238740e-01
6.326024e-01
6.385189e-01
6.406773e-01
6.387012e-01
6.329459e-01
6.243358e-01
6.139975e-01
6.029419e-01
5.920823e-01
5.815664e-01
0.000000e+00
1.000000e+00
5.835201e-01
5.923527e-01
6.036665e-01
6.149835e-01
6.257271e-01
6.347797e-01
6.409212e-01
6.431700e-01
6.411362e-01
6.351858e-01
6.262653e-01
6.155151e-01
6.040279e-01
5.927577e-01
5.817687e-01
0.000000e+00
1.000000e+00
5.836547e-01
5.924977e-01
6.039372e-01
6.153560e-01
6.261979e-01
6.353349e-01
6.415354e-01
6.438085e-01
6.417638e-01
6.357739e-01
6.267847e-01
6.159068e-01
6.042793e-01
5.929245e-01
5.818303e-01
0.000000e+00
1.000000e+00
5.834858e-01
5.921813e-01
6.034377e-01
6.146700e-01
6.253331e-01
6.343189e-01
6.404199e-01
6.426588e-01
6.406472e-01
6.347685e-01
6.259314e-01
6.152026e-01
6.037393e-01
5.926021e-01
5.817845e-01
0.000000e+00
1.000000e+00
5.830752e-01
5.914369e-01
6.022261e-01
6.130067e-01
6.232444e-01
6.318750e-01
6.377380e-01
6.398938e-01
6.379526e-01
6.323201e-01
6.238381e-01
6.135232e-01
6.025239e-01
5.918151e-01
5.814246e-01
0.000000e+00
1.000000e+00
5.825356e-01
5.902578e-01
6.004095e-01
6.105250e-01
6.201316e-01
6.282284e-01
6.337256e-01
6.357452e-01
6.339225e-01
6.286473e-01
6.206993e-01
6.110269e-01
6.007247e-01
5.906393e-01
5.810429e-01
0.000000e+00
1.000000e+00
5.817115e-01
5.887965e-01
5.981184e-01
6.073897e-01
6.161939e-01
6.236122e-01
6.286455e-01
6.304901e-01
6.288260e-01
6.239988e-01
6.167232e-01
6.078691e-01
5.984627e-01
5.891585e-01
5.803684e-01
0.000000e+00
1.000000e+00
5.733732e-01
5.736989e-01
5.740786e-01
5.744733e-01
5.748479e-01
5.751626e-01
5.753738e-01
5.754455e-01
5.753634e-01
5.751431e-01
5.748259e-01
5.745747e-01
5.742214e-01
5.746125e-01
5.681118e-01
0.000000e+00
1.000000e+00
5.742184e-01
5.753125e-01
5.766137e-01
5.779443e-01
5.792058e-01
5.802654e-01
5.809775e-01
5.812249e-01
5.809625e-01
5.802387e-01
5.791756e-01
5.779989e-01
5.767734e-01
5.757173e-01
5.728760e-01
0.000000e+00
1.000000e+00
5.752102e-01
5.772086e-01
5.795959e-01
5.820278e-01
5.843335e-01
5.862698e-01
5.875719e-01
5.880282e-01
5.875585e-01
5.862528e-01
5.843300e-01
5.820882e-01
5.797790e-01
5.776567e-01
5.730204e-01
0.000000e+00
1.000000e+00
5.763398e-01
5.793485e-01
5.829656e-01
5.866419e-01
5.901285e-01
5.930577e-01
5.950293e-01
5.957248e-01
5.950247e-01
5.930630e-01
5.901650e-01
5.867428e-01
5.831454e-01
5.797336e-01
5.744221e-01
0.000000e+00
1.000000e+00
5.775628e-01
5.816646e-01
5.866184e-01
5.916427e-01
5.964082e-01
6.004139e-01
6.031133e-01
6.040708e-01
6.031225e-01
6.004466e-01
5.964795e-01
5.917770e-01
5.868057e-01
5.819969e-01
5.762978e-01
0.000000e+00
1.000000e+00
5.788330e-01
5.840648e-01
5.904080e-01
5.968305e-01
6.029223e-01
6.080435e-01
6.114974e-01
6.127278e-01
6.115230e-01
6.081040e-01
6.030264e-01
5.970040e-01
5.906106e-01
5.843811e-01
5.771628e-01
0.000000e+00
1.000000e+00
5.801036e-01
5.864294e-01
5.941505e-01
6.019540e-01
6.093558e-01
6.155802e-01
6.197816e-01
6.212843e-01
6.198281e-01
6.156765e-01
6.095072e-01
6.021888e-01
5.943825e-01
5.867096e-01
5.788613e-01
0.000000e+00
1.000000e+00
5.813115e-01
5.886262e-01
5.976411e-01
6.067321e-01
6.153559e-01
6.226105e-01
6.275130e-01
6.292760e-01
6.275924e-01
6.227656e-01
6.155867e-01
6.070556e-01
5.979231e-01
5.889438e-01
5.801242e-01
0.000000e+00
1.000000e+00
5.823883e-01
5.905232e-01
6.006749e-01
6.108843e-01
6.205704e-01
6.287231e-01
6.342409e-01
6.362391e-01
6.343693e-01
6.289664e-01
6.209121e-01
6.113045e-01
6.010243e-01
5.908791e-01
5.810459e-01
0.000000e+00
1.000000e+00
5.832694e-01
5.920049e-01
6.030703e-01
6.141629e-01
6.246900e-01
6.335568e-01
6.395678e-01
6.417616e-01
6.397544e-01
6.339028e-01
6.251515e-01
6.146741e-01
6.034957e-01
5.924054e-01
5.817244e-01
0.000000e+00
1.000000e+00
5.839133e-01
5.929830e-01
6.046905e-01
6.163827e-01
6.274837e-01
6.368404e-01
6.431926e-01
6.455252e-01
6.434300e-01
6.372766e-01
6.280523e-01
6.169802e-01
6.051622e-01
5.934365e-01
5.821862e-01
0.000000e+00
1.000000e+00
5.842831e-01
5.934096e-01
6.054602e-01
6.174432e-01
6.288244e-01
6.384208e-01
6.449401e-01
6.473414e-01
6.452069e-01
6.389141e-01
6.294726e-01
6.181033e-01
6.059280e-01
5.939338e-01
5.823400e-01
0.000000e+00
1.000000e+00
5.843467e-01
5.932917e-01
6.053720e-01
6.173312e-01
6.286904e-01
6.382685e-01
6.447756e-01
6.471728e-01
6.450485e-01
6.387848e-01
6.293816e-01
6.180141e-01
6.058087e-01
5.938723e-01
5.823153e-01
0.000000e+00
1.000000e+00
5.840956e-01
5.926980e-01
6.044792e-01
6.161100e-01
6.271560e-01
6.364701e-01
6.428000e-01
6.451308e-01
6.430617e-01
6.369861e-01
6.278505e-01
6.167638e-01
6.048837e-01
5.932845e-01
5.823542e-01
0.000000e+00
1.000000e+00
5.835879e-01
5.916776e-01
6.028659e-01
6.139017e-01
6.243823e-01
6.332186e-01
6.392239e-01
6.414369e-01
6.394640e-01
6.337138e-01
6.250483e-01
6.145135e-01
6.032640e-01
5.922503e-01
5.819027e-01
0.000000e+00
1.000000e+00
5.828168e-01
5.903120e-01
6.006639e-01
6.108844e-01
6.205895e-01
6.287689e-01
6.343236e-01
6.363693e-01
6.345411e-01
6.292213e-01
6.211965e-01
6.114410e-01
6.010629e-01
5.908405e-01
5.812833e-01
0.000000e+00
1.000000e+00
5.817649e-01
5.886977e-01
5.980078e-01
6.072421e-01
6.160094e-01
6.233953e-01
6.284057e-01
6.302451e-01
6.285985e-01
6.237856e-01
6.165268e-01
6.077198e-01
5.983665e-01
5.891595e-01
5.811891e-01
0.000000e+00
1.000000e+00
5.740027e-01
5.749097e-01
5.759822e-01
5.770796e-01
5.781199e-01
5.789935e-01
5.795805e-01
5.797845e-01
5.795682e-01
5.789709e-01
5.780950e-01
5.771271e-01
5.760935e-01
5.755465e-01
5.694066e-01
0.000000e+00
1.000000e+00
5.748685e-01
5.765493e-01
5.785608e-01
5.806102e-01
5.825531e-01
5.841848e-01
5.852821e-01
5.856667e-01
5.852707e-01
5.841688e-01
5.825443e-01
5.806502e-01
5.787046e-01
5.767960e-01
5.739434e-01
0.000000e+00
1.000000e+00
5.758826e-01
5.784738e-01
5.815910e-01
5.847595e-01
5.877639e-01
5.902879e-01
5.919866e-01
5.925856e-01
5.919816e-01
5.902886e-01
5.877862e-01
5.848343e-01
5.817627e-01
5.787963e-01
5.741787e-01
0.000000e+00
1.000000e+00
5.770307e-01
5.806424e-01
5.850103e-01
5.894409e-01
5.936429e-01
5.971744e-01
5.995538e-01
6.003972e-01
5.995601e-01
5.971984e-01
5.936974e-01
5.895558e-01
5.851959e-01
5.809126e-01
5.754999e-01
0.000000e+00
1.000000e+00
5.782691e-01
5.829854e-01
5.887079e-01
5.945030e-01
5.999992e-01
6.046192e-01
6.077345e-01
6.088434e-01
6.077552e-01
6.046682e-01
6.000827e-01
5.946602e-01
5.889193e-01
5.832636e-01
5.771396e-01
0.000000e+00
1.000000e+00
5.795561e-01
5.854000e-01
5.925255e-01
5.997290e-01
6.065616e-01
6.123063e-01
6.161831e-01
6.175682e-01
6.162216e-01
6.123857e-01
6.066849e-01
5.999460e-01
5.927677e-01
5.856961e-01
5.781470e-01
0.000000e+00
1.000000e+00
5.808393e-01
5.877575e-01
5.962652e-01
6.048482e-01
6.129895e-01
6.198372e-01
6.244628e-01
6.261229e-01
6.245287e-01
6.199669e-01
6.131844e-01
6.051523e-01
5.965513e-01
5.880646e-01
5.796169e-01
0.000000e+00
1.000000e+00
5.820492e-01
5.899151e-01
5.997070e-01
6.095591e-01
6.189051e-01
6.267698e-01
6.320896e-01
6.340117e-01
6.322011e-01
6.269841e-01
6.192135e-01
6.099657e-01
6.000635e-01
5.902691e-01
5.806972e-01
0.000000e+00
1.000000e+00
5.831125e-01
5.917316e-01
6.026326e-01
6.135630e-01
6.239346e-01
6.326683e-01
6.385864e-01
6.407432e-01
6.387617e-01
6.329957e-01
6.243816e-01
6.140861e-01
6.030361e-01
5.921321e-01
5.815481e-01
0.000000e+00
1.000000e+00
5.839650e-01
5.930841e-01
6.048521e-01
6.166019e-01
6.277560e-01
6.371567e-01
6.435389e-01
6.458836e-01
6.437792e-01
6.375956e-01
6.283317e-01
6.172242e-01
6.053010e-01
5.935432e-01
5.821989e-01
0.000000e+00
1.000000e+00
5.845643e-01
5.938795e-01
6.062281e-01
6.184923e-01
6.301407e-01
6.399645e-01
6.466413e-01
6.491061e-01
6.469264e-01
6.404819e-01
6.308077e-01
6.191744e-01
6.067264e-01
5.944351e-01
5.825845e-01
0.000000e+00
1.000000e+00
5.848709e-01
5.940705e-01
6.066959e-01
6.191474e-01
6.309749e-01
6.409500e-01
6.477302e-01
6.502360e-01
6.480311e-01
6.415030e-01
6.316989e-01
6.198663e-01
6.072155e-01
5.947474e-01
5.827319e-01
0.000000e+00
1.000000e+00
5.848399e-01
5.936786e-01
6.062668e-01
6.185736e-01
6.302580e-01
6.401091e-01
6.468027e-01
6.492717e-01
6.470943e-01
6.406641e-01
6.310061e-01
6.193149e-01
6.067893e-01
5.944586e-01
5.828025e-01
0.000000e+00
1.000000e+00
5.844584e-01
5.928238e-01
6.050103e-01
6.168523e-01
6.280916e-01
6.375662e-01
6.440043e-01
6.463757e-01
6.442711e-01
6.381038e-01
6.288319e-01
6.175700e-01
6.055042e-01
5.936425e-01
5.828301e-01
0.000000e+00
1.000000e+00
5.837875e-01
5.915945e-01
6.030251e-01
6.141305e-01
6.246705e-01
6.335550e-01
6.395915e-01
6.418157e-01
6.398291e-01
6.340566e-01
6.253686e-01
6.147893e-01
6.034683e-01
5.923844e-01
5.821908e-01
0.000000e+00
1.000000e+00
5.827834e-01
5.901093e-01
6.004636e-01
6.106146e-01
6.202508e-01
6.283709e-01
6.338838e-01
6.359124e-01
6.340964e-01
6.288155e-01
6.208705e-01
6.111920e-01
6.008793e-01
5.907851e-01
5.815939e-01
0.000000e+00
1.000000e+00
5.815727e-01
5.883520e-01
5.974745e-01
6.065129e-01
6.150937e-01
6.223219e-01
6.272240e-01
6.290221e-01
6.274115e-01
6.226987e-01
6.156109e-01
6.069965e-01
5.978508e-01
5.889791e-01
5.815005e-01
0.000000e+00
1.000000e+00
5.744918e-01
5.758410e-01
5.774489e-01
5.790876e-01
5.806411e-01
5.819457e-01
5.828231e-01
5.831304e-01
5.828134e-01
5.819307e-01
5.806299e-01
5.791148e-01
5.775512e-01
5.762199e-01
5.713004e-01
0.000000e+00
1.000000e+00
5.753665e-01
5.774828e-01
5.800329e-01
5.826260e-01
5.850846e-01
5.871496e-01
5.885394e-01
5.890294e-01
5.885343e-01
5.871465e-01
5.850942e-01
5.826754e-01
5.801684e-01
5.776210e-01
5.750655e-01
0.000000e+00
1.000000e+00
5.763882e-01
5.794100e-01
5.830705e-01
5.867849e-01
5.903073e-01
5.932672e-01
5.952610e-01
5.959673e-01
5.952640e-01
5.932818e-01
5.903425e-01
5.868735e-01
5.832410e-01
5.796835e-01
5.751124e-01
0.000000e+00
1.000000e+00
5.775367e-01
5.815825e-01
5.864978e-01
5.914771e-01
5.961992e-01
6.001683e-01
6.028441e-01
6.037957e-01
6.028592e-01
6.002049e-01
5.962609e-01
5.916082e-01
5.866968e-01
5.818237e-01
5.762185e-01
0.000000e+00
1.000000e+00
5.787770e-01
5.839253e-01
5.901981e-01
5.965427e-01
6.025602e-01
6.076192e-01
6.110323e-01
6.122504e-01
6.110622e-01
6.076810e-01
6.026548e-01
5.967297e-01
5.904285e-01
5.841934e-01
5.776708e-01
0.000000e+00
1.000000e+00
5.800694e-01
5.863290e-01
5.940035e-01
6.017521e-01
6.091015e-01
6.152821e-01
6.194553e-01
6.209501e-01
6.195061e-01
6.153825e-01
6.092578e-01
6.020162e-01
5.942745e-01
5.866235e-01
5.787815e-01
0.000000e+00
1.000000e+00
5.813529e-01
5.886567e-01
5.977046e-01
6.068181e-01
6.154629e-01
6.227355e-01
6.276513e-01
6.294213e-01
6.277377e-01
6.229066e-01
6.157232e-01
6.071824e-01
5.980310e-01
5.889818e-01
5.800414e-01
0.000000e+00
1.000000e+00
5.825535e-01
5.907564e-01
6.010687e-01
6.114223e-01
6.212449e-01
6.295130e-01
6.351106e-01
6.371422e-01
6.352556e-01
6.297941e-01
6.216430e-01
6.118902e-01
6.014678e-01
5.911298e-01
5.810544e-01
0.000000e+00
1.000000e+00
5.835957e-01
5.924793e-01
6.038665e-01
6.152517e-01
6.260566e-01
6.351591e-01
6.413342e-01
6.435965e-01
6.415528e-01
6.355682e-01
6.265957e-01
6.158317e-01
6.043159e-01
5.929142e-01
5.818789e-01
0.000000e+00
1.000000e+00
5.844146e-01
5.936946e-01
6.059015e-01
6.180408e-01
6.295678e-01
6.392877e-01
6.458931e-01
6.483315e-01
6.461762e-01
6.398026e-01
6.302256e-01
6.187160e-01
6.063939e-01
5.942200e-01
5.824199e-01
0.000000e+00
1.000000e+00
5.849723e-01
5.943018e-01
6.070384e-01
6.196106e-01
6.315539e-01
6.416284e-01
6.484798e-01
6.510167e-01
6.487962e-01
6.422026e-01
6.322861e-01
6.203287e-01
6.075609e-01
5.949884e-01
5.828266e-01
0.000000e+00
1.000000e+00
5.852334e-01
5.942445e-01
6.072258e-01
6.198886e-01
6.319125e-01
6.420517e-01
6.489447e-01
6.514953e-01
6.492630e-01
6.426396e-01
6.326810e-01
6.206262e-01
6.077913e-01
5.951456e-01
5.831292e-01
0.000000e+00
1.000000e+00
5.851162e-01
5.935505e-01
6.064924e-01
6.188949e-01
6.306612e-01
6.405803e-01
6.473194e-01
6.498047e-01
6.476157e-01
6.411525e-01
6.314397e-01
6.196678e-01
6.070686e-01
5.946849e-01
5.831929e-01
0.000000e+00
1.000000e+00
5.846345e-01
5.924482e-01
6.049156e-01
6.167286e-01
6.279335e-01
6.373789e-01
6.437952e-01
6.461563e-01
6.440539e-01
6.379167e-01
6.286935e-01
6.174774e-01
6.054392e-01
5.936970e-01
5.830766e-01
0.000000e+00
1.000000e+00
5.837373e-01
5.911620e-01
6.026108e-01
6.135656e-01
6.239588e-01
6.327189e-01
6.386688e-01
6.408572e-01
6.388924e-01
6.332048e-01
6.246627e-01
6.142440e-01
6.030743e-01
5.922449e-01
5.824204e-01
0.000000e+00
1.000000e+00
5.825148e-01
5.896520e-01
5.997504e-01
6.096377e-01
6.190222e-01
6.269295e-01
6.322957e-01
6.342650e-01
6.324935e-01
6.273458e-01
6.196331e-01
6.102159e-01
6.001826e-01
5.904672e-01
5.818466e-01
0.000000e+00
1.000000e+00
5.811990e-01
5.877572e-01
5.964940e-01
6.051701e-01
6.134064e-01
6.203437e-01
6.250465e-01
6.267663e-01
6.252176e-01
6.206876e-01
6.138993e-01
6.056340e-01
5.968708e-01
5.883763e-01
5.811646e-01
0.000000e+00
1.000000e+00
5.747997e-01
5.764163e-01
5.783558e-01
5.803294e-01
5.822005e-01
5.837719e-01
5.848293e-01
5.852015e-01
5.848234e-01
5.837648e-01
5.821981e-01
5.803568e-01
5.784559e-01
5.766696e-01
5.724655e-01
0.000000e+00
1.000000e+00
5.756664e-01
5.780292e-01
5.808957e-01
5.838073e-01
5.865681e-01
5.888876e-01
5.904495e-01
5.910018e-01
5.904488e-01
5.888921e-01
5.865849e-01
5.838648e-01
5.810381e-01
5.781365e-01
5.756603e-01
0.000000e+00
1.000000e+00
5.766734e-01
5.799261e-01
5.838876e-01
5.879035e-01
5.917117e-01
5.949120e-01
5.970687e-01
5.978345e-01
5.970770e-01
5.949343e-01
5.917497e-01
5.879992e-01
5.840747e-01
5.801726e-01
5.758307e-01
0.000000e+00
1.000000e+00
5.778052e-01
5.820685e-01
5.872686e-01
5.925322e-01
5.975241e-01
6.017202e-01
6.045501e-01
6.055584e-01
6.045708e-01
6.017633e-01
5.975894e-01
5.926773e-01
5.874849e-01
5.822988e-01
5.768945e-01
0.000000e+00
1.000000e+00
5.790286e-01
5.843781e-01
5.909181e-01
5.975281e-01
6.037973e-01
6.090687e-01
6.126263e-01
6.138979e-01
6.126622e-01
6.091396e-01
6.039115e-01
5.977493e-01
5.911643e-01
5.846523e-01
5.780427e-01
0.000000e+00
1.000000e+00
5.803060e-01
5.867414e-01
5.946624e-01
6.026536e-01
6.102334e-01
6.166083e-01
6.209144e-01
6.224592e-01
6.209739e-01
6.167282e-01
6.104396e-01
6.029635e-01
5.949477e-01
5.870459e-01
5.791441e-01
0.000000e+00
1.000000e+00
5.815729e-01
5.890154e-01
5.982840e-01
6.076108e-01
6.164582e-01
6.239023e-01
6.289360e-01
6.307524e-01
6.290373e-01
6.241105e-01
6.167923e-01
6.080243e-01
5.986117e-01
5.893600e-01
5.802151e-01
0.000000e+00
1.000000e+00
5.827497e-01
5.910423e-01
6.015416e-01
6.120694e-01
6.220579e-01
6.304673e-01
6.361632e-01
6.382364e-01
6.363311e-01
6.308009e-01
6.225322e-01
6.125778e-01
6.019370e-01
5.914234e-01
5.811709e-01
0.000000e+00
1.000000e+00
5.837552e-01
5.926684e-01
6.041985e-01
6.157067e-01
6.266298e-01
6.358339e-01
6.420812e-01
6.443770e-01
6.423259e-01
6.362995e-01
6.272291e-01
6.163006e-01
6.046900e-01
5.930991e-01
5.819733e-01
0.000000e+00
1.000000e+00
5.845270e-01
5.937588e-01
6.060547e-01
6.182539e-01
6.298393e-01
6.396099e-01
6.462518e-01
6.487087e-01
6.465553e-01
6.401705e-01
6.305396e-01
6.189239e-01
6.066535e-01
5.942794e-01
5.825765e-01
0.000000e+00
1.000000e+00
5.850316e-01
5.942095e-01
6.069792e-01
6.195368e-01
6.314653e-01
6.415264e-01
6.483682e-01
6.509031e-01
6.486935e-01
6.421276e-01
6.322338e-01
6.202912e-01
6.075751e-01
5.949533e-01
5.831375e-01
0.000000e+00
1.000000e+00
5.852339e-01
5.939555e-01
6.069310e-01
6.194921e-01
6.314146e-01
6.414671e-01
6.482987e-01
6.508239e-01
6.486131e-01
6.420620e-01
6.322111e-01
6.202755e-01
6.075189e-01
5.950214e-01
5.834509e-01
0.000000e+00
1.000000e+00
5.849664e-01
5.930495e-01
6.059535e-01
6.181547e-01
6.297262e-01
6.394820e-01
6.461088e-01
6.485441e-01
6.463862e-01
6.400418e-01
6.305116e-01
6.189389e-01
6.065221e-01
5.944509e-01
5.833800e-01
0.000000e+00
1.000000e+00
5.843581e-01
5.918322e-01
6.041253e-01
6.156374e-01
6.265570e-01
6.357641e-01
6.420201e-01
6.443135e-01
6.422497e-01
6.362750e-01
6.273080e-01
6.163795e-01
6.046339e-01
5.933167e-01
5.832157e-01
0.000000e+00
1.000000e+00
5.833045e-01
5.905285e-01
6.015779e-01
6.121430e-01
6.221672e-01
6.306172e-01
6.363589e-01
6.384666e-01
6.365565e-01
6.310661e-01
6.228500e-01
6.128076e-01
6.020377e-01
5.916087e-01
5.822421e-01
0.000000e+00
1.000000e+00
5.819894e-01
5.889478e-01
5.985061e-01
6.079259e-01
6.168660e-01
6.243980e-01
6.295107e-01
6.313857e-01
6.296892e-01
6.247705e-01
6.174436e-01
6.084733e-01
5.989268e-01
5.896375e-01
5.812981e-01
0.000000e+00
1.000000e+00
5.806491e-01
5.869049e-01
5.950709e-01
6.032183e-01
6.109505e-01
6.174604e-01
6.218711e-01
6.234804e-01
6.220195e-01
6.177569e-01
6.113990e-01
6.036382e-01
5.954253e-01
5.873355e-01
5.798150e-01
0.000000e+00
1.000000e+00
5.748807e-01
5.765702e-01
5.785983e-01
5.806613e-01
5.826172e-01
5.842600e-01
5.853656e-01
5.857554e-01
5.853610e-01
5.842541e-01
5.826137e-01
5.806857e-01
5.787055e-01
5.767420e-01
5.727765e-01
0.000000e+00
1.000000e+00
5.757198e-01
5.781176e-01
5.810348e-01
5.839977e-01
5.868071e-01
5.891676e-01
5.907575e-01
5.913199e-01
5.907574e-01
5.891727e-01
5.868212e-01
5.840527e-01
5.811894e-01
5.782338e-01
5.754785e-01
0.000000e+00
1.000000e+00
5.766943e-01
5.799453e-01
5.839183e-01
5.879453e-01
5.917642e-01
5.949735e-01
5.971365e-01
5.979049e-01
5.971458e-01
5.949963e-01
5.917993e-01
5.880478e-01
5.841102e-01
5.801821e-01
5.757643e-01
0.000000e+00
1.000000e+00
5.777903e-01
5.820173e-01
5.871886e-01
5.924226e-01
5.973865e-01
6.015591e-01
6.043734e-01
6.053766e-01
6.043949e-01
6.016022e-01
5.974564e-01
5.925935e-01
5.874115e-01
5.822494e-01
5.768542e-01
0.000000e+00
1.000000e+00
5.789765e-01
5.842552e-01
5.907252e-01
5.972640e-01
6.034657e-01
6.086803e-01
6.121998e-01
6.134583e-01
6.122364e-01
6.087531e-01
6.036046e-01
5.975207e-01
5.909737e-01
5.845325e-01
5.778820e-01
0.000000e+00
1.000000e+00
5.802138e-01
5.865452e-01
5.943534e-01
6.022305e-01
6.097019e-01
6.159859e-01
6.202307e-01
6.217539e-01
6.202910e-01
6.161132e-01
6.099499e-01
6.025708e-01
5.946337e-01
5.868490e-01
5.789983e-01
0.000000e+00
1.000000e+00
5.814370e-01
5.887429e-01
5.978528e-01
6.070203e-01
6.157166e-01
6.230336e-01
6.279815e-01
6.297672e-01
6.280842e-01
6.232559e-01
6.160936e-01
6.074525e-01
5.981627e-01
5.890796e-01
5.800299e-01
0.000000e+00
1.000000e+00
5.825667e-01
5.906879e-01
6.009781e-01
6.112982e-01
6.210897e-01
6.293330e-01
6.349162e-01
6.369481e-01
6.350855e-01
6.296831e-01
6.215934e-01
6.118243e-01
6.013566e-01
5.910422e-01
5.809554e-01
0.000000e+00
1.000000e+00
5.835178e-01
5.922260e-01
6.034902e-01
6.147379e-01
6.254138e-01
6.344089e-01
6.405127e-01
6.427544e-01
6.407564e-01
6.348864e-01
6.260269e-01
6.153593e-01
6.039753e-01
5.926175e-01
5.818674e-01
0.000000e+00
1.000000e+00
5.842174e-01
5.932271e-01
6.051892e-01
6.170702e-01
6.283529e-01
6.378660e-01
6.443300e-01
6.467179e-01
6.446263e-01
6.384306e-01
6.290604e-01
6.177583e-01
6.057973e-01
5.937070e-01
5.826166e-01
0.000000e+00
1.000000e+00
5.846182e-01
5.935990e-01
6.059475e-01
6.181236e-01
6.296879e-01
6.394401e-01
6.460680e-01
6.485171e-01
6.463762e-01
6.400333e-01
6.304580e-01
6.188762e-01
6.065585e-01
5.943080e-01
5.831842e-01
0.000000e+00
1.000000e+00
5.847061e-01
5.932815e-01
6.057317e-01
6.178414e-01
6.293353e-01
6.390266e-01
6.456124e-01
6.480359e-01
6.458964e-01
6.395989e-01
6.301237e-01
6.186246e-01
6.063044e-01
5.943003e-01
5.834247e-01
0.000000e+00
1.000000e+00
5.844480e-01
5.922292e-01
6.045748e-01
6.162598e-01
6.273444e-01
6.366916e-01
6.430441e-01
6.453710e-01
6.432829e-01
6.372165e-01
6.281109e-01
6.170295e-01
6.051117e-01
5.935985e-01
5.832682e-01
0.000000e+00
1.000000e+00
5.838545e-01
5.908616e-01
6.025841e-01
6.135245e-01
6.239033e-01
6.326556e-01
6.386050e-01
6.407872e-01
6.387979e-01
6.331183e-01
6.246164e-01
6.142298e-01
6.030745e-01
5.922576e-01
5.826727e-01
0.000000e+00
1.000000e+00
5.826923e-01
5.895512e-01
5.999023e-01
6.098453e-01
6.192811e-01
6.272358e-01
6.326434e-01
6.346327e-01
6.328152e-01
6.276308e-01
6.199167e-01
6.104638e-01
6.003442e-01
5.904084e-01
5.812254e-01
0.000000e+00
1.000000e+00
5.813331e-01
5.878985e-01
5.967303e-01
6.054880e-01
6.138009e-01
6.208045e-01
6.255595e-01
6.273072e-01
6.257203e-01
6.211256e-01
6.143257e-01
6.059835e-01
5.971191e-01
5.883852e-01
5.800844e-01
0.000000e+00
1.000000e+00
5.799625e-01
5.857808e-01
5.932271e-01
6.006888e-01
6.077691e-01
6.137285e-01
6.177645e-01
6.192362e-01
6.178887e-01
6.139789e-01
6.081598e-01
6.010521e-01
5.935364e-01
5.861058e-01
5.789332e-01
0.000000e+00
1.000000e+00
5.747191e-01
5.762569e-01
5.781042e-01
5.799845e-01
5.817672e-01
5.832643e-01
5.842716e-01
5.846258e-01
5.842644e-01
5.832530e-01
5.817531e-01
5.799864e-01
5.782235e-01
5.763771e-01
5.729783e-01
0.000000e+00
1.000000e+00
5.755049e-01
5.776984e-01
5.803734e-01
5.830921e-01
5.856701e-01
5.878361e-01
5.892946e-01
5.898101e-01
5.892924e-01
5.878353e-01
5.856727e-01
5.831374e-01
5.805331e-01
5.778213e-01
5.752854e-01
0.000000e+00
1.000000e+00
5.764194e-01
5.794155e-01
5.830809e-01
5.867989e-01
5.903247e-01
5.932876e-01
5.952842e-01
5.959924e-01
5.952893e-01
5.933025e-01
5.903509e-01
5.869182e-01
5.832778e-01
5.796430e-01
5.755178e-01
0.000000e+00
1.000000e+00
5.774589e-01
5.813750e-01
5.861723e-01
5.910311e-01
5.956392e-01
5.995125e-01
6.021242e-01
6.030540e-01
6.021410e-01
5.995474e-01
5.957094e-01
5.912283e-01
5.863995e-01
5.816032e-01
5.765753e-01
0.000000e+00
1.000000e+00
5.785874e-01
5.835013e-01
5.895310e-01
5.956293e-01
6.014131e-01
6.062760e-01
6.095571e-01
6.107290e-01
6.095878e-01
6.063389e-01
6.015621e-01
5.959049e-01
5.897814e-01
5.837738e-01
5.775372e-01
0.000000e+00
1.000000e+00
5.797617e-01
5.856841e-01
5.929870e-01
6.003600e-01
6.073535e-01
6.132348e-01
6.172063e-01
6.186294e-01
6.172575e-01
6.133488e-01
6.076118e-01
6.007065e-01
5.932624e-01
5.859756e-01
5.785834e-01
0.000000e+00
1.000000e+00
5.809180e-01
5.877828e-01
5.963232e-01
6.049266e-01
6.130877e-01
6.199534e-01
6.245942e-01
6.262651e-01
6.246814e-01
6.201570e-01
6.134659e-01
6.053586e-01
5.966237e-01
5.880915e-01
5.795785e-01
0.000000e+00
1.000000e+00
5.819794e-01
5.896398e-01
5.992965e-01
6.089966e-01
6.181999e-01
6.259462e-01
6.311888e-01
6.330903e-01
6.313345e-01
6.262697e-01
6.186920e-01
6.095260e-01
5.996533e-01
5.899497e-01
5.805950e-01
0.000000e+00
1.000000e+00
5.828581e-01
5.911036e-01
6.016699e-01
6.122468e-01
6.222850e-01
6.307398e-01
6.364712e-01
6.385666e-01
6.366840e-01
6.311817e-01
6.228706e-01
6.128772e-01
6.021057e-01
5.914536e-01
5.816528e-01
0.000000e+00
1.000000e+00
5.834705e-01
5.920511e-01
6.032463e-01
6.144092e-01
6.250083e-01
6.339417e-01
6.400050e-01
6.422332e-01
6.402650e-01
6.344630e-01
6.256713e-01
6.150970e-01
6.037798e-01
5.924923e-01
5.824004e-01
0.000000e+00
1.000000e+00
5.838077e-01
5.923868e-01
6.038990e-01
6.153117e-01
6.261507e-01
6.352897e-01
6.414986e-01
6.437806e-01
6.417650e-01
6.358379e-01
6.268729e-01
6.160233e-01
6.044644e-01
5.930251e-01
5.828848e-01
0.000000e+00
1.000000e+00
5.839081e-01
5.920101e-01
6.035852e-01
6.148939e-01
6.256307e-01
6.346860e-01
6.408440e-01
6.431036e-01
6.410840e-01
6.352140e-01
6.263746e-01
6.156196e-01
6.041277e-01
5.929188e-01
5.830161e-01
0.000000e+00
1.000000e+00
5.836810e-01
5.909325e-01
6.023563e-01
6.132193e-01
6.235262e-01
6.322174e-01
6.381277e-01
6.402978e-01
6.383280e-01
6.326872e-01
6.242337e-01
6.139225e-01
6.028560e-01
5.920705e-01
5.824735e-01
0.000000e+00
1.000000e+00
5.830943e-01
5.895496e-01
6.003242e-01
6.104320e-01
6.200204e-01
6.281038e-01
6.335986e-01
6.356223e-01
6.337661e-01
6.285011e-01
6.206599e-01
6.110584e-01
6.007812e-01
5.906504e-01
5.811736e-01
0.000000e+00
1.000000e+00
5.819665e-01
5.881942e-01
5.976353e-01
6.067405e-01
6.153812e-01
6.226633e-01
6.276115e-01
6.294363e-01
6.277704e-01
6.229903e-01
6.159372e-01
6.072757e-01
5.980319e-01
5.889196e-01
5.799369e-01
0.000000e+00
1.000000e+00
5.805983e-01
5.865052e-01
5.944827e-01
6.024087e-01
6.099319e-01
6.162680e-01
6.205663e-01
6.221463e-01
6.207124e-01
6.165327e-01
6.103803e-01
6.028304e-01
5.948192e-01
5.869152e-01
5.792111e-01
0.000000e+00
1.000000e+00
5.792107e-01
5.844051e-01
5.910241e-01
5.976702e-01
6.039761e-01
6.092823e-01
6.128724e-01
6.141784e-01
6.129730e-01
6.094891e-01
6.043010e-01
5.979729e-01
5.912850e-01
5.846805e-01
5.780022e-01
0.000000e+00
1.000000e+00
5.743043e-01
5.754593e-01
5.768481e-01
5.782643e-01
5.796068e-01
5.807339e-01
5.814913e-01
5.817553e-01
5.814785e-01
5.807108e-01
5.795734e-01
5.782439e-01
5.769671e-01
5.755699e-01
5.727409e-01
0.000000e+00
1.000000e+00
5.750148e-01
5.767554e-01
5.788879e-01
5.810582e-01
5.831160e-01
5.848444e-01
5.860075e-01
5.864170e-01
5.860007e-01
5.848333e-01
5.830994e-01
5.810822e-01
5.790562e-01
5.768905e-01
5.747384e-01
0.000000e+00
1.000000e+00
5.758408e-01
5.783221e-01
5.813551e-01
5.844363e-01
5.873582e-01
5.898138e-01
5.914676e-01
5.920524e-01
5.914664e-01
5.898143e-01
5.873616e-01
5.845531e-01
5.815703e-01
5.785482e-01
5.749985e-01
0.000000e+00
1.000000e+00
5.768011e-01
5.801289e-01
5.842030e-01
5.883352e-01
5.922542e-01
5.955483e-01
5.977688e-01
5.985569e-01
5.977757e-01
5.955653e-01
5.923034e-01
5.885399e-01
5.844455e-01
5.803582e-01
5.759645e-01
0.000000e+00
1.000000e+00
5.778530e-01
5.821065e-01
5.873239e-01
5.926077e-01
5.976192e-01
6.018321e-01
6.046731e-01
6.056851e-01
6.046917e-01
6.018724e-01
5.977507e-01
5.928875e-01
5.875872e-01
5.823736e-01
5.768623e-01
0.000000e+00
1.000000e+00
5.789476e-01
5.841512e-01
5.905574e-01
5.970342e-01
6.031777e-01
6.083434e-01
6.118293e-01
6.130745e-01
6.118629e-01
6.084236e-01
6.034142e-01
5.973769e-01
5.908429e-01
5.844243e-01
5.778208e-01
0.000000e+00
1.000000e+00
5.800227e-01
5.861303e-01
5.936964e-01
6.013312e-01
6.085737e-01
6.146653e-01
6.187793e-01
6.202544e-01
6.188380e-01
6.148204e-01
6.089264e-01
6.017498e-01
5.940020e-01
5.863994e-01
5.788550e-01
0.000000e+00
1.000000e+00
5.810058e-01
5.878932e-01
5.965066e-01
6.051784e-01
6.134056e-01
6.203283e-01
6.250085e-01
6.266955e-01
6.251105e-01
6.205912e-01
6.138662e-01
6.056804e-01
5.968522e-01
5.881655e-01
5.799953e-01
0.000000e+00
1.000000e+00
5.818128e-01
5.892934e-01
5.987574e-01
6.082605e-01
6.172790e-01
6.248713e-01
6.300107e-01
6.318755e-01
6.301682e-01
6.252432e-01
6.178187e-01
6.088496e-01
5.991522e-01
5.896200e-01
5.810570e-01
0.000000e+00
1.000000e+00
5.823935e-01
5.902051e-01
6.002557e-01
6.103135e-01
6.198605e-01
6.279038e-01
6.333585e-01
6.353487e-01
6.335614e-01
6.283522e-01
6.204555e-01
6.109604e-01
6.007180e-01
5.906270e-01
5.817408e-01
0.000000e+00
1.000000e+00
5.827240e-01
5.905348e-01
6.008769e-01
6.111643e-01
6.209326e-01
6.291684e-01
6.347654e-01
6.368165e-01
6.349830e-01
6.296473e-01
6.215656e-01
6.118215e-01
6.013744e-01
5.911035e-01
5.821598e-01
0.000000e+00
1.000000e+00
5.828257e-01
5.902029e-01
6.005694e-01
6.107524e-01
6.204223e-01
6.285775e-01
6.341258e-01
6.361687e-01
6.343303e-01
6.290388e-01
6.210703e-01
6.113866e-01
6.010585e-01
5.909037e-01
5.818705e-01
0.000000e+00
1.000000e+00
5.825871e-01
5.892711e-01
5.993872e-01
6.091442e-01
6.184051e-01
6.262128e-01
6.315222e-01
6.334807e-01
6.317005e-01
6.266139e-01
6.190174e-01
6.097387e-01
5.998314e-01
5.900319e-01
5.806648e-01
0.000000e+00
1.000000e+00
5.818944e-01
5.880407e-01
5.974436e-01
6.064795e-01
6.150538e-01
6.222794e-01
6.271890e-01
6.289999e-01
6.273466e-01
6.226058e-01
6.155943e-01
6.069962e-01
5.978306e-01
5.887743e-01
5.796288e-01
0.000000e+00
1.000000e+00
5.808855e-01
5.865965e-01
5.948739e-01
6.029535e-01
6.106217e-01
6.170816e-01
6.214673e-01
6.230833e-01
6.216161e-01
6.173449e-01
6.110805e-01
6.033868e-01
5.952015e-01
5.871673e-01
5.790338e-01
0.000000e+00
1.000000e+00
5.796645e-01
5.848787e-01
5.918619e-01
5.988180e-01
6.054199e-01
6.109778e-01
6.147433e-01