<?xml version="1.0"?>
<VTKFile type="StructuredGrid" version="0.1">
  <StructuredGrid WholeExtent="0 16 0 16 0 16">
    <Piece Extent="0 16 0 16 0 16">
      <PointData Scalars="temperature" Vectors="velocity">
        <DataArray type="Float32" Name="temperature" format="ascii">
1.000000e+00
5.731998e-01
5.730254e-01
5.730475e-01
5.730617e-01
5.730752e-01
5.730864e-01
5.730941e-01
5.730969e-01
5.730946e-01
5.730875e-01
5.730767e-01
5.730643e-01
5.730497e-01
5.730903e-01
5.724552e-01
0.000000e+00
1.000000e+00
5.732276e-01
5.732335e-01
5.733816e-01
5.735171e-01
5.736454e-01
5.737532e-01
5.738255e-01
5.738508e-01
5.738244e-01
5.737515e-01
5.736439e-01
5.735203e-01
5.733867e-01
5.732447e-01
5.724927e-01
0.000000e+00
1.000000e+00
5.734784e-01
5.736833e-01
5.740860e-01
5.744827e-01
5.748588e-01
5.751746e-01
5.753869e-01
5.754612e-01
5.753840e-01
5.751693e-01
5.748538e-01
5.744868e-01
5.741122e-01
5.737097e-01
5.732276e-01
0.000000e+00
1.000000e+00
5.738543e-01
5.743893e-01
5.751957e-01
5.760023e-01
5.767672e-01
5.774098e-01
5.778423e-01
5.779942e-01
5.778383e-01
5.774024e-01
5.767604e-01
5.760165e-01
5.752575e-01
5.744562e-01
5.734425e-01
0.000000e+00
1.000000e+00
5.743624e-01
5.753519e-01
5.767103e-01
5.780764e-01
5.793721e-01
5.804609e-01
5.811941e-01
5.814529e-01
5.811909e-01
5.804548e-01
5.793708e-01
5.781224e-01
5.768250e-01
5.754513e-01
5.739938e-01
0.000000e+00
1.000000e+00
5.749977e-01
5.765537e-01
5.786030e-01
5.806684e-01
5.826273e-01
5.842739e-01
5.853836e-01
5.857769e-01
5.853841e-01
5.842770e-01
5.826532e-01
5.807724e-01
5.787609e-01
5.766885e-01
5.745553e-01
0.000000e+00
1.000000e+00
5.757432e-01
5.779561e-01
5.808144e-01
5.836966e-01
5.864305e-01
5.887291e-01
5.902794e-01
5.908310e-01
5.902881e-01
5.887533e-01
5.865084e-01
5.838582e-01
5.810068e-01
5.781190e-01
5.752637e-01
0.000000e+00
1.000000e+00
5.765643e-01
5.795005e-01
5.832538e-01
5.870370e-01
5.906259e-01
5.936441e-01
5.956810e-01
5.964087e-01
5.957024e-01
5.937010e-01
5.907645e-01
5.872405e-01
5.834724e-01
5.797000e-01
5.759951e-01
0.000000e+00
1.000000e+00
5.774197e-01
5.811153e-01
5.858053e-01
5.905306e-01
5.950139e-01
5.987850e-01
6.013315e-01
6.022443e-01
6.013695e-01
5.988808e-01
5.952107e-01
5.907641e-01
5.860512e-01
5.813476e-01
5.766655e-01
0.000000e+00
1.000000e+00
5.782645e-01
5.827169e-01
5.883386e-01
5.939992e-01
5.993702e-01
6.038886e-01
6.069417e-01
6.080393e-01
6.069993e-01
6.040297e-01
5.996207e-01
5.942622e-01
5.886024e-01
5.829791e-01
5.772935e-01
0.000000e+00
1.000000e+00
5.790639e-01
5.842212e-01
5.907224e-01
5.972626e-01
6.034686e-01
6.086905e-01
6.122206e-01
6.134939e-01
6.123017e-01
6.088807e-01
6.037652e-01
5.975517e-01
5.910052e-01
5.845038e-01
5.780017e-01
0.000000e+00
1.000000e+00
5.797857e-01
5.855520e-01
5.928383e-01
6.001592e-01
6.071064e-01
6.129529e-01
6.169078e-01
6.183394e-01
6.170151e-01
6.131916e-01
6.074417e-01
6.004756e-01
5.931300e-01
5.858624e-01
5.786336e-01
0.000000e+00
1.000000e+00
5.804000e-01
5.866488e-01
5.945931e-01
6.025613e-01
6.101231e-01
6.164886e-01
6.207975e-01
6.223638e-01
6.209309e-01
6.167693e-01
6.104911e-01
6.028996e-01
5.948927e-01
5.869855e-01
5.791104e-01
0.000000e+00
1.000000e+00
5.808830e-01
5.874720e-01
5.959250e-01
6.043846e-01
6.124140e-01
6.191750e-01
6.237551e-01
6.254261e-01
6.239094e-01
6.194863e-01
6.128042e-01
6.047398e-01
5.962211e-01
5.878388e-01
5.794529e-01
0.000000e+00
1.000000e+00
5.812332e-01
5.880005e-01
5.968054e-01
6.055913e-01
6.139319e-01
6.209566e-01
6.257180e-01
6.274589e-01
6.258832e-01
6.212831e-01
6.143376e-01
6.059587e-01
5.970998e-01
5.883955e-01
5.797621e-01
0.000000e+00
1.000000e+00
5.814486e-01
5.882326e-01
5.972383e-01
6.061866e-01
6.146823e-01
6.218384e-01
6.266905e-01
6.284652e-01
6.268544e-01
6.221649e-01
6.150956e-01
6.065646e-01
5.975310e-01
5.886772e-01
5.798595e-01
0.000000e+00
1.000000e+00
5.815165e-01
5.882094e-01
5.972556e-01
6.062107e-01
6.147117e-01
6.218717e-01
6.267274e-01
6.285057e-01
6.268827e-01
6.221731e-01
6.151187e-01
6.065884e-01
5.975430e-01
5.887005e-01
5.796021e-01
0.000000e+00
1.000000e+00
5.731558e-01
5.730174e-01
5.730354e-01
5.730445e-01
5.730530e-01
5.730602e-01
5.730649e-01
5.730665e-01
5.730648e-01
5.730602e-01
5.730534e-01
5.730504e-01
5.730432e-01
5.730748e-01
5.723732e-01
0.000000e+00
1.000000e+00
5.733499e-01
5.734573e-01
5.737294e-01
5.739935e-01
5.742439e-01
5.744541e-01
5.745954e-01
5.746448e-01
5.745935e-01
5.744507e-01
5.742391e-01
5.739930e-01
5.737470e-01
5.735173e-01
5.725022e-01
0.000000e+00
1.000000e+00
5.737321e-01
5.741628e-01
5.748373e-01
5.755114e-01
5.761506e-01
5.766876e-01
5.770489e-01
5.771760e-01
5.770459e-01
5.766818e-01
5.761426e-01
5.755130e-01
5.748818e-01
5.742246e-01
5.733091e-01
0.000000e+00
1.000000e+00
5.742500e-01
5.751446e-01
5.763828e-01
5.776278e-01
5.788084e-01
5.798005e-01
5.804685e-01
5.807044e-01
5.804658e-01
5.797944e-01
5.788009e-01
5.776579e-01
5.764800e-01
5.752382e-01
5.736892e-01
0.000000e+00
1.000000e+00
5.749106e-01
5.763963e-01
5.783545e-01
5.803277e-01
5.821991e-01
5.837719e-01
5.848319e-01
5.852077e-01
5.848325e-01
5.837730e-01
5.822134e-01
5.804179e-01
5.785046e-01
5.765174e-01
5.743987e-01
0.000000e+00
1.000000e+00
5.757030e-01
5.778891e-01
5.807086e-01
5.835514e-01
5.862478e-01
5.885146e-01
5.900436e-01
5.905882e-01
5.900529e-01
5.885361e-01
5.863133e-01
5.837030e-01
5.808868e-01
5.780436e-01
5.750768e-01
0.000000e+00
1.000000e+00
5.765946e-01
5.795712e-01
5.833643e-01
5.871881e-01
5.908154e-01
5.938655e-01
5.959241e-01
5.966600e-01
5.959459e-01
5.939171e-01
5.909439e-01
5.873824e-01
5.835716e-01
5.797616e-01
5.758788e-01
0.000000e+00
1.000000e+00
5.775427e-01
5.813703e-01
5.862045e-01
5.910771e-01
5.956997e-01
5.995879e-01
6.022137e-01
6.031558e-01
6.022521e-01
5.996796e-01
5.958957e-01
5.913089e-01
5.864398e-01
5.815971e-01
5.766744e-01
0.000000e+00
1.000000e+00
5.785033e-01
5.831937e-01
5.890868e-01
5.950235e-01
6.006560e-01
6.053947e-01
6.085970e-01
6.097495e-01
6.086556e-01
6.055361e-01
6.009180e-01
5.952913e-01
5.893497e-01
5.834524e-01
5.774879e-01
0.000000e+00
1.000000e+00
5.794323e-01
5.849430e-01
5.918576e-01
5.988170e-01
6.054201e-01
6.109764e-01
6.147335e-01
6.160904e-01
6.148169e-01
6.111751e-01
6.057423e-01
5.991245e-01
5.921411e-01
5.852305e-01
5.782843e-01
0.000000e+00
1.000000e+00
5.802880e-01
5.865229e-01
5.943687e-01
6.022546e-01
6.097371e-01
6.160347e-01
6.202960e-01
6.218414e-01
6.204088e-01
6.162935e-01
6.101135e-01
6.025981e-01
5.946738e-01
5.868395e-01
5.790484e-01
0.000000e+00
1.000000e+00
5.810300e-01
5.878519e-01
5.964940e-01
6.051637e-01
6.133907e-01
6.203168e-01
6.250077e-01
6.267166e-01
6.251521e-01
6.206323e-01
6.138133e-01
6.055423e-01
5.968122e-01
5.882043e-01
5.796818e-01
0.000000e+00
1.000000e+00
5.816280e-01
5.888707e-01
5.981424e-01
6.074202e-01
6.162257e-01
6.236416e-01
6.286689e-01
6.305082e-01
6.288409e-01
6.240007e-01
6.166867e-01
6.078256e-01
5.984693e-01
5.892625e-01
5.801065e-01
0.000000e+00
1.000000e+00
5.820656e-01
5.895447e-01
5.992635e-01
6.089562e-01
6.181578e-01
6.259099e-01
6.311691e-01
6.330985e-01
6.313578e-01
6.262949e-01
6.186443e-01
6.093823e-01
5.995857e-01
5.899804e-01
5.804125e-01
0.000000e+00
1.000000e+00
5.823459e-01
5.898612e-01
5.998476e-01
6.097603e-01
6.191719e-01
6.271024e-01
6.324844e-01
6.344600e-01
6.326766e-01
6.274944e-01
6.196697e-01
6.101973e-01
6.001686e-01
5.903480e-01
5.806411e-01
0.000000e+00
1.000000e+00
5.824709e-01
5.898287e-01
5.999217e-01
6.098676e-01
6.193102e-01
6.272669e-01
6.326667e-01
6.346461e-01
6.328495e-01
6.276462e-01
6.197959e-01
6.102984e-01
6.002440e-01
5.903967e-01
5.806318e-01
0.000000e+00
1.000000e+00
5.824504e-01
5.895100e-01
5.995387e-01
6.093462e-01
6.186555e-01
6.264993e-01
6.318225e-01
6.337739e-01
6.319817e-01
6.268298e-01
6.191036e-01
6.097461e-01
5.998163e-01
5.901166e-01
5.805114e-01
0.000000e+00
1.000000e+00
5.730482e-01
5.727736e-01
5.726469e-01
5.725133e-01
5.723866e-01
5.722801e-01
5.722083e-01
5.721826e-01
5.722076e-01
5.722792e-01
5.723855e-01
5.725271e-01
5.726672e-01
5.728545e-01
5.725227e-01
0.000000e+00
1.000000e+00
5.733606e-01
5.734505e-01
5.737133e-01
5.739715e-01
5.742163e-01
5.744218e-01
5.745597e-01
5.746076e-01
5.745565e-01
5.744156e-01
5.742067e-01
5.739715e-01
5.737500e-01
5.735486e-01
5.728574e-01
0.000000e+00
1.000000e+00
5.738529e-01
5.744189e-01
5.752365e-01
5.760575e-01
5.768360e-01
5.774899e-01
5.779299e-01
5.780842e-01
5.779249e-01
5.774792e-01
5.768179e-01
5.760554e-01
5.753040e-01
5.745191e-01
5.731696e-01
0.000000e+00
1.000000e+00
5.745235e-01
5.756878e-01
5.772345e-01
5.787939e-01
5.802725e-01
5.815149e-01
5.823516e-01
5.826468e-01
5.823474e-01
5.815047e-01
5.802582e-01
5.788446e-01
5.773692e-01
5.758050e-01
5.737084e-01
0.000000e+00
1.000000e+00
5.753495e-01
5.772415e-01
5.796837e-01
5.821475e-01
5.844841e-01
5.864480e-01
5.877718e-01
5.882416e-01
5.877741e-01
5.864530e-01
5.845181e-01
5.822785e-01
5.798480e-01
5.773814e-01
5.744873e-01
0.000000e+00
1.000000e+00
5.763083e-01
5.790385e-01
5.825200e-01
5.860316e-01
5.893623e-01
5.921626e-01
5.940520e-01
5.947261e-01
5.940669e-01
5.921978e-01
5.894659e-01
5.862108e-01
5.827065e-01
5.792116e-01
5.753699e-01
0.000000e+00
1.000000e+00
5.773531e-01
5.810117e-01
5.856369e-01
5.902996e-01
5.947227e-01
5.984428e-01
6.009547e-01
6.018545e-01
6.009857e-01
5.985180e-01
5.948989e-01
5.905170e-01
5.858530e-01
5.812236e-01
5.763326e-01
0.000000e+00
1.000000e+00
5.784357e-01
5.830697e-01
5.888880e-01
5.947510e-01
6.003134e-01
6.049932e-01
6.081557e-01
6.092929e-01
6.082075e-01
6.051215e-01
6.005656e-01
5.950138e-01
5.891302e-01
5.833148e-01
5.773114e-01
0.000000e+00
1.000000e+00
5.795110e-01
5.851004e-01
5.921020e-01
5.991513e-01
6.058400e-01
6.114691e-01
6.152763e-01
6.166501e-01
6.153544e-01
6.116628e-01
6.061663e-01
5.994647e-01
5.923679e-01
5.853764e-01
5.782906e-01
0.000000e+00
1.000000e+00
5.805280e-01
5.869888e-01
5.951003e-01
6.032565e-01
6.109962e-01
6.175115e-01
6.219215e-01
6.235194e-01
6.220329e-01
6.177774e-01
6.113907e-01
6.036227e-01
5.953905e-01
5.872956e-01
5.791975e-01
0.000000e+00
1.000000e+00
5.814342e-01
5.886285e-01
5.977185e-01
6.068417e-01
6.154994e-01
6.227888e-01
6.277276e-01
6.295259e-01
6.278773e-01
6.231256e-01
6.159554e-01
6.072548e-01
5.980327e-01
5.889706e-01
5.799850e-01
0.000000e+00
1.000000e+00
5.821842e-01
5.899348e-01
5.998250e-01
6.097254e-01
6.191210e-01
6.270354e-01
6.324044e-01
6.343689e-01
6.325904e-01
6.274332e-01
6.196321e-01
6.101772e-01
6.001581e-01
5.903171e-01
5.806021e-01
0.000000e+00
1.000000e+00
5.827526e-01
5.908501e-01
6.013327e-01
6.117901e-01
6.217169e-01
6.300830e-01
6.357638e-01
6.378498e-01
6.359748e-01
6.305205e-01
6.222725e-01
6.122724e-01
6.016724e-01
5.912847e-01
5.809896e-01
0.000000e+00
1.000000e+00
5.831307e-01
5.913456e-01
6.022071e-01
6.129914e-01
6.232312e-01
6.318634e-01
6.377273e-01
6.398829e-01
6.379466e-01
6.323152e-01
6.238124e-01
6.134984e-01
6.025417e-01
5.918424e-01
5.812154e-01
0.000000e+00
1.000000e+00
5.833264e-01
5.914174e-01
6.024629e-01
6.133497e-01
6.236859e-01
6.323990e-01
6.383171e-01
6.404903e-01
6.385308e-01
6.328443e-01
6.242682e-01
6.138587e-01
6.027942e-01
5.920026e-01
5.813485e-01
0.000000e+00
1.000000e+00
5.833444e-01
5.910874e-01
6.021542e-01
6.129338e-01
6.231640e-01
6.317866e-01
6.376409e-01
6.397848e-01
6.378382e-01
6.322061e-01
6.237154e-01
6.134151e-01
6.024751e-01
5.917996e-01
5.812526e-01
0.000000e+00
1.000000e+00
5.831142e-01
5.904650e-01
6.013578e-01
6.118429e-01
6.217907e-01
6.301744e-01
6.358654e-01
6.379444e-01
6.360286e-01
6.305410e-01
6.222861e-01
6.122736e-01
6.016304e-01
5.912538e-01
5.810951e-01
0.000000e+00
1.000000e+00
5.727679e-01
5.722667e-01
5.718485e-01
5.714198e-01
5.710133e-01
5.706719e-01
5.704418e-01
5.703602e-01
5.704414e-01
5.706723e-01
5.710144e-01
5.714527e-01
5.718910e-01
5.723247e-01
5.724017e-01
0.000000e+00
1.000000e+00
5.732328e-01
5.731779e-01
5.732814e-01
5.733808e-01
5.734750e-01
5.735539e-01
5.736065e-01
5.736239e-01
5.736025e-01
5.735463e-01
5.734627e-01
5.733949e-01
5.733350e-01
5.732550e-01
5.730513e-01
0.000000e+00
1.000000e+00
5.738480e-01
5.744113e-01
5.752188e-01
5.760334e-01
5.768057e-01
5.774543e-01
5.778905e-01
5.780430e-01
5.778835e-01
5.774388e-01
5.767776e-01
5.760324e-01
5.753210e-01
5.745316e-01
5.734649e-01
0.000000e+00
1.000000e+00
5.746646e-01
5.759698e-01
5.776707e-01
5.793909e-01
5.810221e-01
5.823928e-01
5.833156e-01
5.836407e-01
5.833088e-01
5.823760e-01
5.809959e-01
5.794497e-01
5.778494e-01
5.761090e-01
5.741432e-01
0.000000e+00
1.000000e+00
5.756541e-01
5.778267e-01
5.805989e-01
5.834004e-01
5.860571e-01
5.882900e-01
5.897949e-01
5.903286e-01
5.897960e-01
5.882943e-01
5.861032e-01
5.835619e-01
5.807925e-01
5.779793e-01
5.750646e-01
0.000000e+00
1.000000e+00
5.767799e-01
5.799263e-01
5.839184e-01
5.879459e-01
5.917660e-01
5.949778e-01
5.971450e-01
5.979186e-01
5.971633e-01
5.950241e-01
5.918990e-01
5.881542e-01
5.841289e-01
5.801149e-01
5.760217e-01
0.000000e+00
1.000000e+00
5.779811e-01
5.821875e-01
5.874951e-01
5.928432e-01
5.979168e-01
6.021842e-01
6.050667e-01
6.061007e-01
6.051066e-01
6.022825e-01
5.981308e-01
5.930966e-01
5.877282e-01
5.824169e-01
5.770748e-01
0.000000e+00
1.000000e+00
5.792040e-01
5.844981e-01
5.911525e-01
5.978508e-01
6.042059e-01
6.095532e-01
6.131683e-01
6.144701e-01
6.132350e-01
6.097176e-01
6.045007e-01
5.981621e-01
5.914069e-01
5.847623e-01
5.781272e-01
0.000000e+00
1.000000e+00
5.803977e-01
5.867270e-01
5.946880e-01
6.026914e-01
6.102854e-01
6.166772e-01
6.210022e-01
6.225660e-01
6.211052e-01
6.169213e-01
6.106587e-01
6.030652e-01
5.949704e-01
5.870252e-01
5.791712e-01
0.000000e+00
1.000000e+00
5.814992e-01
5.887415e-01
5.978968e-01
6.070847e-01
6.158037e-01
6.231447e-01
6.281170e-01
6.299242e-01
6.282662e-01
6.234743e-01
6.162498e-01
6.075254e-01
5.982110e-01
5.890789e-01
5.801146e-01
0.000000e+00
1.000000e+00
5.824514e-01
5.904236e-01
6.005982e-01
6.107837e-01
6.204501e-01
6.285923e-01
6.341142e-01
6.361328e-01
6.343120e-01
6.290016e-01
6.209657e-01
6.112819e-01
6.009516e-01
5.908016e-01
5.808978e-01
0.000000e+00
1.000000e+00
5.832070e-01
5.916850e-01
6.026562e-01
6.136014e-01
6.239912e-01
6.327483e-01
6.386951e-01
6.408790e-01
6.389310e-01
6.332191e-01
6.245747e-01
6.141415e-01
6.030422e-01
5.921154e-01
5.814894e-01
0.000000e+00
1.000000e+00
5.837473e-01
5.924696e-01
6.039926e-01
6.154345e-01
6.263002e-01
6.354626e-01
6.416885e-01
6.439794e-01
6.419423e-01
6.359639e-01
6.269369e-01
6.160113e-01
6.043805e-01
5.929725e-01
5.818489e-01
0.000000e+00
1.000000e+00
5.840668e-01
5.927567e-01
6.045936e-01
6.162671e-01
6.273537e-01
6.367020e-01
6.430536e-01
6.453891e-01
6.433056e-01
6.372030e-01
6.280122e-01
6.168703e-01
6.049687e-01
5.933484e-01
5.819963e-01
0.000000e+00
1.000000e+00
5.841662e-01
5.925635e-01
6.045022e-01
6.161535e-01
6.272132e-01
6.365361e-01
6.428675e-01
6.451905e-01
6.431049e-01
6.370165e-01
6.278609e-01
6.167453e-01
6.048648e-01
5.932756e-01
5.819889e-01
0.000000e+00
1.000000e+00
5.840179e-01
5.919790e-01
6.037992e-01
6.151946e-01
6.260056e-01
6.351174e-01
6.413023e-01
6.435638e-01
6.415162e-01
6.355634e-01
6.266119e-01
6.157379e-01
6.041400e-01
5.928222e-01
5.817853e-01
0.000000e+00
1.000000e+00
5.836516e-01
5.911380e-01
6.025845e-01
6.135253e-01
6.239037e-01
6.326503e-01
6.385857e-01
6.407462e-01
6.387610e-01
6.330432e-01
6.244422e-01
6.139907e-01
6.028589e-01
5.919934e-01
5.814902e-01
0.000000e+00
1.000000e+00
5.723478e-01
5.714876e-01
5.706222e-01
5.697407e-01
5.689050e-01
5.682031e-01
5.677306e-01
5.675640e-01
5.677332e-01
5.682104e-01
5.689159e-01
5.698057e-01
5.706977e-01
5.715692e-01
5.718911e-01
0.000000e+00
1.000000e+00
5.729520e-01
5.726203e-01
5.724040e-01
5.721801e-01
5.719677e-01
5.717892e-01
5.716685e-01
5.716248e-01
5.716654e-01
5.717840e-01
5.719587e-01
5.722314e-01
5.724756e-01
5.727018e-01
5.726566e-01
0.000000e+00
1.000000e+00
5.736874e-01
5.741068e-01
5.747366e-01
5.753734e-01
5.759771e-01
5.764841e-01
5.768249e-01
5.769436e-01
5.768176e-01
5.764679e-01
5.759470e-01
5.753877e-01
5.748594e-01
5.742481e-01
5.731954e-01
0.000000e+00
1.000000e+00
5.746428e-01
5.759450e-01
5.776239e-01
5.793270e-01
5.809421e-01
5.822991e-01
5.832125e-01
5.835337e-01
5.832044e-01
5.822793e-01
5.809043e-01
5.793816e-01
5.778421e-01
5.761140e-01
5.739994e-01
0.000000e+00
1.000000e+00
5.757864e-01
5.780956e-01
5.810120e-01
5.839660e-01
5.867670e-01
5.891212e-01
5.907075e-01
5.912691e-01
5.907059e-01
5.891194e-01
5.868042e-01
5.841420e-01
5.812508e-01
5.782772e-01
5.750468e-01
0.000000e+00
1.000000e+00
5.770686e-01
5.804885e-01
5.847945e-01
5.891449e-01
5.932710e-01
5.967399e-01
5.990799e-01
5.999142e-01
5.990976e-01
5.967866e-01
5.934133e-01
5.893788e-01
5.850383e-01
5.807013e-01
5.761909e-01
0.000000e+00
1.000000e+00
5.784198e-01
5.830248e-01
5.888091e-01
5.946414e-01
6.001741e-01
6.048274e-01
6.079702e-01
6.090972e-01
6.080144e-01
6.049360e-01
6.004080e-01
5.949333e-01
5.890659e-01
5.832720e-01
5.774047e-01
0.000000e+00
1.000000e+00
5.797803e-01
5.855714e-01
5.928472e-01
6.001700e-01
6.071173e-01
6.129627e-01
6.169149e-01
6.183393e-01
6.169943e-01
6.131520e-01
6.074411e-01
6.005348e-01
5.931222e-01
5.858536e-01
5.786195e-01
0.000000e+00
1.000000e+00
5.810891e-01
5.879778e-01
5.966754e-01
6.054110e-01
6.136991e-01
6.206758e-01
6.253984e-01
6.271108e-01
6.255284e-01
6.209633e-01
6.141077e-01
6.058509e-01
5.969815e-01
5.883000e-01
5.797797e-01
0.000000e+00
1.000000e+00
5.822712e-01
5.900948e-01
6.000639e-01
6.100496e-01
6.195255e-01
6.275061e-01
6.329162e-01
6.348928e-01
6.331093e-01
6.278962e-01
6.200097e-01
6.105645e-01
6.004224e-01
5.904574e-01
5.807882e-01
0.000000e+00
1.000000e+00
5.832672e-01
5.917948e-01
6.028170e-01
6.138188e-01
6.242623e-01
6.330640e-01
6.390403e-01
6.412394e-01
6.392923e-01
6.335431e-01
6.248242e-01
6.143811e-01
6.032582e-01
5.922092e-01
5.815533e-01
0.000000e+00
1.000000e+00
5.840250e-01
5.929877e-01
6.047978e-01
6.165336e-01
6.276790e-01
6.370789e-01
6.434687e-01
6.458288e-01
6.437562e-01
6.376143e-01
6.283186e-01
6.171286e-01
6.052974e-01
5.934922e-01
5.821015e-01
0.000000e+00
1.000000e+00
5.845221e-01
5.936267e-01
6.059416e-01
6.181089e-01
6.296686e-01
6.394200e-01
6.460493e-01
6.484980e-01
6.463442e-01
6.399691e-01
6.303615e-01
6.187720e-01
6.064220e-01
5.942423e-01
5.824192e-01
0.000000e+00
1.000000e+00
5.847468e-01
5.937155e-01
6.062582e-01
6.185575e-01
6.302403e-01
6.400916e-01
6.467847e-01
6.492513e-01
6.470664e-01
6.406231e-01
6.309460e-01
6.192552e-01
6.067079e-01
5.944003e-01
5.825259e-01
0.000000e+00
1.000000e+00
5.846686e-01
5.933315e-01
6.058197e-01
6.179665e-01
6.294969e-01
6.392159e-01
6.458149e-01
6.482383e-01
6.460711e-01
6.397148e-01
6.301857e-01
6.186401e-01
6.062363e-01
5.940270e-01
5.823889e-01
0.000000e+00
1.000000e+00
5.842478e-01
5.926322e-01
6.047311e-01
6.164724e-01
6.276142e-01
6.370041e-01
6.433780e-01
6.457108e-01
6.436007e-01
6.374629e-01
6.282604e-01
6.170791e-01
6.051038e-01
5.933554e-01
5.820329e-01
0.000000e+00
1.000000e+00
5.836967e-01
5.916293e-01
6.031071e-01
6.142418e-01
6.248084e-01
6.337137e-01
6.397570e-01
6.419606e-01
6.399395e-01
6.341231e-01
6.253857e-01
6.147479e-01
6.033979e-01
5.923202e-01
5.816398e-01
0.000000e+00
1.000000e+00
5.718006e-01
5.704441e-01
5.689814e-01
5.674942e-01
5.660846e-01
5.649012e-01
5.641052e-01
5.638260e-01
5.641141e-01
5.649213e-01
5.661119e-01
5.675950e-01
5.690945e-01
5.705635e-01
5.712976e-01
0.000000e+00
1.000000e+00
5.725146e-01
5.717772e-01
5.710793e-01
5.703668e-01
5.696917e-01
5.691252e-01
5.687439e-01
5.686090e-01
5.687447e-01
5.691286e-01
5.696939e-01
5.704746e-01
5.711887e-01
5.718882e-01
5.721603e-01
0.000000e+00
1.000000e+00
5.733677e-01
5.734936e-01
5.737715e-01
5.740524e-01
5.743187e-01
5.745425e-01
5.746930e-01
5.747450e-01
5.746881e-01
5.745315e-01
5.742957e-01
5.741082e-01
5.739064e-01
5.736545e-01
5.728394e-01
0.000000e+00
1.000000e+00
5.744448e-01
5.755860e-01
5.770547e-01
5.785481e-01
5.799640e-01
5.811537e-01
5.819543e-01
5.822355e-01
5.819464e-01
5.811358e-01
5.799262e-01
5.785945e-01
5.772873e-01
5.757844e-01
5.737901e-01
0.000000e+00
1.000000e+00
5.757220e-01
5.780054e-01
5.808606e-01
5.837588e-01
5.865072e-01
5.888174e-01
5.903739e-01
5.909244e-01
5.903703e-01
5.888092e-01
5.865182e-01
5.839355e-01
5.811423e-01
5.782184e-01
5.749846e-01
0.000000e+00
1.000000e+00
5.771419e-01
5.806663e-01
5.850606e-01
5.895087e-01
5.937274e-01
5.972737e-01
5.996651e-01
6.005161e-01
5.996784e-01
5.973107e-01
5.938571e-01
5.897717e-01
5.853482e-01
5.809042e-01
5.762361e-01
0.000000e+00
1.000000e+00
5.786265e-01
5.834510e-01
5.894659e-01
5.955399e-01
6.013012e-01
6.061462e-01
6.094172e-01
6.105886e-01
6.094596e-01
6.062517e-01
6.015389e-01
5.958588e-01
5.897607e-01
5.837180e-01
5.775939e-01
0.000000e+00
1.000000e+00
5.801069e-01
5.862070e-01
5.938375e-01
6.015246e-01
6.088168e-01
6.149516e-01
6.190986e-01
6.205931e-01
6.191827e-01
6.151498e-01
6.091543e-01
6.019194e-01
5.941447e-01
5.865069e-01
5.789156e-01
0.000000e+00
1.000000e+00
5.815114e-01
5.887656e-01
5.979132e-01
6.071037e-01
6.158231e-01
6.231621e-01
6.281306e-01
6.299352e-01
6.282765e-01
6.234761e-01
6.162521e-01
6.075836e-01
5.982543e-01
5.891014e-01
5.801410e-01
0.000000e+00
1.000000e+00
5.827556e-01
5.909638e-01
6.014409e-01
6.119325e-01
6.218881e-01
6.302738e-01
6.359616e-01
6.380471e-01
6.361836e-01
6.307068e-01
6.223987e-01
6.124780e-01
6.018523e-01
5.913441e-01
5.811723e-01
0.000000e+00
1.000000e+00
5.837744e-01
5.926679e-01
6.042137e-01
6.157291e-01
6.266604e-01
6.358762e-01
6.421396e-01
6.444545e-01
6.424269e-01
6.364044e-01
6.272583e-01
6.162868e-01
6.047406e-01
5.931192e-01
5.819254e-01
0.000000e+00
1.000000e+00
5.845072e-01
5.937925e-01
6.060976e-01
6.183121e-01
6.299136e-01
6.397025e-01
6.463629e-01
6.488329e-01
6.466826e-01
6.402780e-01
6.305886e-01
6.188997e-01
6.066454e-01
5.943744e-01
5.824335e-01
0.000000e+00
1.000000e+00
5.849236e-01
5.943096e-01
6.070425e-01
6.196160e-01
6.315641e-01
6.416465e-01
6.485055e-01
6.510461e-01
6.488235e-01
6.422196e-01
6.322762e-01
6.202953e-01
6.075393e-01
5.950082e-01
5.827200e-01
0.000000e+00
1.000000e+00
5.850024e-01
5.942586e-01
6.070822e-01
6.196838e-01
6.316562e-01
6.417542e-01
6.486181e-01
6.511515e-01
6.489127e-01
6.422960e-01
6.323720e-01
6.204147e-01
6.075831e-01
5.949470e-01
5.827920e-01
0.000000e+00
1.000000e+00
5.847187e-01
5.937508e-01
6.063138e-01
6.186362e-01
6.303366e-01
6.402014e-01
6.469036e-01
6.493675e-01
6.471625e-01
6.407029e-01
6.310414e-01
6.193550e-01
6.067650e-01
5.943150e-01
5.826704e-01
0.000000e+00
1.000000e+00
5.841382e-01
5.928850e-01
6.048638e-01
6.166438e-01
6.278267e-01
6.372542e-01
6.436592e-01
6.460104e-01
6.438812e-01
6.377129e-01
6.284961e-01
6.172897e-01
6.052565e-01
5.934529e-01
5.821921e-01
0.000000e+00
1.000000e+00
5.834654e-01
5.916451e-01
6.028643e-01
6.139029e-01
6.243850e-01
6.332205e-01
6.392203e-01
6.414181e-01
6.394075e-01
6.336318e-01
6.249797e-01
6.144207e-01
6.031594e-01
5.922160e-01
5.816063e-01
0.000000e+00
1.000000e+00
5.711487e-01
5.691652e-01
5.669728e-01
5.647445e-01
5.626328e-01
5.608604e-01
5.596694e-01
5.592530e-01
5.596872e-01
5.608971e-01
5.626807e-01
5.648804e-01
5.671197e-01
5.693080e-01
5.706862e-01
0.000000e+00
1.000000e+00
5.719388e-01
5.706701e-01
5.693407e-01
5.679870e-01
5.667048e-01
5.656296e-01
5.649076e-01
5.646551e-01
5.649175e-01
5.656504e-01
5.667290e-01
5.681453e-01
5.695003e-01
5.708214e-01
5.716130e-01
0.000000e+00
1.000000e+00
5.729002e-01
5.725841e-01
5.723428e-01
5.720967e-01
5.718639e-01
5.716690e-01
5.715381e-01
5.714920e-01
5.715387e-01
5.716698e-01
5.718561e-01
5.722259e-01
5.725012e-01
5.727605e-01
5.724072e-01
0.000000e+00
1.000000e+00
5.740757e-01
5.748925e-01
5.759627e-01
5.770531e-01
5.780870e-01
5.789560e-01
5.795410e-01
5.797465e-01
5.795349e-01
5.789425e-01
5.780590e-01
5.771119e-01
5.761962e-01
5.751138e-01
5.734820e-01
0.000000e+00
1.000000e+00
5.754609e-01
5.775399e-01
5.801220e-01
5.827480e-01
5.852386e-01
5.873321e-01
5.887421e-01
5.892405e-01
5.887384e-01
5.873232e-01
5.852234e-01
5.829005e-01
5.804388e-01
5.777808e-01
5.747796e-01
0.000000e+00
1.000000e+00
5.769938e-01
5.804260e-01
5.846702e-01
5.889741e-01
5.930561e-01
5.964877e-01
5.988012e-01
5.996232e-01
5.988097e-01
5.965115e-01
5.931558e-01
5.892593e-01
5.849963e-01
5.806819e-01
5.761473e-01
0.000000e+00
1.000000e+00
5.785847e-01
5.834165e-01
5.893949e-01
5.954422e-01
6.011779e-01
6.060005e-01
6.092547e-01
6.104178e-01
6.092903e-01
6.060914e-01
6.014071e-01
5.957820e-01
5.897281e-01
5.836981e-01
5.775726e-01
0.000000e+00
1.000000e+00
5.801532e-01
5.863423e-01
5.940313e-01
6.017889e-01
6.091474e-01
6.153369e-01
6.195188e-01
6.210235e-01
6.195968e-01
6.155235e-01
6.094882e-01
6.021831e-01
5.943802e-01
5.866526e-01
5.789580e-01
0.000000e+00
1.000000e+00
5.816233e-01
5.890196e-01
5.982925e-01
6.076218e-01
6.164718e-01
6.239196e-01
6.289602e-01
6.307895e-01
6.291027e-01
6.242321e-01
6.169127e-01
6.080765e-01
5.986810e-01
5.893608e-01
5.801869e-01
0.000000e+00
1.000000e+00
5.829027e-01
5.912747e-01
6.019095e-01
6.125726e-01
6.226898e-01
6.312105e-01
6.369894e-01
6.391085e-01
6.372130e-01
6.316527e-01
6.232246e-01
6.130636e-01
6.023851e-01
5.916600e-01
5.812170e-01
0.000000e+00
1.000000e+00
5.839147e-01
5.929725e-01
6.046688e-01
6.163502e-01
6.274380e-01
6.367853e-01
6.431388e-01
6.454885e-01
6.434307e-01
6.373231e-01
6.280605e-01
6.168756e-01
6.052126e-01
5.934401e-01
5.819644e-01
0.000000e+00
1.000000e+00
5.845944e-01
5.940360e-01
6.064411e-01
6.187800e-01
6.304984e-01
6.403859e-01
6.471145e-01
6.496111e-01
6.474373e-01
6.409611e-01
6.311796e-01
6.194035e-01
6.069390e-01
5.946266e-01
5.824645e-01
0.000000e+00
1.000000e+00
5.849096e-01
5.944551e-01
6.071922e-01
6.198165e-01
6.318113e-01
6.419335e-01
6.488208e-01
6.513719e-01
6.491371e-01
6.424966e-01
6.325104e-01
6.204955e-01
6.076561e-01
5.951376e-01
5.827592e-01
0.000000e+00
1.000000e+00
5.848433e-01
5.942885e-01
6.069762e-01
6.195299e-01
6.314563e-01
6.415167e-01
6.483579e-01
6.508810e-01
6.486436e-01
6.420432e-01
6.321611e-01
6.202558e-01
6.074964e-01
5.949339e-01
5.827757e-01
0.000000e+00
1.000000e+00
5.844246e-01
5.936290e-01
6.059102e-01
6.180726e-01
6.296215e-01
6.393597e-01
6.459803e-01
6.484179e-01
6.462286e-01
6.398439e-01
6.303240e-01
6.187985e-01
6.063618e-01
5.941585e-01
5.825441e-01
0.000000e+00
1.000000e+00
5.837701e-01
5.925495e-01
6.041415e-01
6.156425e-01
6.265647e-01
6.357754e-01
6.420368e-01
6.443432e-01
6.422578e-01
6.362172e-01
6.272350e-01
6.162833e-01
6.045208e-01
5.930397e-01
5.820348e-01
0.000000e+00
1.000000e+00
5.830372e-01
5.910901e-01
6.018350e-01
6.124815e-01
6.225938e-01
6.311195e-01
6.369102e-01
6.390380e-01
6.371037e-01
6.315127e-01
6.231782e-01
6.129791e-01
6.021200e-01
5.915605e-01
5.813026e-01
0.000000e+00
1.000000e+00
5.704127e-01
5.677014e-01
5.646763e-01
5.616009e-01
5.586868e-01
5.562419e-01
5.546000e-01
5.540274e-01
5.546280e-01
5.562970e-01
5.587571e-01
5.617700e-01
5.648548e-01
5.678621e-01
5.700080e-01
0.000000e+00
1.000000e+00
5.712584e-01
5.693457e-01
5.672616e-01
5.651411e-01
5.631328e-01
5.614491e-01
5.603197e-01
5.599277e-01
5.603423e-01
5.614919e-01
5.631832e-01
5.653407e-01
5.674675e-01
5.695300e-01
5.709649e-01
0.000000e+00
1.000000e+00
5.723060e-01
5.714169e-01
5.705112e-01
5.695898e-01
5.687172e-01
5.679861e-01
5.674955e-01
5.673246e-01
5.675047e-01
5.680044e-01
5.687313e-01
5.697978e-01
5.707156e-01
5.716205e-01
5.718363e-01
0.000000e+00
1.000000e+00
5.735539e-01
5.738941e-01
5.743941e-01
5.749057e-01
5.753914e-01
5.758009e-01
5.760778e-01
5.761760e-01
5.760771e-01
5.757969e-01
5.753739e-01
5.750229e-01
5.746333e-01
5.741290e-01
5.729924e-01
0.000000e+00
1.000000e+00
5.750176e-01
5.767167e-01
5.788244e-01
5.809719e-01
5.830086e-01
5.847203e-01
5.858732e-01
5.862804e-01
5.858699e-01
5.847139e-01
5.829836e-01
5.810882e-01
5.791699e-01
5.769860e-01
5.743804e-01
0.000000e+00
1.000000e+00
5.766320e-01
5.797712e-01
5.836319e-01
5.875532e-01
5.912728e-01
5.944003e-01
5.965088e-01
5.972573e-01
5.965148e-01
5.944148e-01
5.913291e-01
5.878347e-01
5.839911e-01
5.800466e-01
5.758297e-01
0.000000e+00
1.000000e+00
5.782962e-01
5.829104e-01
5.885847e-01
5.943331e-01
5.997853e-01
6.043691e-01
6.074613e-01
6.085639e-01
6.074884e-01
6.044395e-01
5.999832e-01
5.946908e-01
5.889418e-01
5.832081e-01
5.773392e-01
0.000000e+00
1.000000e+00
5.799177e-01
5.859532e-01
5.933989e-01
6.009231e-01
6.080600e-01
6.140619e-01
6.181148e-01
6.195694e-01
6.181790e-01
6.142177e-01
6.083879e-01
6.013150e-01
5.937615e-01
5.862748e-01
5.787380e-01
0.000000e+00
1.000000e+00
5.814174e-01
5.887050e-01
5.977702e-01
6.069067e-01
6.155734e-01
6.228651e-01
6.277968e-01
6.295813e-01
6.279179e-01
6.231395e-01
6.160165e-01
6.073318e-01
5.981623e-01
5.890482e-01
5.799589e-01
0.000000e+00
1.000000e+00
5.826992e-01
5.909861e-01
6.014188e-01
6.119010e-01
6.218456e-01
6.302184e-01
6.358927e-01
6.379661e-01
6.360880e-01
6.306183e-01
6.223821e-01
6.123558e-01
6.018853e-01
5.913609e-01
5.809706e-01
0.000000e+00
1.000000e+00
5.836799e-01
5.926625e-01
6.041295e-01
6.156123e-01
6.265096e-01
6.356926e-01
6.419289e-01
6.442266e-01
6.421896e-01
6.361828e-01
6.271107e-01
6.161455e-01
6.046437e-01
5.930915e-01
5.817176e-01
0.000000e+00
1.000000e+00
5.842933e-01
5.936646e-01
6.057803e-01
6.178750e-01
6.293580e-01
6.390421e-01
6.456266e-01
6.480612e-01
6.459186e-01
6.395673e-01
6.300013e-01
6.185141e-01
6.062921e-01
5.941667e-01
5.821948e-01
0.000000e+00
1.000000e+00
5.845131e-01
5.939930e-01
6.063507e-01
6.186615e-01
6.303538e-01
6.402169e-01
6.469236e-01
6.494001e-01
6.472096e-01
6.407332e-01
6.310251e-01
6.193562e-01
6.068472e-01
5.945409e-01
5.824856e-01
0.000000e+00
1.000000e+00
5.843441e-01
5.937077e-01
6.059110e-01
6.180644e-01
6.296073e-01
6.393419e-01
6.459606e-01
6.484004e-01
6.462188e-01
6.398291e-01
6.302997e-01
6.187965e-01
6.063851e-01
5.942211e-01
5.825136e-01
0.000000e+00
1.000000e+00
5.838692e-01
5.928929e-01
6.046005e-01
6.162659e-01
6.273423e-01
6.366827e-01
6.430341e-01
6.453776e-01
6.432683e-01
6.371348e-01
6.280296e-01
6.169482e-01
6.049868e-01
5.933259e-01
5.821732e-01
0.000000e+00
1.000000e+00
5.831797e-01
5.916184e-01
6.025783e-01
6.134953e-01
6.238609e-01
6.326000e-01
6.385387e-01