<?xml version="1.0"?>
<VTKFile type="StructuredGrid" version="0.1">
  <StructuredGrid WholeExtent="0 16 0 16 0 16">
    <Piece Extent="0 16 0 16 0 16">
      <PointData Scalars="temperature" Vectors="velocity">
        <DataArray type="Float32" Name="temperature" format="ascii">
1.000000e+00
5.731754e-01
5.730284e-01
5.730481e-01
5.730624e-01
5.730759e-01
5.730872e-01
5.730948e-01
5.730977e-01
5.730954e-01
5.730882e-01
5.730770e-01
5.730648e-01
5.730501e-01
5.730866e-01
5.724334e-01
0.000000e+00
1.000000e+00
5.729705e-01
5.728177e-01
5.727171e-01
5.726077e-01
5.725039e-01
5.724166e-01
5.723578e-01
5.723371e-01
5.723577e-01
5.724161e-01
5.725037e-01
5.726098e-01
5.727132e-01
5.731200e-01
5.711921e-01
0.000000e+00
1.000000e+00
5.727602e-01
5.723614e-01
5.719988e-01
5.716238e-01
5.712682e-01
5.709694e-01
5.707681e-01
5.706966e-01
5.707674e-01
5.709687e-01
5.712715e-01
5.716362e-01
5.719995e-01
5.726840e-01
5.718851e-01
0.000000e+00
1.000000e+00
5.724047e-01
5.716405e-01
5.708653e-01
5.700722e-01
5.693204e-01
5.686889e-01
5.682639e-01
5.681141e-01
5.682667e-01
5.686971e-01
5.693415e-01
5.701108e-01
5.708885e-01
5.718117e-01
5.719987e-01
0.000000e+00
1.000000e+00
5.719128e-01
5.706540e-01
5.693161e-01
5.679518e-01
5.666586e-01
5.655728e-01
5.648428e-01
5.645872e-01
5.648537e-01
5.655977e-01
5.667066e-01
5.680224e-01
5.693730e-01
5.707938e-01
5.715120e-01
0.000000e+00
1.000000e+00
5.712567e-01
5.694193e-01
5.673774e-01
5.652971e-01
5.633257e-01
5.616714e-01
5.605606e-01
5.601745e-01
5.605845e-01
5.617187e-01
5.634055e-01
5.654039e-01
5.674671e-01
5.695562e-01
5.709335e-01
0.000000e+00
1.000000e+00
5.705105e-01
5.679703e-01
5.651060e-01
5.621870e-01
5.594213e-01
5.571019e-01
5.555466e-01
5.550085e-01
5.555867e-01
5.571769e-01
5.595368e-01
5.623342e-01
5.652303e-01
5.681200e-01
5.702334e-01
0.000000e+00
1.000000e+00
5.696894e-01
5.663662e-01
5.625931e-01
5.587463e-01
5.551021e-01
5.520472e-01
5.500008e-01
5.492955e-01
5.500597e-01
5.521552e-01
5.552540e-01
5.589379e-01
5.627507e-01
5.665296e-01
5.694670e-01
0.000000e+00
1.000000e+00
5.688551e-01
5.646833e-01
5.599559e-01
5.551353e-01
5.505693e-01
5.467431e-01
5.441817e-01
5.433016e-01
5.442599e-01
5.468873e-01
5.507571e-01
5.553716e-01
5.601442e-01
5.648631e-01
5.686578e-01
0.000000e+00
1.000000e+00
5.680258e-01
5.630067e-01
5.573268e-01
5.515354e-01
5.460510e-01
5.414564e-01
5.383823e-01
5.373276e-01
5.384782e-01
5.416365e-01
5.462699e-01
5.518162e-01
5.575407e-01
5.631964e-01
5.678578e-01
0.000000e+00
1.000000e+00
5.672290e-01
5.614194e-01
5.548390e-01
5.481299e-01
5.417775e-01
5.364568e-01
5.328977e-01
5.316768e-01
5.330086e-01
5.366672e-01
5.420233e-01
5.484507e-01
5.550732e-01
5.616197e-01
5.670977e-01
0.000000e+00
1.000000e+00
5.665203e-01
5.599984e-01
5.526136e-01
5.450847e-01
5.379568e-01
5.319871e-01
5.279938e-01
5.266235e-01
5.281164e-01
5.322181e-01
5.382275e-01
5.454387e-01
5.528616e-01
5.602031e-01
5.664236e-01
0.000000e+00
1.000000e+00
5.659287e-01
5.588065e-01
5.507474e-01
5.425318e-01
5.347542e-01
5.282405e-01
5.238824e-01
5.223857e-01
5.240127e-01
5.284826e-01
5.350459e-01
5.429109e-01
5.510055e-01
5.590192e-01
5.658538e-01
0.000000e+00
1.000000e+00
5.654739e-01
5.578856e-01
5.493052e-01
5.405593e-01
5.322800e-01
5.253455e-01
5.207047e-01
5.191091e-01
5.208382e-01
5.255910e-01
5.325841e-01
5.409523e-01
5.495713e-01
5.581025e-01
5.654134e-01
0.000000e+00
1.000000e+00
5.651685e-01
5.572566e-01
5.483174e-01
5.392086e-01
5.305859e-01
5.233630e-01
5.185275e-01
5.168627e-01
5.186602e-01
5.236056e-01
5.308955e-01
5.396005e-01
5.485914e-01
5.574795e-01
5.651122e-01
0.000000e+00
1.000000e+00
5.649865e-01
5.569164e-01
5.477822e-01
5.384772e-01
5.296687e-01
5.222891e-01
5.173473e-01
5.156433e-01
5.174760e-01
5.225243e-01
5.299736e-01
5.388566e-01
5.480604e-01
5.571462e-01
5.649660e-01
0.000000e+00
1.000000e+00
5.648875e-01
5.568274e-01
5.476621e-01
5.383165e-01
5.294713e-01
5.220627e-01
5.171025e-01
5.153932e-01
5.172347e-01
5.223053e-01
5.297813e-01
5.387143e-01
5.479640e-01
5.571160e-01
5.649184e-01
0.000000e+00
1.000000e+00
5.732173e-01
5.732371e-01
5.733809e-01
5.735162e-01
5.736445e-01
5.737522e-01
5.738246e-01
5.738499e-01
5.738236e-01
5.737507e-01
5.736433e-01
5.735207e-01
5.733884e-01
5.732427e-01
5.724961e-01
0.000000e+00
1.000000e+00
5.729827e-01
5.728024e-01
5.726889e-01
5.725692e-01
5.724556e-01
5.723601e-01
5.722955e-01
5.722725e-01
5.722950e-01
5.723596e-01
5.724574e-01
5.725850e-01
5.726963e-01
5.730025e-01
5.711532e-01
0.000000e+00
1.000000e+00
5.725619e-01
5.720925e-01
5.715712e-01
5.710380e-01
5.705323e-01
5.701072e-01
5.698208e-01
5.697193e-01
5.698213e-01
5.701102e-01
5.705431e-01
5.710751e-01
5.715964e-01
5.723286e-01
5.714735e-01
0.000000e+00
1.000000e+00
5.720894e-01
5.710874e-01
5.699993e-01
5.688861e-01
5.678307e-01
5.669443e-01
5.663480e-01
5.661388e-01
5.663556e-01
5.669619e-01
5.678663e-01
5.689440e-01
5.700528e-01
5.712624e-01
5.716059e-01
0.000000e+00
1.000000e+00
5.714944e-01
5.698009e-01
5.679835e-01
5.661271e-01
5.643677e-01
5.628910e-01
5.618991e-01
5.615538e-01
5.619193e-01
5.629303e-01
5.644353e-01
5.662111e-01
5.680661e-01
5.699517e-01
5.709784e-01
0.000000e+00
1.000000e+00
5.707155e-01
5.682621e-01
5.655692e-01
5.628214e-01
5.602177e-01
5.580337e-01
5.565686e-01
5.560611e-01
5.566044e-01
5.580971e-01
5.603190e-01
5.629413e-01
5.656803e-01
5.684177e-01
5.702955e-01
0.000000e+00
1.000000e+00
5.698171e-01
5.665151e-01
5.628341e-01
5.590765e-01
5.555171e-01
5.525333e-01
5.505340e-01
5.498439e-01
5.505878e-01
5.526248e-01
5.556540e-01
5.592417e-01
5.629798e-01
5.666881e-01
5.694716e-01
0.000000e+00
1.000000e+00
5.688751e-01
5.646359e-01
5.598952e-01
5.550526e-01
5.504668e-01
5.466247e-01
5.440524e-01
5.431673e-01
5.441275e-01
5.467512e-01
5.506396e-01
5.552697e-01
5.600749e-01
5.648307e-01
5.685882e-01
0.000000e+00
1.000000e+00
5.679333e-01
5.627214e-01
5.568980e-01
5.509482e-01
5.453157e-01
5.405986e-01
5.374428e-01
5.363592e-01
5.375396e-01
5.407668e-01
5.455208e-01
5.512196e-01
5.571085e-01
5.629356e-01
5.676793e-01
0.000000e+00
1.000000e+00
5.669979e-01
5.608693e-01
5.539979e-01
5.469775e-01
5.403332e-01
5.347705e-01
5.310507e-01
5.297744e-01
5.311664e-01
5.349811e-01
5.405669e-01
5.473021e-01
5.542360e-01
5.610984e-01
5.668034e-01
0.000000e+00
1.000000e+00
5.661431e-01
5.591756e-01
5.513475e-01
5.433498e-01
5.357818e-01
5.294469e-01
5.252108e-01
5.237575e-01
5.253421e-01
5.296909e-01
5.360426e-01
5.437227e-01
5.516070e-01
5.594217e-01
5.660031e-01
0.000000e+00
1.000000e+00
5.654243e-01
5.577264e-01
5.490780e-01
5.402439e-01
5.318854e-01
5.248887e-01
5.202095e-01
5.186036e-01
5.203519e-01
5.251538e-01
5.321724e-01
5.406560e-01
5.493540e-01
5.579861e-01
5.653187e-01
0.000000e+00
1.000000e+00
5.648627e-01
5.565835e-01
5.472850e-01
5.377907e-01
5.288074e-01
5.212870e-01
5.162565e-01
5.145285e-01
5.164050e-01
5.215619e-01
5.291149e-01
5.382293e-01
5.475710e-01
5.568516e-01
5.647834e-01
0.000000e+00
1.000000e+00
5.644691e-01
5.557804e-01
5.460223e-01
5.360636e-01
5.266399e-01
5.187497e-01
5.134703e-01
5.116547e-01
5.136203e-01
5.190260e-01
5.269616e-01
5.365109e-01
5.463145e-01
5.560589e-01
5.644153e-01
0.000000e+00
1.000000e+00
5.642345e-01
5.553245e-01
5.453024e-01
5.350796e-01
5.254049e-01
5.173027e-01
5.118794e-01
5.100120e-01
5.120271e-01
5.175737e-01
5.257362e-01
5.355123e-01
5.455935e-01
5.555848e-01
5.642127e-01
0.000000e+00
1.000000e+00
5.641400e-01
5.551982e-01
5.450998e-01
5.348048e-01
5.250604e-01
5.168986e-01
5.114338e-01
5.095503e-01
5.115784e-01
5.171633e-01
5.253920e-01
5.352162e-01
5.453859e-01
5.554710e-01
5.641627e-01
0.000000e+00
1.000000e+00
5.644031e-01
5.553469e-01
5.453709e-01
5.351800e-01
5.255341e-01
5.174535e-01
5.120412e-01
5.101729e-01
5.121772e-01
5.177046e-01
5.258467e-01
5.355972e-01
5.456960e-01
5.556669e-01
5.642284e-01
0.000000e+00
1.000000e+00
5.734985e-01
5.736835e-01
5.740841e-01
5.744802e-01
5.748558e-01
5.751712e-01
5.753833e-01
5.754575e-01
5.753803e-01
5.751659e-01
5.748511e-01
5.744879e-01
5.741178e-01
5.737140e-01
5.732310e-01
0.000000e+00
1.000000e+00
5.731110e-01
5.730207e-01
5.730293e-01
5.730356e-01
5.730414e-01
5.730460e-01
5.730487e-01
5.730486e-01
5.730455e-01
5.730409e-01
5.730399e-01
5.730603e-01
5.730484e-01
5.730994e-01
5.722567e-01
0.000000e+00
1.000000e+00
5.725514e-01
5.720517e-01
5.714996e-01
5.709409e-01
5.704108e-01
5.699651e-01
5.696648e-01
5.695582e-01
5.696653e-01
5.699688e-01
5.704285e-01
5.710029e-01
5.715393e-01
5.721625e-01
5.717618e-01
0.000000e+00
1.000000e+00
5.718604e-01
5.707594e-01
5.694761e-01
5.681690e-01
5.669295e-01
5.658883e-01
5.651879e-01
5.649427e-01
5.651992e-01
5.659118e-01
5.669813e-01
5.682465e-01
5.695484e-01
5.708736e-01
5.714357e-01
0.000000e+00
1.000000e+00
5.711236e-01
5.691570e-01
5.669757e-01
5.647459e-01
5.626328e-01
5.608599e-01
5.596701e-01
5.592576e-01
5.596991e-01
5.609108e-01
5.627237e-01
5.648466e-01
5.670717e-01
5.692912e-01
5.706312e-01
0.000000e+00
1.000000e+00
5.702497e-01
5.672976e-01
5.640651e-01
5.607619e-01
5.576326e-01
5.550092e-01
5.532509e-01
5.526440e-01
5.532993e-01
5.550869e-01
5.577610e-01
5.608994e-01
5.641899e-01
5.674564e-01
5.697985e-01
0.000000e+00
1.000000e+00
5.692254e-01
5.652435e-01
5.608496e-01
5.563600e-01
5.521084e-01
5.485461e-01
5.461607e-01
5.453391e-01
5.462286e-01
5.486520e-01
5.522735e-01
5.565440e-01
5.610128e-01
5.654251e-01
5.688514e-01
0.000000e+00
1.000000e+00
5.681840e-01
5.630865e-01
5.574754e-01
5.517404e-01
5.463114e-01
5.417642e-01
5.387208e-01
5.376736e-01
5.388087e-01
5.419027e-01
5.465104e-01
5.519786e-01
5.576700e-01
5.632897e-01
5.678526e-01
0.000000e+00
1.000000e+00
5.671139e-01
5.609369e-01
5.541139e-01
5.471388e-01
5.405388e-01
5.350129e-01
5.313162e-01
5.300452e-01
5.314253e-01
5.351933e-01
5.407687e-01
5.474394e-01
5.543365e-01
5.611553e-01
5.668458e-01
0.000000e+00
1.000000e+00
5.661188e-01
5.589098e-01
5.509493e-01
5.428084e-01
5.351077e-01
5.286621e-01
5.243505e-01
5.228686e-01
5.244782e-01
5.288858e-01
5.353645e-01
5.431706e-01
5.512045e-01
5.591495e-01
5.658914e-01
0.000000e+00
1.000000e+00
5.652310e-01
5.571187e-01
5.481533e-01
5.389830e-01
5.303107e-01
5.230522e-01
5.181967e-01
5.165279e-01
5.183393e-01
5.233117e-01
5.305928e-01
5.394017e-01
5.484407e-01
5.573823e-01
5.650455e-01
0.000000e+00
1.000000e+00
5.644976e-01
5.556560e-01
5.458658e-01
5.358534e-01
5.263851e-01
5.184602e-01
5.131581e-01
5.113350e-01
5.133111e-01
5.187436e-01
5.266885e-01
5.363145e-01
5.461845e-01
5.559440e-01
5.643519e-01
0.000000e+00
1.000000e+00
5.639495e-01
5.545817e-01
5.441792e-01
5.335452e-01
5.234882e-01
5.150695e-01
5.094359e-01
5.074975e-01
5.095943e-01
5.153647e-01
5.238097e-01
5.340266e-01
5.445213e-01
5.549028e-01
5.638441e-01
0.000000e+00
1.000000e+00
5.636074e-01
5.539204e-01
5.431328e-01
5.321122e-01
5.216878e-01
5.129600e-01
5.071183e-01
5.051065e-01
5.072777e-01
5.132574e-01
5.220278e-01
5.325885e-01
5.434796e-01
5.543007e-01
5.635515e-01
0.000000e+00
1.000000e+00
5.634562e-01
5.536612e-01
5.427155e-01
5.315406e-01
5.209677e-01
5.121140e-01
5.061868e-01
5.041445e-01
5.063452e-01
5.124079e-01
5.213254e-01
5.319823e-01
5.430447e-01
5.540423e-01
5.634625e-01
0.000000e+00
1.000000e+00
5.634741e-01
5.537725e-01
5.428784e-01
5.317642e-01
5.212464e-01
5.124374e-01
5.065395e-01
5.045067e-01
5.066958e-01
5.127250e-01
5.216054e-01
5.321817e-01
5.432231e-01
5.541072e-01
5.634949e-01
0.000000e+00
1.000000e+00
5.638882e-01
5.541844e-01
5.435509e-01
5.326888e-01
5.224087e-01
5.137973e-01
5.080298e-01
5.060396e-01
5.081766e-01
5.140692e-01
5.227505e-01
5.331163e-01
5.438974e-01
5.544451e-01
5.636118e-01
0.000000e+00
1.000000e+00
5.738701e-01
5.743865e-01
5.751916e-01
5.759972e-01
5.767611e-01
5.774030e-01
5.778350e-01
5.779869e-01
5.778312e-01
5.773957e-01
5.767550e-01
5.760186e-01
5.752697e-01
5.744651e-01
5.734415e-01
0.000000e+00
1.000000e+00
5.733528e-01
5.734958e-01
5.737772e-01
5.740598e-01
5.743276e-01
5.745524e-01
5.747032e-01
5.747549e-01
5.746977e-01
5.745423e-01
5.743222e-01
5.740918e-01
5.738292e-01
5.735759e-01
5.727858e-01
0.000000e+00
1.000000e+00
5.727123e-01
5.722679e-01
5.718393e-01
5.714064e-01
5.709957e-01
5.706503e-01
5.704173e-01
5.703340e-01
5.704153e-01
5.706490e-01
5.710144e-01
5.714900e-01
5.718921e-01
5.723529e-01
5.721883e-01
0.000000e+00
1.000000e+00
5.718558e-01
5.706936e-01
5.693640e-01
5.680160e-01
5.667376e-01
5.656639e-01
5.649419e-01
5.646898e-01
5.649542e-01
5.656895e-01
5.668005e-01
5.681278e-01
5.694575e-01
5.707698e-01
5.715875e-01
0.000000e+00
1.000000e+00
5.708798e-01
5.687845e-01
5.663813e-01
5.639306e-01
5.616077e-01
5.596589e-01
5.583517e-01
5.578999e-01
5.583867e-01
5.597206e-01
5.617131e-01
5.640639e-01
5.665098e-01
5.688862e-01
5.705839e-01
0.000000e+00
1.000000e+00
5.698386e-01
5.665978e-01
5.629731e-01
5.592652e-01
5.557533e-01
5.528106e-01
5.508407e-01
5.501638e-01
5.509015e-01
5.529061e-01
5.559014e-01
5.594340e-01
5.631270e-01
5.667397e-01
5.695047e-01
0.000000e+00
1.000000e+00
5.687622e-01
5.642342e-01
5.592782e-01
5.542083e-01
5.494091e-01
5.453902e-01
5.427014e-01
5.417780e-01
5.427834e-01
5.455116e-01
5.495966e-01
5.544219e-01
5.594563e-01
5.644118e-01
5.683622e-01
0.000000e+00
1.000000e+00
5.676061e-01
5.618038e-01
5.554730e-01
5.490008e-01
5.428769e-01
5.377497e-01
5.343193e-01
5.331395e-01
5.344185e-01
5.378969e-01
5.431012e-01
5.492703e-01
5.556717e-01
5.620077e-01
5.672323e-01
0.000000e+00
1.000000e+00
5.664630e-01
5.594305e-01
5.517620e-01
5.439233e-01
5.365078e-01
5.302996e-01
5.261451e-01
5.247154e-01
5.262624e-01
5.304827e-01
5.367655e-01
5.442572e-01
5.519861e-01
5.596584e-01
5.661213e-01
0.000000e+00
1.000000e+00
5.654018e-01
5.572455e-01
5.483519e-01
5.392606e-01
5.306626e-01
5.234642e-01
5.186464e-01
5.169879e-01
5.187805e-01
5.236875e-01
5.309487e-01
5.396589e-01
5.486183e-01
5.575071e-01
5.651002e-01
0.000000e+00
1.000000e+00
5.645390e-01
5.553753e-01
5.454349e-01
5.352745e-01
5.256661e-01
5.176209e-01
5.122351e-01
5.103799e-01
5.123820e-01
5.178786e-01
5.259731e-01
5.357247e-01
5.457481e-01
5.556664e-01
5.642198e-01
0.000000e+00
1.000000e+00
5.638036e-01
5.539132e-01
5.431574e-01
5.321612e-01
5.217621e-01
5.130537e-01
5.072230e-01
5.052137e-01
5.073793e-01
5.133382e-01
5.220857e-01
5.326402e-01
5.435205e-01
5.542332e-01
5.635280e-01
0.000000e+00
1.000000e+00
5.632580e-01
5.529203e-01
5.416070e-01
5.300379e-01
5.190959e-01
5.099324e-01
5.037966e-01
5.016811e-01
5.039587e-01
5.102344e-01
5.194386e-01
5.305079e-01
5.420127e-01
5.532950e-01
5.630429e-01
0.000000e+00
1.000000e+00
5.629403e-01
5.524155e-01
5.408039e-01
5.289337e-01
5.177056e-01
5.083023e-01
5.020059e-01
4.998347e-01
5.021715e-01
5.086126e-01
5.180747e-01
5.293675e-01
5.412020e-01
5.528587e-01
5.627878e-01
0.000000e+00
1.000000e+00
5.628720e-01
5.523663e-01
5.407105e-01
5.288011e-01
5.175345e-01
5.080991e-01
5.017815e-01
4.996034e-01
5.019481e-01
5.084100e-01
5.179253e-01
5.291978e-01
5.410804e-01
5.528071e-01
5.627283e-01
0.000000e+00
1.000000e+00
5.630339e-01
5.527220e-01
5.412514e-01
5.295390e-01
5.184574e-01
5.091768e-01
5.029632e-01
5.008215e-01
5.031284e-01
5.094824e-01
5.188427e-01
5.299483e-01
5.416421e-01
5.530554e-01
5.629079e-01
0.000000e+00
1.000000e+00
5.635515e-01
5.533992e-01
5.423279e-01
5.310159e-01
5.203122e-01
5.113470e-01
5.053436e-01
5.032736e-01
5.055015e-01
5.116387e-01
5.206851e-01
5.314522e-01
5.426962e-01
5.536418e-01
5.632607e-01
0.000000e+00
1.000000e+00
5.743627e-01
5.753488e-01
5.767036e-01
5.780678e-01
5.793618e-01
5.804494e-01
5.811822e-01
5.814411e-01
5.811798e-01
5.804444e-01
5.793646e-01
5.781308e-01
5.768453e-01
5.754648e-01
5.739939e-01
0.000000e+00
1.000000e+00
5.737296e-01
5.742425e-01
5.749493e-01
5.756654e-01
5.763446e-01
5.769152e-01
5.772991e-01
5.774334e-01
5.772930e-01
5.769032e-01
5.763365e-01
5.757096e-01
5.750632e-01
5.743531e-01
5.733291e-01
0.000000e+00
1.000000e+00
5.729566e-01
5.727664e-01
5.726217e-01
5.724780e-01
5.723415e-01
5.722265e-01
5.721486e-01
5.721196e-01
5.721445e-01
5.722202e-01
5.723596e-01
5.725716e-01
5.727101e-01
5.728729e-01
5.726638e-01
0.000000e+00
1.000000e+00
5.719926e-01
5.709193e-01
5.697159e-01
5.684987e-01
5.673446e-01
5.663755e-01
5.657236e-01
5.654957e-01
5.657332e-01
5.663980e-01
5.674186e-01
5.686395e-01
5.698301e-01
5.710042e-01
5.718976e-01
0.000000e+00
1.000000e+00
5.708205e-01
5.687235e-01
5.662720e-01
5.637810e-01
5.614195e-01
5.594382e-01
5.581100e-01
5.576527e-01
5.581483e-01
5.595078e-01
5.615438e-01
5.639401e-01
5.664301e-01
5.688151e-01
5.708160e-01
0.000000e+00
1.000000e+00
5.695939e-01
5.662314e-01
5.623924e-01
5.584682e-01
5.547510e-01
5.516370e-01
5.495543e-01
5.488415e-01
5.496231e-01
5.517468e-01
5.549228e-01
5.586628e-01
5.625699e-01
5.663526e-01
5.695548e-01
0.000000e+00
1.000000e+00
5.683824e-01
5.635693e-01
5.582412e-01
5.527862e-01
5.476242e-01
5.433043e-01
5.404176e-01
5.394302e-01
5.405113e-01
5.434415e-01
5.478411e-01
5.530364e-01
5.584408e-01
5.637300e-01
5.681905e-01
0.000000e+00
1.000000e+00
5.671689e-01
5.608766e-01
5.540302e-01
5.470266e-01
5.404037e-01
5.348618e-01
5.311562e-01
5.298833e-01
5.312635e-01
5.350155e-01
5.406581e-01
5.473429e-01
5.542526e-01
5.610716e-01
5.668491e-01
0.000000e+00
1.000000e+00
5.660048e-01
5.583010e-01
5.499982e-01
5.415156e-01
5.334937e-01
5.267778e-01
5.222827e-01
5.207335e-01
5.224006e-01
5.269562e-01
5.337773e-01
5.418990e-01
5.502467e-01
5.585294e-01
5.655763e-01
0.000000e+00
1.000000e+00
5.649468e-01
5.559918e-01
5.463802e-01
5.365706e-01
5.272910e-01
5.195195e-01
5.143161e-01
5.125218e-01
5.144500e-01
5.197366e-01
5.275991e-01
5.370157e-01
5.466620e-01
5.562444e-01
5.644713e-01
0.000000e+00
1.000000e+00
5.640661e-01
5.540757e-01
5.433782e-01
5.324711e-01
5.221501e-01
5.135041e-01
5.077136e-01
5.057157e-01
5.078604e-01
5.137548e-01
5.224736e-01
5.329602e-01
5.437067e-01
5.543404e-01
5.635610e-01
0.000000e+00
1.000000e+00
5.634698e-01
5.526476e-01
5.411436e-01
5.294176e-01
5.183195e-01
5.090207e-01
5.027918e-01
5.006413e-01
5.029475e-01
5.092988e-01
5.186560e-01
5.299139e-01
5.415364e-01
5.529262e-01
5.628612e-01
0.000000e+00
1.000000e+00
5.628693e-01
5.517358e-01
5.397506e-01
5.275083e-01
5.159219e-01
5.062144e-01
4.997118e-01
4.974669e-01
4.998758e-01
5.065158e-01
5.162846e-01
5.279651e-01
5.402028e-01
5.520809e-01
5.624007e-01
0.000000e+00
1.000000e+00
5.625475e-01
5.513792e-01
5.392005e-01
5.267476e-01
5.149645e-01
5.050936e-01
4.984824e-01
4.962012e-01
4.986523e-01
5.054111e-01
5.153612e-01
5.271467e-01
5.396280e-01
5.517872e-01
5.622066e-01
0.000000e+00
1.000000e+00
5.625665e-01
5.515337e-01
5.394309e-01
5.270567e-01
5.153501e-01
5.055448e-01
4.989786e-01
4.967141e-01
4.991507e-01
5.058688e-01
5.157592e-01
5.274487e-01
5.398408e-01
5.519263e-01
5.623115e-01
0.000000e+00
1.000000e+00
5.628237e-01
5.521287e-01
5.403426e-01
5.282994e-01
5.169069e-01
5.073661e-01
5.009783e-01
4.987771e-01
5.011500e-01
5.076873e-01
5.172979e-01
5.287530e-01
5.407617e-01
5.524439e-01
5.626477e-01
0.000000e+00
1.000000e+00
5.634329e-01
5.530669e-01
5.418106e-01
5.303088e-01
5.194273e-01
5.103147e-01
5.042139e-01
5.021123e-01
5.043806e-01
5.106247e-01
5.198133e-01
5.307902e-01
5.421666e-01
5.533286e-01
5.630380e-01
0.000000e+00
1.000000e+00
5.750240e-01
5.765479e-01
5.785930e-01
5.806551e-01
5.826114e-01
5.842563e-01
5.853655e-01
5.857595e-01
5.853681e-01
5.842633e-01
5.826528e-01
5.807914e-01
5.787896e-01
5.767060e-01
5.745561e-01
0.000000e+00
1.000000e+00
5.742830e-01
5.752499e-01
5.765327e-01
5.778340e-01
5.790687e-01
5.801067e-01
5.808061e-01
5.810528e-01
5.808020e-01
5.800975e-01
5.790706e-01
5.779199e-01
5.767243e-01
5.754078e-01
5.737878e-01
0.000000e+00
1.000000e+00
5.733638e-01
5.735509e-01
5.738506e-01
5.741610e-01
5.744557e-01
5.747036e-01
5.748707e-01
5.749286e-01
5.748656e-01
5.746934e-01
5.744693e-01
5.742614e-01
5.740054e-01
5.736998e-01
5.730525e-01
0.000000e+00
1.000000e+00
5.722778e-01
5.714545e-01
5.705538e-01
5.696467e-01
5.687869e-01
5.680654e-01
5.675799e-01
5.674094e-01
5.675856e-01
5.680820e-01
5.688719e-01
5.698150e-01
5.706960e-01
5.715750e-01
5.721257e-01
0.000000e+00
1.000000e+00
5.709582e-01
5.689972e-01
5.666938e-01
5.643601e-01
5.621480e-01
5.602924e-01
5.590491e-01
5.586202e-01
5.590839e-01
5.603617e-01
5.622970e-01
5.645413e-01
5.668862e-01
5.691148e-01
5.709787e-01
0.000000e+00
1.000000e+00
5.695620e-01
5.662420e-01
5.623927e-01
5.584682e-01
5.547498e-01
5.516346e-01
5.495524e-01
5.488413e-01
5.496244e-01
5.517510e-01
5.549525e-01
5.586794e-01
5.625996e-01
5.663696e-01
5.696533e-01
0.000000e+00
1.000000e+00
5.681920e-01
5.633175e-01
5.578389e-01
5.522322e-01
5.469267e-01
5.424882e-01
5.395254e-01
5.385151e-01
5.396253e-01
5.426352e-01
5.471790e-01
5.525015e-01
5.580581e-01
5.634748e-01
5.681969e-01
0.000000e+00
1.000000e+00
5.668534e-01
5.603895e-01
5.532723e-01
5.459866e-01
5.391001e-01
5.333413e-01
5.294938e-01
5.281745e-01
5.296058e-01
5.335028e-01
5.393907e-01
5.463335e-01
5.535073e-01
5.605778e-01
5.667271e-01
0.000000e+00
1.000000e+00
5.656771e-01
5.576343e-01
5.489641e-01
5.401056e-01
5.317322e-01
5.247234e-01
5.200321e-01
5.184136e-01
5.201457e-01
5.248996e-01
5.320448e-01
5.405309e-01
5.492255e-01
5.578605e-01
5.653039e-01
0.000000e+00
1.000000e+00
5.647140e-01
5.552375e-01
5.451850e-01
5.349455e-01
5.252562e-01
5.171388e-01
5.117004e-01
5.098198e-01
5.118253e-01
5.173457e-01
5.255813e-01
5.354298e-01
5.454766e-01
5.554698e-01
5.641083e-01
0.000000e+00
1.000000e+00
5.641179e-01
5.533524e-01
5.421459e-01
5.307850e-01
5.200299e-01
5.110193e-01
5.049827e-01
5.028958e-01
5.051260e-01
5.112647e-01
5.203699e-01
5.313087e-01
5.424835e-01
5.535251e-01
5.631952e-01
0.000000e+00
1.000000e+00
5.638406e-01
5.520170e-01
5.399873e-01
5.278274e-01
5.163149e-01
5.066691e-01
5.002073e-01
4.979743e-01
5.003627e-01
5.069471e-01
5.166682e-01
5.283509e-01
5.403957e-01
5.521399e-01
5.625295e-01
0.000000e+00
1.000000e+00
5.629920e-01
5.511688e-01
5.387619e-01
5.261507e-01
5.142113e-01
5.042078e-01
4.975068e-01
4.951926e-01
4.976730e-01
5.045138e-01
5.145926e-01
5.266277e-01
5.392259e-01
5.513977e-01
5.621652e-01
0.000000e+00
1.000000e+00
5.624940e-01
5.509125e-01
5.384558e-01
5.257329e-01
5.136905e-01
5.036012e-01
4.968431e-01
4.945110e-01
4.970162e-01
5.039260e-01
5.140975e-01
5.261640e-01
5.389120e-01
5.512635e-01
5.620544e-01
0.000000e+00
1.000000e+00
5.625479e-01
5.512458e-01
5.389923e-01
5.264647e-01
5.146117e-01
5.046826e-01
4.980330e-01
4.957397e-01
4.982075e-01
5.050147e-01
5.150140e-01
5.269238e-01
5.394449e-01
5.515954e-01
5.622367e-01
0.000000e+00
1.000000e+00
5.628952e-01
5.520601e-01
5.402499e-01
5.281771e-01
5.167578e-01
5.071947e-01
5.007924e-01
4.985872e-01
5.009675e-01
5.075263e-01
5.171386e-01
5.286965e-01
5.406597e-01
5.523743e-01
5.626843e-01
0.000000e+00
1.000000e+00
5.634946e-01
5.532340e-01
5.420730e-01
5.306677e-01
5.198797e-01
5.108470e-01
5.048015e-01
5.027215e-01
5.049737e-01
5.111711e-01
5.202650e-01
5.311957e-01
5.423929e-01
5.535407e-01
5.629567e-01
0.000000e+00
1.000000e+00
5.758286e-01
5.779404e-01
5.807996e-01
5.836773e-01
5.864075e-01
5.887039e-01
5.902538e-01
5.908070e-01
5.902668e-01
5.887390e-01
5.865194e-01
5.838824e-01
5.810420e-01
5.781391e-01
5.752627e-01
0.000000e+00
1.000000e+00
5.750084e-01
5.764790e-01
5.784769e-01
5.804971e-01
5.824142e-01
5.840267e-01
5.851144e-01
5.855008e-01
5.851168e-01
5.840304e-01
5.824612e-01
5.806678e-01
5.787396e-01
5.766854e-01
5.743940e-01
0.000000e+00
1.000000e+00
5.739664e-01
5.745947e-01
5.754935e-01
5.764116e-01
5.772830e-01
5.780161e-01
5.785102e-01
5.786843e-01
5.785060e-01
5.780052e-01
5.772955e-01
5.765337e-01
5.757381e-01
5.747931e-01
5.736189e-01
0.000000e+00
1.000000e+00
5.727155e-01
5.722887e-01
5.718613e-01
5.714373e-01
5.710362e-01
5.707007e-01
5.704762e-01
5.703984e-01
5.704807e-01
5.707114e-01
5.711206e-01
5.716182e-01
5.720492e-01
5.724497e-01
5.725299e-01
0.000000e+00
1.000000e+00
5.713000e-01
5.696087e-01
5.676524e-01
5.656741e-01
5.637994e-01
5.622272e-01
5.611742e-01
5.608107e-01
5.612038e-01
5.622912e-01
5.639720e-01
5.658773e-01
5.678788e-01
5.697632e-01
5.711998e-01
0.000000e+00
1.000000e+00
5.697602e-01
5.666397e-01
5.630022e-01
5.593043e-01
5.558007e-01
5.528652e-01
5.509041e-01
5.502343e-01
5.509735e-01
5.529823e-01
5.560284e-01
5.595287e-01
5.632489e-01
5.667890e-01
5.697795e-01
0.000000e+00
1.000000e+00
5.682420e-01
5.635100e-01
5.581239e-01
5.526215e-01
5.474131e-01
5.430556e-01
5.401487e-01
5.391587e-01
5.402505e-01
5.432080e-01
5.476919e-01
5.528949e-01
5.583674e-01
5.636732e-01
5.682792e-01
0.000000e+00
1.000000e+00
5.667850e-01
5.603999e-01
5.532805e-01
5.459938e-01
5.391064e-01
5.333492e-01
5.295057e-01
5.281885e-01
5.296188e-01
5.335181e-01
5.394281e-01
5.463429e-01
5.535267e-01
5.605837e-01
5.667579e-01
0.000000e+00
1.000000e+00
5.654888e-01
5.575003e-01
5.487649e-01
5.398315e-01
5.313906e-01
5.243280e-01
5.196021e-01
5.179705e-01
5.197118e-01
5.245086e-01
5.317374e-01
5.402637e-01
5.490312e-01
5.577277e-01
5.652457e-01
0.000000e+00
1.000000e+00
5.645307e-01
5.550282e-01
5.448747e-01
5.345274e-01
5.247362e-01
5.165326e-01
5.110337e-01
5.091275e-01
5.111491e-01
5.167359e-01
5.250887e-01
5.350171e-01
5.451631e-01
5.552669e-01
5.639715e-01
0.000000e+00
1.000000e+00
5.644576e-01
5.532127e-01
5.418426e-01
5.303668e-01
5.195019e-01
5.103964e-01
5.042940e-01
5.021816e-01
5.044335e-01
5.106407e-01
5.198654e-01
5.308882e-01
5.421499e-01
5.533158e-01
5.630728e-01
0.000000e+00
1.000000e+00
5.648564e-01
5.519866e-01
5.397726e-01
5.275253e-01
5.159339e-01
5.062218e-01
4.997154e-01
4.974677e-01
4.998737e-01
5.065074e-01
5.163197e-01
5.280589e-01
5.401284e-01
5.519872e-01
5.624546e-01
0.000000e+00
1.000000e+00
5.637993e-01
5.512419e-01
5.387244e-01
5.260929e-01
5.141357e-01
5.041183e-01
4.974082e-01
4.950912e-01
4.975755e-01
5.044296e-01
5.145394e-01
5.265841e-01
5.391324e-01
5.513496e-01
5.621586e-01
0.000000e+00
1.000000e+00
5.628221e-01
5.510767e-01
5.386527e-01
5.260055e-01
5.140324e-01
5.040004e-01
4.972805e-01
4.949611e-01
4.974518e-01
5.043255e-01
5.144380e-01
5.264779e-01
5.391001e-01
5.513532e-01
5.620578e-01
0.000000e+00
1.000000e+00
5.628424e-01
5.515554e-01
5.394661e-01
5.271176e-01
5.154338e-01
5.056463e-01
4.990916e-01
4.968313e-01
4.992647e-01
5.059791e-01
5.158239e-01
5.276388e-01
5.399119e-01
5.518595e-01
5.623365e-01
0.000000e+00
1.000000e+00
5.631451e-01
5.525506e-01
5.410236e-01
5.292375e-01
5.180906e-01
5.087570e-01
5.025094e-01
5.003591e-01
5.026846e-01
5.090918e-01
5.184650e-01
5.297854e-01
5.414117e-01
5.528909e-01
5.628782e-01
0.000000e+00
1.000000e+00
5.637406e-01
5.539201e-01
5.431470e-01
5.321352e-01
5.217209e-01
5.130031e-01
5.071706e-01
5.051672e-01
5.073452e-01
5.133339e-01
5.221046e-01
5.326737e-01
5.434576e-01
5.542768e-01
5.630237e-01
0.000000e+00
1.000000e+00
5.766893e-01
5.794729e-01
5.832341e-01
5.870111e-01
5.905954e-01
5.936108e-01
5.956475e-01
5.963777e-01
5.956763e-01
5.936903e-01
5.907875e-01
5.872659e-01
5.835129e-01
5.797226e-01
5.759949e-01
0.000000e+00
1.000000e+00
5.757944e-01
5.778807e-01
5.806980e-01
5.835388e-01
5.862351e-01
5.885040e-01
5.900360e-01
5.905833e-01
5.900486e-01
5.885368e-01
5.863656e-01
5.837974e-01
5.810124e-01
5.781339e-01
5.750722e-01
0.000000e+00
1.000000e+00
5.746546e-01
5.758509e-01
5.774753e-01
5.791263e-01
5.806934e-01
5.820119e-01
5.829014e-01
5.832170e-01
5.829016e-01
5.820076e-01
5.807383e-01
5.793201e-01
5.778140e-01
5.761069e-01
5.742086e-01
0.000000e+00
1.000000e+00
5.732898e-01
5.733832e-01
5.735810e-01
5.737932e-01
5.739959e-01
5.741685e-01
5.742865e-01
5.743293e-01
5.742883e-01
5.741712e-01
5.740657e-01
5.739685e-01
5.738449e-01
5.735952e-01
5.730945e-01
0.000000e+00
1.000000e+00
5.717921e-01
5.705322e-01
5.691036e-01
5.676622e-01
5.662971e-01
5.651536e-01
5.643880e-01
5.641249e-01
5.644139e-01
5.652087e-01
5.664843e-01
5.678877e-01
5.693640e-01
5.707270e-01
5.716659e-01
0.000000e+00
1.000000e+00
5.701681e-01
5.674032e-01
5.641972e-01
5.609432e-01
5.578606e-01
5.552777e-01
5.535511e-01
5.529615e-01
5.536159e-01
5.553929e-01
5.581058e-01
5.611780e-01
5.644911e-01
5.675887e-01
5.701548e-01
0.000000e+00
1.000000e+00
5.685349e-01
5.641361e-01
5.590902e-01
5.539469e-01
5.490771e-01
5.450023e-01
5.422836e-01
5.413578e-01
5.423845e-01
5.451555e-01
5.493699e-01
5.542160e-01
5.593674e-01
5.643065e-01
5.686475e-01
0.000000e+00
1.000000e+00
5.669987e-01
5.609135e-01
5.540672e-01
5.470693e-01
5.404525e-01
5.349208e-01
5.312291e-01
5.299647e-01
5.313445e-01
5.350936e-01
5.407911e-01
5.473961e-01
5.543297e-01
5.610858e-01
5.671167e-01
0.000000e+00
1.000000e+00
5.656151e-01
5.579350e-01
5.494350e-01
5.407420e-01
5.325284e-01
5.256575e-01
5.210622e-01
5.194758e-01
5.211733e-01
5.258437e-01
5.329015e-01
5.411410e-01
5.497002e-01
5.581347e-01
5.655617e-01
0.000000e+00
1.000000e+00
5.644950e-01
5.554068e-01
5.454973e-01
5.353746e-01
5.257992e-01
5.177777e-01
5.124022e-01
5.105393e-01
5.125162e-01
5.179856e-01
5.261840e-01
5.358315e-01
5.457749e-01
5.556397e-01
5.642042e-01
0.000000e+00
1.000000e+00
5.642356e-01
5.535874e-01
5.424992e-01
5.312672e-01
5.206338e-01
5.117216e-01
5.057467e-01
5.036792e-01
5.058831e-01
5.119658e-01
5.210262e-01
5.317518e-01
5.427801e-01
5.537221e-01
5.632864e-01
0.000000e+00
1.000000e+00
5.649118e-01
5.524692e-01
5.405442e-01
5.285814e-01
5.172581e-01
5.077718e-01
5.014144e-01
4.992186e-01
5.015702e-01
5.080547e-01
5.176679e-01
5.290729e-01
5.408491e-01
5.524722e-01
5.626857e-01
0.000000e+00
1.000000e+00
5.641027e-01
5.518515e-01
5.396674e-01
5.273848e-01
5.157560e-01
5.060141e-01
4.994883e-01
4.972347e-01
4.996508e-01
5.063194e-01
5.161683e-01
5.278595e-01
5.400111e-01
5.519218e-01
5.624465e-01
0.000000e+00
1.000000e+00
5.631969e-01
5.518193e-01
5.398052e-01
5.275849e-01
5.160168e-01
5.063240e-01
4.998310e-01
4.975901e-01
4.999969e-01
5.066419e-01
5.164135e-01
5.280874e-01
5.402065e-01
5.520585e-01
5.623659e-01
0.000000e+00
1.000000e+00
5.631991e-01
5.524451e-01
5.408566e-01
5.290179e-01
5.178192e-01
5.084397e-01
5.021593e-01
4.999948e-01
5.023284e-01
5.087669e-01
5.182000e-01
5.295590e-01
5.412433e-01
5.527452e-01
5.626931e-01
0.000000e+00
1.000000e+00
5.635803e-01
5.535936e-01
5.426557e-01
5.314672e-01
5.208872e-01
5.120303e-01
5.061038e-01