<?xml version="1.0"?>
<VTKFile type="StructuredGrid" version="0.1">
  <StructuredGrid WholeExtent="0 16 0 16 0 16">
    <Piece Extent="0 16 0 16 0 16">
      <PointData Scalars="temperature" Vectors="velocity">
        <DataArray type="Float32" Name="temperature" format="ascii">
1.000000e+00
5.808154e-01
5.884159e-01
5.973096e-01
6.062836e-01
6.147971e-01
6.219565e-01
6.267913e-01
6.285227e-01
6.268419e-01
6.220558e-01
6.149317e-01
6.064093e-01
5.974036e-01
5.885998e-01
5.801154e-01
0.000000e+00
1.000000e+00
5.799115e-01
5.865986e-01
5.944340e-01
6.023458e-01
6.098512e-01
6.161621e-01
6.204228e-01
6.219474e-01
6.204658e-01
6.162475e-01
6.099745e-01
6.024645e-01
5.945282e-01
5.867611e-01
5.793060e-01
0.000000e+00
1.000000e+00
5.788682e-01
5.845601e-01
5.912015e-01
5.979189e-01
6.042908e-01
6.096479e-01
6.132627e-01
6.145541e-01
6.132971e-01
6.097131e-01
6.043859e-01
5.980074e-01
5.912758e-01
5.846832e-01
5.783499e-01
0.000000e+00
1.000000e+00
5.777320e-01
5.823438e-01
5.876953e-01
5.931177e-01
5.982607e-01
6.025840e-01
6.054997e-01
6.065387e-01
6.055244e-01
6.026312e-01
5.983327e-01
5.931878e-01
5.877621e-01
5.824400e-01
5.773070e-01
0.000000e+00
1.000000e+00
5.765602e-01
5.800223e-01
5.840350e-01
5.881063e-01
5.919674e-01
5.952126e-01
5.973999e-01
5.981767e-01
5.974121e-01
5.952428e-01
5.920180e-01
5.881609e-01
5.840967e-01
5.800992e-01
5.762032e-01
0.000000e+00
1.000000e+00
5.754008e-01
5.776944e-01
5.803724e-01
5.830919e-01
5.856709e-01
5.878382e-01
5.892983e-01
5.898149e-01
5.892992e-01
5.878494e-01
5.856993e-01
5.831297e-01
5.804285e-01
5.777577e-01
5.750993e-01
0.000000e+00
1.000000e+00
5.743069e-01
5.754710e-01
5.768799e-01
5.783104e-01
5.796670e-01
5.808070e-01
5.815748e-01
5.818457e-01
5.815717e-01
5.808046e-01
5.796741e-01
5.783297e-01
5.769270e-01
5.755255e-01
5.740358e-01
0.000000e+00
1.000000e+00
5.733333e-01
5.734680e-01
5.737376e-01
5.740079e-01
5.742644e-01
5.744801e-01
5.746252e-01
5.746756e-01
5.746218e-01
5.744736e-01
5.742634e-01
5.740170e-01
5.737695e-01
5.735152e-01
5.730793e-01
0.000000e+00
1.000000e+00
5.725074e-01
5.717904e-01
5.711106e-01
5.704102e-01
5.697462e-01
5.691885e-01
5.688128e-01
5.686795e-01
5.688117e-01
5.691862e-01
5.697515e-01
5.704185e-01
5.711353e-01
5.718376e-01
5.722641e-01
0.000000e+00
1.000000e+00
5.718946e-01
5.705243e-01
5.691273e-01
5.676949e-01
5.663369e-01
5.651963e-01
5.644282e-01
5.641569e-01
5.644304e-01
5.652016e-01
5.663479e-01
5.677074e-01
5.691505e-01
5.705638e-01
5.716782e-01
0.000000e+00
1.000000e+00
5.715071e-01
5.697238e-01
5.678743e-01
5.659793e-01
5.641826e-01
5.626733e-01
5.616570e-01
5.612985e-01
5.616616e-01
5.626835e-01
5.641975e-01
5.659961e-01
5.678949e-01
5.697431e-01
5.714211e-01
0.000000e+00
1.000000e+00
5.713469e-01
5.694076e-01
5.673801e-01
5.653026e-01
5.633330e-01
5.616784e-01
5.605643e-01
5.601714e-01
5.605697e-01
5.616902e-01
5.633497e-01
5.653230e-01
5.674005e-01
5.694261e-01
5.712807e-01
0.000000e+00
1.000000e+00
5.714136e-01
5.695609e-01
5.676199e-01
5.656312e-01
5.637457e-01
5.621618e-01
5.610954e-01
5.607193e-01
5.611007e-01
5.621737e-01
5.637632e-01
5.656554e-01
5.676437e-01
5.695854e-01
5.712672e-01
0.000000e+00
1.000000e+00
5.716870e-01
5.701381e-01
5.685227e-01
5.668675e-01
5.652982e-01
5.639799e-01
5.630923e-01
5.627792e-01
5.630965e-01
5.639901e-01
5.653156e-01
5.668970e-01
5.685525e-01
5.701660e-01
5.715843e-01
0.000000e+00
1.000000e+00
5.721370e-01
5.710717e-01
5.699840e-01
5.688683e-01
5.678106e-01
5.669222e-01
5.663240e-01
5.661127e-01
5.663263e-01
5.669286e-01
5.678252e-01
5.689042e-01
5.700209e-01
5.711086e-01
5.720279e-01
0.000000e+00
1.000000e+00
5.727265e-01
5.722832e-01
5.718813e-01
5.714662e-01
5.710729e-01
5.707426e-01
5.705201e-01
5.704413e-01
5.705200e-01
5.707434e-01
5.710800e-01
5.715034e-01
5.719229e-01
5.723315e-01
5.725799e-01
0.000000e+00
1.000000e+00
5.734153e-01
5.736919e-01
5.740887e-01
5.744887e-01
5.748682e-01
5.751872e-01
5.754021e-01
5.754777e-01
5.754002e-01
5.751836e-01
5.748667e-01
5.745182e-01
5.741387e-01
5.737534e-01
5.731784e-01
0.000000e+00
1.000000e+00
5.815793e-01
5.898259e-01
5.996052e-01
6.094290e-01
6.187488e-01
6.265873e-01
6.318819e-01
6.337788e-01
6.319335e-01
6.266967e-01
6.188953e-01
6.095587e-01
5.996929e-01
5.900496e-01
5.808812e-01
0.000000e+00
1.000000e+00
5.807357e-01
5.880974e-01
5.968924e-01
6.057142e-01
6.140832e-01
6.211215e-01
6.258748e-01
6.275769e-01
6.259167e-01
6.212179e-01
6.142271e-01
6.058521e-01
5.970014e-01
5.883282e-01
5.800980e-01
0.000000e+00
1.000000e+00
5.797437e-01
5.861358e-01
5.937759e-01
6.014460e-01
6.087221e-01
6.148405e-01
6.189710e-01
6.204485e-01
6.190066e-01
6.149199e-01
6.088411e-01
6.015575e-01
5.938704e-01
5.863299e-01
5.791415e-01
0.000000e+00
1.000000e+00
5.786136e-01
5.839814e-01
5.903341e-01
5.967320e-01
6.028010e-01
6.079037e-01
6.113472e-01
6.125774e-01
6.113763e-01
6.079650e-01
6.028950e-01
5.968217e-01
5.904164e-01
5.841264e-01
5.781022e-01
0.000000e+00
1.000000e+00
5.774270e-01
5.816857e-01
5.866857e-01
5.917356e-01
5.965256e-01
6.005523e-01
6.032685e-01
6.042370e-01
6.032887e-01
6.005964e-01
5.965959e-01
5.918072e-01
5.867598e-01
5.817927e-01
5.769942e-01
0.000000e+00
1.000000e+00
5.762421e-01
5.793464e-01
5.829868e-01
5.866707e-01
5.901647e-01
5.931015e-01
5.950814e-01
5.957857e-01
5.950926e-01
5.931291e-01
5.902117e-01
5.867246e-01
5.830521e-01
5.794257e-01
5.758756e-01
0.000000e+00
1.000000e+00
5.751148e-01
5.770827e-01
5.794188e-01
5.817862e-01
5.840312e-01
5.859179e-01
5.871895e-01
5.876408e-01
5.871940e-01
5.859290e-01
5.840563e-01
5.818221e-01
5.794772e-01
5.771445e-01
5.747938e-01
0.000000e+00
1.000000e+00
5.740969e-01
5.750197e-01
5.761770e-01
5.773477e-01
5.784580e-01
5.793911e-01
5.800198e-01
5.802424e-01
5.800193e-01
5.793905e-01
5.784637e-01
5.773629e-01
5.762195e-01
5.750689e-01
5.738120e-01
0.000000e+00
1.000000e+00
5.732383e-01
5.732778e-01
5.734435e-01
5.736047e-01
5.737576e-01
5.738862e-01
5.739728e-01
5.740028e-01
5.739706e-01
5.738818e-01
5.737549e-01
5.736083e-01
5.734672e-01
5.733180e-01
5.729646e-01
0.000000e+00
1.000000e+00
5.725974e-01
5.719510e-01
5.713638e-01
5.707574e-01
5.701825e-01
5.696995e-01
5.693741e-01
5.692588e-01
5.693734e-01
5.696986e-01
5.701844e-01
5.707614e-01
5.713786e-01
5.719868e-01
5.723492e-01
0.000000e+00
1.000000e+00
5.721705e-01
5.711009e-01
5.700337e-01
5.689358e-01
5.678948e-01
5.670202e-01
5.664312e-01
5.662232e-01
5.664332e-01
5.670249e-01
5.679033e-01
5.689445e-01
5.700450e-01
5.711223e-01
5.720796e-01
0.000000e+00
1.000000e+00
5.719925e-01
5.707522e-01
5.694877e-01
5.681884e-01
5.669566e-01
5.659217e-01
5.652247e-01
5.649788e-01
5.652277e-01
5.659287e-01
5.669682e-01
5.682020e-01
5.695007e-01
5.707729e-01
5.719228e-01
0.000000e+00
1.000000e+00
5.720528e-01
5.708897e-01
5.697019e-01
5.684819e-01
5.673253e-01
5.663535e-01
5.656991e-01
5.654681e-01
5.657018e-01
5.663602e-01
5.673371e-01
5.685007e-01
5.697197e-01
5.709152e-01
5.719118e-01
0.000000e+00
1.000000e+00
5.723297e-01
5.714639e-01
5.706002e-01
5.697119e-01
5.688697e-01
5.681622e-01
5.676857e-01
5.675173e-01
5.676871e-01
5.681665e-01
5.688795e-01
5.697359e-01
5.706242e-01
5.714937e-01
5.722229e-01
0.000000e+00
1.000000e+00
5.727861e-01
5.724028e-01
5.720702e-01
5.717247e-01
5.713972e-01
5.711222e-01
5.709368e-01
5.708711e-01
5.709365e-01
5.711225e-01
5.714021e-01
5.717509e-01
5.721009e-01
5.724408e-01
5.726592e-01
0.000000e+00
1.000000e+00
5.733849e-01
5.736224e-01
5.739815e-01
5.743418e-01
5.746835e-01
5.749707e-01
5.751642e-01
5.752321e-01
5.751624e-01
5.749677e-01
5.746826e-01
5.743628e-01
5.740212e-01
5.736703e-01
5.732371e-01
0.000000e+00
1.000000e+00
5.740790e-01
5.750377e-01
5.762005e-01
5.773803e-01
5.784992e-01
5.794394e-01
5.800729e-01
5.802967e-01
5.800711e-01
5.794360e-01
5.784970e-01
5.774006e-01
5.762557e-01
5.750991e-01
5.738329e-01
0.000000e+00
1.000000e+00
5.821541e-01
5.909262e-01
6.014284e-01
6.119266e-01
6.218850e-01
6.302613e-01
6.359195e-01
6.379436e-01
6.359730e-01
6.303844e-01
6.220473e-01
6.120661e-01
6.015148e-01
5.912059e-01
5.814456e-01
0.000000e+00
1.000000e+00
5.813404e-01
5.893090e-01
5.988879e-01
6.084469e-01
6.175145e-01
6.251412e-01
6.302922e-01
6.321332e-01
6.303339e-01
6.252542e-01
6.176731e-01
6.085934e-01
5.989958e-01
5.896003e-01
5.807144e-01
0.000000e+00
1.000000e+00
5.803807e-01
5.874186e-01
5.958982e-01
6.043528e-01
6.123725e-01
6.191171e-01
6.236714e-01
6.252981e-01
6.237057e-01
6.192160e-01
6.125087e-01
6.044774e-01
5.959948e-01
5.876844e-01
5.797930e-01
0.000000e+00
1.000000e+00
5.793172e-01
5.853025e-01
5.925327e-01
5.997439e-01
6.065839e-01
6.123358e-01
6.162189e-01
6.176048e-01
6.162464e-01
6.124173e-01
6.066937e-01
5.998450e-01
5.926162e-01
5.855300e-01
5.787715e-01
0.000000e+00
1.000000e+00
5.781577e-01
5.830348e-01
5.889088e-01
5.947810e-01
6.003509e-01
6.050340e-01
6.081948e-01
6.093216e-01
6.082161e-01
6.050969e-01
6.004361e-01
5.948632e-01
5.889837e-01
5.832125e-01
5.776703e-01
0.000000e+00
1.000000e+00
5.769652e-01
5.806980e-01
5.851863e-01
5.896833e-01
5.939487e-01
5.975345e-01
5.999538e-01
6.008147e-01
5.999688e-01
5.975777e-01
5.940106e-01
5.897465e-01
5.852503e-01
5.808297e-01
5.765428e-01
0.000000e+00
1.000000e+00
5.757900e-01
5.784189e-01
5.815577e-01
5.847145e-01
5.877086e-01
5.902254e-01
5.919224e-01
5.925247e-01
5.919303e-01
5.902482e-01
5.877482e-01
5.847586e-01
5.816108e-01
5.785065e-01
5.754407e-01
0.000000e+00
1.000000e+00
5.747395e-01
5.763144e-01
5.782269e-01
5.801545e-01
5.819827e-01
5.835194e-01
5.845552e-01
5.849228e-01
5.845588e-01
5.835290e-01
5.820028e-01
5.801799e-01
5.782711e-01
5.763762e-01
5.744357e-01
0.000000e+00
1.000000e+00
5.738447e-01
5.745146e-01
5.753978e-01
5.762804e-01
5.771175e-01
5.778211e-01
5.782952e-01
5.784625e-01
5.782937e-01
5.778198e-01
5.771174e-01
5.762841e-01
5.754209e-01
5.745614e-01
5.735653e-01
0.000000e+00
1.000000e+00
5.731581e-01
5.731345e-01
5.732284e-01
5.733099e-01
5.733871e-01
5.734520e-01
5.734955e-01
5.735105e-01
5.734937e-01
5.734481e-01
5.733816e-01
5.733063e-01
5.732369e-01
5.731695e-01
5.729192e-01
0.000000e+00
1.000000e+00
5.727173e-01
5.722411e-01
5.718254e-01
5.713891e-01
5.709755e-01
5.706279e-01
5.703937e-01
5.703108e-01
5.703938e-01
5.706285e-01
5.709772e-01
5.713902e-01
5.718294e-01
5.722651e-01
5.726037e-01
0.000000e+00
1.000000e+00
5.725270e-01
5.718646e-01
5.712328e-01
5.705780e-01
5.699571e-01
5.694355e-01
5.690841e-01
5.689600e-01
5.690852e-01
5.694384e-01
5.699631e-01
5.705844e-01
5.712370e-01
5.718864e-01
5.724239e-01
0.000000e+00
1.000000e+00
5.725837e-01
5.719890e-01
5.714253e-01
5.708416e-01
5.702882e-01
5.698233e-01
5.695101e-01
5.693994e-01
5.695109e-01
5.698257e-01
5.702941e-01
5.708533e-01
5.714342e-01
5.720134e-01
5.724329e-01
0.000000e+00
1.000000e+00
5.728626e-01
5.725622e-01
5.723219e-01
5.720692e-01
5.718297e-01
5.716284e-01
5.714928e-01
5.714446e-01
5.714924e-01
5.716285e-01
5.718325e-01
5.720827e-01
5.723365e-01
5.725911e-01
5.727151e-01
0.000000e+00
1.000000e+00
5.733255e-01
5.735078e-01
5.738031e-01
5.740973e-01
5.743763e-01
5.746108e-01
5.747687e-01
5.748241e-01
5.747671e-01
5.746082e-01
5.743750e-01
5.741090e-01
5.738280e-01
5.735448e-01
5.731446e-01
0.000000e+00
1.000000e+00
5.739327e-01
5.747369e-01
5.757301e-01
5.767361e-01
5.776900e-01
5.784916e-01
5.790316e-01
5.792224e-01
5.790299e-01
5.784884e-01
5.776872e-01
5.767492e-01
5.757729e-01
5.747860e-01
5.737367e-01
0.000000e+00
1.000000e+00
5.746329e-01
5.761605e-01
5.779628e-01
5.797933e-01
5.815291e-01
5.829879e-01
5.839709e-01
5.843188e-01
5.839702e-01
5.829868e-01
5.815319e-01
5.798206e-01
5.780206e-01
5.762220e-01
5.743701e-01
0.000000e+00
1.000000e+00
5.825727e-01
5.916856e-01
6.026567e-01
6.136092e-01
6.239982e-01
6.327366e-01
6.386386e-01
6.407469e-01
6.386971e-01
6.328699e-01
6.241758e-01
6.137600e-01
6.027448e-01
5.919809e-01
5.818209e-01
0.000000e+00
1.000000e+00
5.818125e-01
5.901655e-01
6.002826e-01
6.103568e-01
6.199130e-01
6.279503e-01
6.333784e-01
6.353146e-01
6.334259e-01
6.280752e-01
6.200817e-01
6.105083e-01
6.003883e-01
5.904794e-01
5.811344e-01
0.000000e+00
1.000000e+00
5.808816e-01
5.883524e-01
5.974201e-01
6.064368e-01
6.149890e-01
6.221820e-01
6.270394e-01
6.287707e-01
6.270779e-01
6.222939e-01
6.151372e-01
6.065706e-01
5.975197e-01
5.886512e-01
5.802558e-01
0.000000e+00
1.000000e+00
5.798545e-01
5.862795e-01
5.941353e-01
6.019384e-01
6.093394e-01
6.155638e-01
6.197666e-01
6.212637e-01
6.197971e-01
6.156585e-01
6.094603e-01
6.020469e-01
5.942195e-01
5.865469e-01
5.792567e-01
0.000000e+00
1.000000e+00
5.787069e-01
5.840344e-01
5.905429e-01
5.970191e-01
6.031615e-01
6.083268e-01
6.118134e-01
6.130546e-01
6.118373e-01
6.084023e-01
6.032562e-01
5.971078e-01
5.906188e-01
5.842503e-01
5.781670e-01
0.000000e+00
1.000000e+00
5.775094e-01
5.816926e-01
5.868056e-01
5.919014e-01
5.967345e-01
6.007980e-01
6.035398e-01
6.045152e-01
6.035577e-01
6.008535e-01
5.968048e-01
5.919705e-01
5.868706e-01
5.818587e-01
5.770344e-01
0.000000e+00
1.000000e+00
5.763071e-01
5.793914e-01
5.831248e-01
5.868606e-01
5.904039e-01
5.933825e-01
5.953911e-01
5.961049e-01
5.954028e-01
5.934176e-01
5.904518e-01
5.869104e-01
5.831773e-01
5.795015e-01
5.759150e-01
0.000000e+00
1.000000e+00
5.752144e-01
5.772506e-01
5.797180e-01
5.821959e-01
5.845459e-01
5.865212e-01
5.878529e-01
5.883261e-01
5.878601e-01
5.865400e-01
5.845750e-01
5.822280e-01
5.797604e-01
5.773203e-01
5.748881e-01
0.000000e+00
1.000000e+00
5.742791e-01
5.754026e-01
5.768034e-01
5.782047e-01
5.795337e-01
5.806504e-01
5.814029e-01
5.816693e-01
5.814034e-01
5.806534e-01
5.795412e-01
5.782143e-01
5.768286e-01
5.754521e-01
5.740039e-01
0.000000e+00
1.000000e+00
5.735724e-01
5.739765e-01
5.745538e-01
5.751247e-01
5.756661e-01
5.761209e-01
5.764272e-01
5.765353e-01
5.764257e-01
5.761180e-01
5.756617e-01
5.751209e-01
5.745615e-01
5.740098e-01
5.733368e-01
0.000000e+00
1.000000e+00
5.731125e-01
5.730461e-01
5.730900e-01
5.731206e-01
5.731496e-01
5.731740e-01
5.731903e-01
5.731958e-01
5.731895e-01
5.731724e-01
5.731466e-01
5.731166e-01
5.730894e-01
5.730680e-01
5.729760e-01
0.000000e+00
1.000000e+00
5.729090e-01
5.726466e-01
5.724602e-01
5.722585e-01
5.720672e-01
5.719065e-01
5.717982e-01
5.717599e-01
5.717983e-01
5.719069e-01
5.720682e-01
5.722581e-01
5.724574e-01
5.726649e-01
5.727657e-01
0.000000e+00
1.000000e+00
5.729608e-01
5.727631e-01
5.726397e-01
5.725042e-01
5.723759e-01
5.722680e-01
5.721952e-01
5.721694e-01
5.721951e-01
5.722681e-01
5.723772e-01
5.725069e-01
5.726400e-01
5.727820e-01
5.728030e-01
0.000000e+00
1.000000e+00
5.732425e-01
5.733407e-01
5.735431e-01
5.737412e-01
5.739291e-01
5.740870e-01
5.741932e-01
5.742305e-01
5.741921e-01
5.740852e-01
5.739279e-01
5.737445e-01
5.735513e-01
5.733656e-01
5.730587e-01
0.000000e+00
1.000000e+00
5.737130e-01
5.742987e-01
5.750438e-01
5.757961e-01
5.765095e-01
5.771089e-01
5.775126e-01
5.776551e-01
5.775110e-01
5.771056e-01
5.765053e-01
5.758005e-01
5.750682e-01
5.743331e-01
5.735109e-01
0.000000e+00
1.000000e+00
5.743265e-01
5.755432e-01
5.769953e-01
5.784683e-01
5.798652e-01
5.810390e-01
5.818299e-01
5.821097e-01
5.818288e-01
5.810367e-01
5.798631e-01
5.784847e-01
5.770391e-01
5.755905e-01
5.741099e-01
0.000000e+00
1.000000e+00
5.750366e-01
5.769811e-01
5.792506e-01
5.815565e-01
5.837432e-01
5.855809e-01
5.868193e-01
5.872581e-01
5.868199e-01
5.855826e-01
5.837534e-01
5.815926e-01
5.793036e-01
5.770390e-01
5.747569e-01
0.000000e+00
1.000000e+00
5.826946e-01
5.920862e-01
6.031847e-01
6.143325e-01
6.249085e-01
6.338040e-01
6.398123e-01
6.419601e-01
6.398727e-01
6.339439e-01
6.250999e-01
6.144969e-01
6.032790e-01
5.923176e-01
5.819839e-01
0.000000e+00
1.000000e+00
5.820475e-01
5.906089e-01
6.009531e-01
6.112781e-01
6.210726e-01
6.293099e-01
6.348728e-01
6.368593e-01
6.349249e-01
6.294428e-01
6.212506e-01
6.114370e-01
6.010629e-01
5.909042e-01
5.813334e-01
0.000000e+00
1.000000e+00
5.811625e-01
5.888575e-01
5.982041e-01
6.075129e-01
6.163426e-01
6.237684e-01
6.287827e-01
6.305720e-01
6.288263e-01
6.238878e-01
6.165002e-01
6.076564e-01
5.983111e-01
5.891525e-01
5.804906e-01
0.000000e+00
1.000000e+00
5.801223e-01
5.868525e-01
5.949932e-01
6.031151e-01
6.108185e-01
6.172969e-01
6.216708e-01
6.232306e-01
6.217073e-01
6.173984e-01
6.109475e-01
6.032309e-01
5.950822e-01
5.870934e-01
5.795145e-01
0.000000e+00
1.000000e+00
5.789805e-01
5.846280e-01
5.914315e-01
5.982368e-01
6.046917e-01
6.101195e-01
6.137832e-01
6.150894e-01
6.138139e-01
6.102010e-01
6.047936e-01
5.983318e-01
5.915112e-01
5.848161e-01
5.784353e-01
0.000000e+00
1.000000e+00
5.777832e-01
5.822767e-01
5.876836e-01
5.931037e-01
5.982448e-01
6.025674e-01
6.054841e-01
6.065242e-01
6.055085e-01
6.026277e-01
5.983216e-01
5.931781e-01
5.877510e-01
5.824168e-01
5.772961e-01
0.000000e+00
1.000000e+00
5.765891e-01
5.799355e-01
5.839580e-01
5.880014e-01
5.918365e-01
5.950605e-01
5.972352e-01
5.980106e-01
5.972518e-01
5.950994e-01
5.918897e-01
5.880554e-01
5.840123e-01
5.800318e-01
5.761632e-01
0.000000e+00
1.000000e+00
5.754701e-01
5.777464e-01
5.804840e-01
5.832452e-01
5.858639e-01
5.880652e-01
5.895501e-01
5.900787e-01
5.895587e-01
5.880860e-01
5.858979e-01
5.832819e-01
5.805271e-01
5.778067e-01
5.751377e-01
0.000000e+00
1.000000e+00
5.745103e-01
5.758513e-01
5.774947e-01
5.791516e-01
5.807230e-01
5.820437e-01
5.829340e-01
5.832497e-01
5.829358e-01
5.820497e-01
5.807374e-01
5.791691e-01
5.775256e-01
5.758904e-01
5.742576e-01
0.000000e+00
1.000000e+00
5.737794e-01
5.743797e-01
5.751803e-01
5.759826e-01
5.767433e-01
5.773825e-01
5.778131e-01
5.779651e-01
5.778119e-01
5.773811e-01
5.767426e-01
5.759822e-01
5.751911e-01
5.744036e-01
5.735661e-01
0.000000e+00
1.000000e+00
5.733055e-01
5.734183e-01
5.736704e-01
5.739152e-01
5.741473e-01
5.743423e-01
5.744735e-01
5.745196e-01
5.744724e-01
5.743400e-01
5.741432e-01
5.739101e-01
5.736695e-01
5.734307e-01
5.731515e-01
0.000000e+00
1.000000e+00
5.730910e-01
5.730034e-01
5.730185e-01
5.730226e-01
5.730265e-01
5.730298e-01
5.730319e-01
5.730327e-01
5.730317e-01
5.730292e-01
5.730250e-01
5.730195e-01
5.730139e-01
5.730160e-01
5.729566e-01
0.000000e+00
1.000000e+00
5.731388e-01
5.731203e-01
5.731995e-01
5.732706e-01
5.733380e-01
5.733946e-01
5.734326e-01
5.734460e-01
5.734322e-01
5.733938e-01
5.733369e-01
5.732685e-01
5.731969e-01
5.731341e-01
5.730006e-01
0.000000e+00
1.000000e+00
5.734256e-01
5.737115e-01
5.741244e-01
5.745371e-01
5.749284e-01
5.752572e-01
5.754785e-01
5.755565e-01
5.754772e-01
5.752548e-01
5.749253e-01
5.745347e-01
5.741319e-01
5.737343e-01
5.732200e-01
0.000000e+00
1.000000e+00
5.739051e-01
5.746915e-01
5.756597e-01
5.766393e-01
5.775683e-01
5.783489e-01
5.788747e-01
5.790604e-01
5.788730e-01
5.783452e-01
5.775625e-01
5.766420e-01
5.756862e-01
5.747258e-01
5.736779e-01
0.000000e+00
1.000000e+00
5.745293e-01
5.759617e-01
5.776513e-01
5.793664e-01
5.809929e-01
5.823596e-01
5.832805e-01
5.836064e-01
5.832797e-01
5.823577e-01
5.809913e-01
5.793871e-01
5.776977e-01
5.760074e-01
5.742896e-01
0.000000e+00
1.000000e+00
5.752542e-01
5.774241e-01
5.799458e-01
5.825082e-01
5.849382e-01
5.869804e-01
5.883568e-01
5.888448e-01
5.883585e-01
5.869846e-01
5.849527e-01
5.825491e-01
5.799983e-01
5.774791e-01
5.749656e-01
0.000000e+00
1.000000e+00
5.825700e-01
5.919847e-01
6.029450e-01
6.140019e-01
6.244935e-01
6.333189e-01
6.392813e-01
6.414164e-01
6.393420e-01
6.334591e-01
6.246902e-01
6.141694e-01
6.030404e-01
5.921806e-01
5.819230e-01
0.000000e+00
1.000000e+00
5.819691e-01
5.906021e-01
6.008229e-01
6.110976e-01
6.208462e-01
6.290455e-01
6.345833e-01
6.365658e-01
6.346398e-01
6.291798e-01
6.210270e-01
6.112569e-01
6.009315e-01
5.908316e-01
5.812943e-01
0.000000e+00
1.000000e+00
5.811212e-01
5.889116e-01
5.981575e-01
6.074471e-01
6.162606e-01
6.236729e-01
6.286783e-01
6.304698e-01
6.287285e-01
6.237946e-01
6.164238e-01
6.075963e-01
5.982678e-01
5.891313e-01
5.804798e-01
0.000000e+00
1.000000e+00
5.801025e-01
5.869272e-01
5.949992e-01
6.031210e-01
6.108264e-01
6.173064e-01
6.216812e-01
6.232463e-01
6.217255e-01
6.174097e-01
6.109608e-01
6.032423e-01
5.950917e-01
5.871052e-01
5.795189e-01
0.000000e+00
1.000000e+00
5.789693e-01
5.846961e-01
5.914553e-01
5.982674e-01
6.047299e-01
6.101641e-01
6.138319e-01
6.151437e-01
6.138701e-01
6.102466e-01
6.048367e-01
5.983672e-01
5.915388e-01
5.848387e-01
5.784440e-01
0.000000e+00
1.000000e+00
5.777645e-01
5.823212e-01
5.876919e-01
5.931137e-01
5.982566e-01
6.025805e-01
6.054981e-01
6.065413e-01
6.055285e-01
6.026409e-01
5.983373e-01
5.931919e-01
5.877630e-01
5.824295e-01
5.772981e-01
0.000000e+00
1.000000e+00
5.765587e-01
5.799370e-01
5.839226e-01
5.879528e-01
5.917752e-01
5.949882e-01
5.971557e-01
5.979298e-01
5.971760e-01
5.950271e-01
5.918317e-01
5.880110e-01
5.839820e-01
5.800179e-01
5.761519e-01
0.000000e+00
1.000000e+00
5.754312e-01
5.776978e-01
5.803900e-01
5.831166e-01
5.857025e-01
5.878761e-01
5.893422e-01
5.898648e-01
5.893529e-01
5.878974e-01
5.857380e-01
5.831572e-01
5.804392e-01
5.777563e-01
5.751246e-01
0.000000e+00
1.000000e+00
5.744669e-01
5.757581e-01
5.773401e-01
5.789402e-01
5.804578e-01
5.817333e-01
5.825932e-01
5.828986e-01
5.825959e-01
5.817395e-01
5.804716e-01
5.789599e-01
5.773761e-01
5.757989e-01
5.742577e-01
0.000000e+00
1.000000e+00
5.737198e-01
5.742521e-01
5.749768e-01
5.757039e-01
5.763933e-01
5.769726e-01
5.773628e-01
5.775005e-01
5.773614e-01
5.769705e-01
5.763921e-01
5.757052e-01
5.749909e-01
5.742745e-01
5.735540e-01
0.000000e+00
1.000000e+00
5.732356e-01
5.732718e-01
5.734377e-01
5.735965e-01
5.737471e-01
5.738736e-01
5.739586e-01
5.739884e-01
5.739573e-01
5.738707e-01
5.737429e-01
5.735936e-01
5.734397e-01
5.732800e-01
5.730789e-01
0.000000e+00
1.000000e+00
5.730246e-01
5.728545e-01
5.727823e-01
5.726992e-01
5.726204e-01
5.725541e-01
5.725093e-01
5.724933e-01
5.725088e-01
5.725527e-01
5.726178e-01
5.726973e-01
5.727801e-01
5.728499e-01
5.729062e-01
0.000000e+00
1.000000e+00
5.730769e-01
5.729844e-01
5.729849e-01
5.729765e-01
5.729686e-01
5.729619e-01
5.729572e-01
5.729554e-01
5.729565e-01
5.729603e-01
5.729660e-01
5.729752e-01
5.729844e-01
5.729865e-01
5.729502e-01
0.000000e+00
1.000000e+00
5.733724e-01
5.736018e-01
5.739512e-01
5.742999e-01
5.746304e-01
5.749080e-01
5.750949e-01
5.751606e-01
5.750933e-01
5.749049e-01
5.746253e-01
5.742934e-01
5.739680e-01
5.736171e-01
5.732194e-01
0.000000e+00
1.000000e+00
5.738668e-01
5.746171e-01
5.755415e-01
5.764775e-01
5.773651e-01
5.781108e-01
5.786131e-01
5.787904e-01
5.786111e-01
5.781065e-01
5.773575e-01
5.764703e-01
5.755663e-01
5.746452e-01
5.736673e-01
0.000000e+00
1.000000e+00
5.745151e-01
5.759263e-01
5.775946e-01
5.792888e-01
5.808954e-01
5.822454e-01
5.831549e-01
5.834767e-01
5.831538e-01
5.822428e-01
5.808912e-01
5.793018e-01
5.776445e-01
5.759649e-01
5.742731e-01
0.000000e+00
1.000000e+00
5.752589e-01
5.774273e-01
5.799508e-01
5.825151e-01
5.849469e-01
5.869906e-01
5.883679e-01
5.888561e-01
5.883694e-01
5.869945e-01
5.849590e-01
5.825527e-01
5.800074e-01
5.774780e-01
5.749632e-01
0.000000e+00
1.000000e+00
5.822213e-01
5.913553e-01
6.019107e-01
6.125822e-01
6.227081e-01
6.312265e-01
6.369819e-01
6.390455e-01
6.370447e-01
6.313590e-01
6.229000e-01
6.127435e-01
6.020039e-01
5.915187e-01
5.816107e-01
0.000000e+00
1.000000e+00
5.816024e-01
5.900361e-01
5.998523e-01
6.097643e-01
6.191691e-01
6.270797e-01
6.324229e-01
6.343379e-01
6.324837e-01
6.272081e-01
6.193452e-01
6.099176e-01
5.999579e-01
5.902124e-01
5.809925e-01
0.000000e+00
1.000000e+00
5.807672e-01
5.883757e-01
5.972311e-01
6.061747e-01
6.146601e-01
6.217967e-01
6.266159e-01
6.283430e-01
6.266721e-01
6.219140e-01
6.148208e-01
6.063207e-01
5.973398e-01
5.885437e-01
5.801974e-01
0.000000e+00
1.000000e+00
5.797635e-01
5.863938e-01
5.940937e-01
6.018784e-01
6.092637e-01
6.154742e-01
6.196668e-01
6.211685e-01
6.197165e-01
6.155730e-01
6.093966e-01
6.019990e-01
5.941884e-01
5.865344e-01
5.792437e-01
0.000000e+00
1.000000e+00
5.786394e-01
5.841484e-01
5.905460e-01
5.970208e-01
6.031627e-01
6.083267e-01
6.118115e-01
6.130587e-01
6.118527e-01
6.084039e-01
6.032684e-01
5.971212e-01
5.906332e-01
5.842657e-01
5.781677e-01
0.000000e+00
1.000000e+00
5.774341e-01
5.817460e-01
5.867555e-01
5.918311e-01
5.966451e-01
6.006918e-01
6.034214e-01
6.043969e-01
6.034514e-01
6.007470e-01
5.967244e-01
5.919113e-01
5.868327e-01
5.818406e-01
5.770153e-01
0.000000e+00
1.000000e+00
5.762239e-01
5.793258e-01
5.829422e-01
5.866106e-01
5.900895e-01
5.930135e-01
5.949850e-01
5.956880e-01
5.950024e-01
5.930482e-01
5.901441e-01
5.866720e-01
5.830094e-01
5.794006e-01
5.758552e-01
0.000000e+00
1.000000e+00
5.750917e-01
5.770481e-01
5.793595e-01
5.817055e-01
5.839303e-01
5.858002e-01
5.870609e-01
5.875093e-01
5.870680e-01
5.858165e-01
5.839607e-01
5.817464e-01
5.794175e-01
5.771068e-01
5.748104e-01
0.000000e+00
1.000000e+00
5.741229e-01
5.750757e-01
5.762625e-01
5.774648e-01
5.786051e-01
5.795635e-01
5.802094e-01
5.804384e-01
5.802100e-01
5.795660e-01
5.786131e-01
5.774815e-01
5.763015e-01
5.751155e-01
5.739380e-01
0.000000e+00
1.000000e+00
5.733725e-01
5.735476e-01
5.738672e-01
5.741847e-01
5.744857e-01
5.747386e-01
5.749089e-01
5.749686e-01
5.749068e-01
5.747350e-01
5.744824e-01
5.741890e-01
5.738856e-01
5.735707e-01
5.732259e-01
0.000000e+00
1.000000e+00
5.728818e-01
5.725599e-01
5.723191e-01
5.720649e-01
5.718238e-01
5.716211e-01
5.714843e-01
5.714355e-01
5.714829e-01
5.716180e-01
5.718209e-01
5.720687e-01
5.723277e-01
5.725733e-01
5.727346e-01
0.000000e+00
1.000000e+00
5.726814e-01
5.721528e-01
5.716801e-01
5.711902e-01
5.707255e-01
5.703350e-01
5.700718e-01
5.699785e-01
5.700713e-01
5.703338e-01
5.707246e-01
5.711958e-01
5.716845e-01
5.721554e-01
5.725438e-01
0.000000e+00
1.000000e+00
5.727492e-01
5.723095e-01
5.719251e-01
5.715255e-01
5.711466e-01
5.708281e-01
5.706134e-01
5.705371e-01
5.706126e-01
5.708265e-01
5.711445e-01
5.715313e-01
5.719309e-01
5.723158e-01
5.725839e-01
0.000000e+00
1.000000e+00
5.730607e-01
5.729671e-01
5.729547e-01
5.729354e-01
5.729170e-01
5.729014e-01
5.728906e-01
5.728863e-01
5.728888e-01
5.728978e-01
5.729109e-01
5.729357e-01
5.729750e-01
5.729760e-01
5.729451e-01
0.000000e+00
1.000000e+00
5.735783e-01
5.740321e-01
5.746227e-01
5.752194e-01
5.757851e-01
5.762604e-01
5.765803e-01
5.766929e-01
5.765778e-01
5.762552e-01
5.757761e-01
5.752090e-01
5.746470e-01
5.740547e-01
5.734446e-01
0.000000e+00
1.000000e+00
5.742553e-01
5.753958e-01
5.767611e-01
5.781475e-01
5.794622e-01
5.805670e-01
5.813112e-01
5.815742e-01
5.813093e-01
5.805630e-01
5.794546e-01
5.781472e-01
5.768096e-01
5.754309e-01
5.740702e-01
0.000000e+00
1.000000e+00
5.750265e-01
5.769523e-01
5.792045e-01
5.814933e-01
5.836638e-01
5.854879e-01
5.867170e-01
5.871524e-01
5.867172e-01
5.854886e-01
5.836677e-01
5.815200e-01
5.792671e-01
5.769996e-01
5.747581e-01
0.000000e+00
1.000000e+00
5.816365e-01
5.902252e-01
6.001042e-01
6.101078e-01
6.195982e-01
6.275807e-01
6.329729e-01
6.349058e-01
6.330348e-01
6.276981e-01
6.197723e-01
6.102523e-01
6.001938e-01
5.903666e-01
5.810650e-01
0.000000e+00
1.000000e+00
5.810046e-01
5.889211e-01
5.980575e-01
6.073055e-01
6.160787e-01
6.234568e-01
6.284387e-01
6.302238e-01
6.284978e-01
6.235700e-01
6.162389e-01
6.074463e-01
5.981607e-01
5.890679e-01
5.804483e-01
0.000000e+00
1.000000e+00
5.801740e-01
5.872576e-01
5.954354e-01
6.037152e-01
6.115694e-01
6.181738e-01
6.226319e-01
6.242288e-01
6.226866e-01
6.182778e-01
6.117182e-01
6.038526e-01
5.955432e-01
5.873967e-01
5.796514e-01
0.000000e+00
1.000000e+00
5.791703e-01
5.852612e-01
5.922837e-01
5.993999e-01
6.061498e-01
6.118248e-01
6.156541e-01
6.170240e-01
6.157000e-01
6.119111e-01
6.062730e-01
5.995159e-01
5.923823e-01
5.853803e-01
5.786933e-01
0.000000e+00
1.000000e+00
5.780368e-01
5.829935e-01
5.887081e-01
5.945045e-01
6.000022e-01
6.046236e-01
6.077404e-01
6.088533e-01
6.077748e-01
6.046895e-01
6.000995e-01
5.946033e-01
5.888015e-01
5.830964e-01
5.776092e-01
0.000000e+00
1.000000e+00
5.768245e-01
5.805613e-01
5.848784e-01
5.892614e-01
5.934182e-01
5.969119e-01
5.992673e-01
6.001060e-01
5.992875e-01
5.969561e-01
5.934892e-01
5.893421e-01
5.849645e-01
5.806479e-01
5.764467e-01
0.000000e+00
1.000000e+00
5.756058e-01
5.781083e-01
5.810205e-01
5.839796e-01
5.867859e-01
5.891443e-01
5.907340e-01
5.912985e-01
5.907420e-01
5.891668e-01
5.868296e-01
5.840398e-01
5.810988e-01
5.781805e-01
5.752745e-01
0.000000e+00
1.000000e+00
5.744674e-01
5.757999e-01
5.773954e-01
5.790161e-01
5.805532e-01
5.818452e-01
5.827159e-01
5.830245e-01
5.827173e-01
5.818511e-01
5.805706e-01
5.790503e-01
5.774616e-01
5.758596e-01
5.742136e-01
0.000000e+00
1.000000e+00
5.734906e-01
5.738044e-01
5.742655e-01
5.747305e-01
5.751716e-01
5.755425e-01
5.757924e-01
5.758806e-01
5.757913e-01
5.755411e-01
5.751741e-01
5.747484e-01
5.743070e-01
5.738440e-01
5.733234e-01
0.000000e+00
1.000000e+00
5.727384e-01
5.722661e-01
5.718553e-01
5.714300e-01
5.710268e-01
5.706881e-01
5.704598e-01
5.703786e-01
5.704588e-01
5.706864e-01
5.710290e-01
5.714468e-01
5.718829e-01
5.722920e-01
5.726016e-01
0.000000e+00
1.000000e+00
5.722545e-01
5.712836e-01
5.703169e-01
5.693235e-01
5.683815e-01
5.675900e-01
5.670567e-01
5.668678e-01
5.670568e-01
5.675903e-01
5.683864e-01
5.693406e-01
5.703371e-01
5.713012e-01
5.721406e-01
0.000000e+00
1.000000e+00
5.720661e-01
5.708986e-01
5.697137e-01
5.684977e-01
5.673446e-01
5.663757e-01
5.657230e-01
5.654921e-01
5.657239e-01
5.663774e-01
5.673500e-01
5.685141e-01
5.697274e-01
5.709095e-01
5.719059e-01
0.000000e+00
1.000000e+00
5.721604e-01
5.710937e-01
5.700190e-01
5.689158e-01
5.678697e-01
5.669907e-01
5.663985e-01
5.661888e-01
5.663989e-01
5.669917e-01
5.678731e-01
5.689323e-01
5.700339e-01
5.711077e-01
5.719777e-01
0.000000e+00
1.000000e+00
5.724961e-01
5.718034e-01
5.711303e-01
5.704373e-01
5.697803e-01
5.692282e-01
5.688560e-01
5.687240e-01
5.688553e-01
5.692269e-01
5.697784e-01
5.704552e-01
5.711522e-01
5.718178e-01
5.723677e-01
0.000000e+00
1.000000e+00
5.730424e-01
5.729304e-01
5.728953e-01
5.728542e-01
5.728151e-01
5.727822e-01
5.727598e-01
5.727511e-01
5.727575e-01
5.727778e-01
5.728071e-01
5.728632e-01
5.729249e-01
5.729524e-01
5.729455e-01
0.000000e+00
1.000000e+00
5.737471e-01
5.743627e-01
5.751402e-01
5.759281e-01
5.766752e-01
5.773029e-01
5.777256e-01