<?xml version="1.0"?>
<VTKFile type="StructuredGrid" version="0.1">
  <StructuredGrid WholeExtent="0 16 0 16 0 16">
    <Piece Extent="0 16 0 16 0 16">
      <PointData Scalars="temperature" Vectors="velocity">
        <DataArray type="Float32" Name="temperature" format="ascii">
1.000000e+00
5.737491e-01
5.745084e-01
5.753464e-01
5.762111e-01
5.770478e-01
5.777726e-01
5.782954e-01
5.785325e-01
5.784397e-01
5.780125e-01
5.772997e-01
5.764315e-01
5.755089e-01
5.745975e-01
5.734734e-01
0.000000e+00
1.000000e+00
5.736941e-01
5.743356e-01
5.750804e-01
5.758388e-01
5.765786e-01
5.772192e-01
5.776704e-01
5.778682e-01
5.778024e-01
5.774144e-01
5.767844e-01
5.760209e-01
5.752052e-01
5.744129e-01
5.734561e-01
0.000000e+00
1.000000e+00
5.735869e-01
5.741349e-01
5.747726e-01
5.754225e-01
5.760496e-01
5.765894e-01
5.769663e-01
5.771238e-01
5.770766e-01
5.767440e-01
5.762174e-01
5.755732e-01
5.748794e-01
5.741971e-01
5.733831e-01
0.000000e+00
1.000000e+00
5.734670e-01
5.739193e-01
5.744379e-01
5.749678e-01
5.754759e-01
5.759103e-01
5.762167e-01
5.763449e-01
5.762843e-01
5.760183e-01
5.755976e-01
5.750809e-01
5.745214e-01
5.739687e-01
5.732886e-01
0.000000e+00
1.000000e+00
5.733461e-01
5.737003e-01
5.740930e-01
5.744969e-01
5.748806e-01
5.752057e-01
5.754302e-01
5.755154e-01
5.754471e-01
5.752523e-01
5.749377e-01
5.745487e-01
5.741309e-01
5.737216e-01
5.731759e-01
0.000000e+00
1.000000e+00
5.732255e-01
5.734778e-01
5.737434e-01
5.740135e-01
5.742689e-01
5.744837e-01
5.746301e-01
5.746819e-01
5.746302e-01
5.744935e-01
5.742847e-01
5.740277e-01
5.737516e-01
5.734826e-01
5.730684e-01
0.000000e+00
1.000000e+00
5.731081e-01
5.732556e-01
5.733954e-01
5.735383e-01
5.736750e-01
5.737879e-01
5.738642e-01
5.738900e-01
5.738622e-01
5.737860e-01
5.736739e-01
5.735378e-01
5.733929e-01
5.732630e-01
5.729856e-01
0.000000e+00
1.000000e+00
5.730079e-01
5.730576e-01
5.730812e-01
5.731071e-01
5.731319e-01
5.731519e-01
5.731667e-01
5.731726e-01
5.731680e-01
5.731533e-01
5.731321e-01
5.731067e-01
5.730805e-01
5.730815e-01
5.728995e-01
0.000000e+00
1.000000e+00
5.729389e-01
5.728902e-01
5.728214e-01
5.727526e-01
5.726870e-01
5.726317e-01
5.725937e-01
5.725793e-01
5.725911e-01
5.726269e-01
5.726813e-01
5.727457e-01
5.728158e-01
5.729105e-01
5.727636e-01
0.000000e+00
1.000000e+00
5.729101e-01
5.727605e-01
5.726202e-01
5.724773e-01
5.723415e-01
5.722273e-01
5.721504e-01
5.721230e-01
5.721500e-01
5.722261e-01
5.723404e-01
5.724762e-01
5.726178e-01
5.727670e-01
5.727214e-01
0.000000e+00
1.000000e+00
5.729049e-01
5.726755e-01
5.724943e-01
5.723050e-01
5.721252e-01
5.719741e-01
5.718722e-01
5.718361e-01
5.718718e-01
5.719728e-01
5.721245e-01
5.723050e-01
5.724925e-01
5.726769e-01
5.728009e-01
0.000000e+00
1.000000e+00
5.729168e-01
5.726369e-01
5.724449e-01
5.722373e-01
5.720403e-01
5.718747e-01
5.717631e-01
5.717237e-01
5.717627e-01
5.718737e-01
5.720403e-01
5.722378e-01
5.724434e-01
5.726470e-01
5.727655e-01
0.000000e+00
1.000000e+00
5.729393e-01
5.726459e-01
5.724689e-01
5.722702e-01
5.720817e-01
5.719232e-01
5.718165e-01
5.717788e-01
5.718160e-01
5.719225e-01
5.720821e-01
5.722709e-01
5.724683e-01
5.726605e-01
5.727267e-01
0.000000e+00
1.000000e+00
5.729868e-01
5.726977e-01
5.725593e-01
5.723940e-01
5.722371e-01
5.721052e-01
5.720165e-01
5.719852e-01
5.720160e-01
5.721049e-01
5.722378e-01
5.723947e-01
5.725589e-01
5.727171e-01
5.728148e-01
0.000000e+00
1.000000e+00
5.730561e-01
5.727823e-01
5.727056e-01
5.725943e-01
5.724886e-01
5.723998e-01
5.723401e-01
5.723191e-01
5.723397e-01
5.723997e-01
5.724893e-01
5.725952e-01
5.727053e-01
5.728114e-01
5.728590e-01
0.000000e+00
1.000000e+00
5.731432e-01
5.728929e-01
5.728956e-01
5.728545e-01
5.728152e-01
5.727823e-01
5.727601e-01
5.727524e-01
5.727599e-01
5.727821e-01
5.728158e-01
5.728560e-01
5.728977e-01
5.729386e-01
5.728613e-01
0.000000e+00
1.000000e+00
5.731976e-01
5.730270e-01
5.731170e-01
5.731575e-01
5.731954e-01
5.732272e-01
5.732487e-01
5.732565e-01
5.732490e-01
5.732274e-01
5.731957e-01
5.731573e-01
5.731171e-01
5.730958e-01
5.728440e-01
0.000000e+00
1.000000e+00
5.738500e-01
5.746453e-01
5.755600e-01
5.764936e-01
5.773972e-01
5.781911e-01
5.787813e-01
5.790547e-01
5.789408e-01
5.785105e-01
5.777495e-01
5.767948e-01
5.757670e-01
5.747434e-01
5.736211e-01
0.000000e+00
1.000000e+00
5.737689e-01
5.745097e-01
5.753426e-01
5.761747e-01
5.769784e-01
5.776793e-01
5.781921e-01
5.784382e-01
5.783536e-01
5.779551e-01
5.772472e-01
5.763726e-01
5.754332e-01
5.745553e-01
5.735548e-01
0.000000e+00
1.000000e+00
5.736646e-01
5.743130e-01
5.750424e-01
5.757844e-01
5.764918e-01
5.770983e-01
5.775212e-01
5.777152e-01
5.776667e-01
5.772801e-01
5.766489e-01
5.758888e-01
5.750852e-01
5.743385e-01
5.734476e-01
0.000000e+00
1.000000e+00
5.735475e-01
5.740975e-01
5.747079e-01
5.753320e-01
5.759286e-01
5.764363e-01
5.767898e-01
5.769530e-01
5.768945e-01
5.765560e-01
5.760427e-01
5.754230e-01
5.747625e-01
5.741417e-01
5.733485e-01
0.000000e+00
1.000000e+00
5.734272e-01
5.738738e-01
5.743571e-01
5.748528e-01
5.753256e-01
5.757290e-01
5.760103e-01
5.761228e-01
5.760433e-01
5.757982e-01
5.753970e-01
5.749090e-01
5.743887e-01
5.739062e-01
5.732382e-01
0.000000e+00
1.000000e+00
5.733048e-01
5.736435e-01
5.739996e-01
5.743649e-01
5.747135e-01
5.750075e-01
5.752076e-01
5.752781e-01
5.752081e-01
5.750304e-01
5.747459e-01
5.743923e-01
5.740140e-01
5.736776e-01
5.731300e-01
0.000000e+00
1.000000e+00
5.731868e-01
5.734151e-01
5.736496e-01
5.738884e-01
5.741143e-01
5.743015e-01
5.744249e-01
5.744658e-01
5.744161e-01
5.742925e-01
5.741116e-01
5.738910e-01
5.736511e-01
5.734473e-01
5.730274e-01
0.000000e+00
1.000000e+00
5.730701e-01
5.732058e-01
5.733217e-01
5.734388e-01
5.735498e-01
5.736430e-01
5.737056e-01
5.737274e-01
5.737041e-01
5.736405e-01
5.735482e-01
5.734383e-01
5.733229e-01
5.732421e-01
5.729628e-01
0.000000e+00
1.000000e+00
5.729867e-01
5.730406e-01
5.730522e-01
5.730678e-01
5.730829e-01
5.730956e-01
5.731038e-01
5.731061e-01
5.731022e-01
5.730928e-01
5.730799e-01
5.730635e-01
5.730483e-01
5.730790e-01
5.728802e-01
0.000000e+00
1.000000e+00
5.729537e-01
5.729089e-01
5.728463e-01
5.727863e-01
5.727291e-01
5.726807e-01
5.726479e-01
5.726357e-01
5.726463e-01
5.726777e-01
5.727246e-01
5.727809e-01
5.728415e-01
5.729223e-01
5.727610e-01
0.000000e+00
1.000000e+00
5.729567e-01
5.728184e-01
5.727104e-01
5.726008e-01
5.724967e-01
5.724090e-01
5.723500e-01
5.723289e-01
5.723497e-01
5.724082e-01
5.724950e-01
5.726002e-01
5.727105e-01
5.728179e-01
5.728673e-01
0.000000e+00
1.000000e+00
5.729674e-01
5.727759e-01
5.726554e-01
5.725256e-01
5.724023e-01
5.722986e-01
5.722287e-01
5.722039e-01
5.722286e-01
5.722977e-01
5.724008e-01
5.725257e-01
5.726566e-01
5.727828e-01
5.728514e-01
0.000000e+00
1.000000e+00
5.730061e-01
5.727813e-01
5.726769e-01
5.725550e-01
5.724393e-01
5.723420e-01
5.722764e-01
5.722533e-01
5.722764e-01
5.723412e-01
5.724383e-01
5.725555e-01
5.726782e-01
5.727978e-01
5.728365e-01
0.000000e+00
1.000000e+00
5.730661e-01
5.728286e-01
5.727668e-01
5.726782e-01
5.725939e-01
5.725231e-01
5.724754e-01
5.724586e-01
5.724754e-01
5.725223e-01
5.725934e-01
5.726789e-01
5.727673e-01
5.728523e-01
5.728783e-01
0.000000e+00
1.000000e+00
5.731479e-01
5.729113e-01
5.729142e-01
5.728798e-01
5.728470e-01
5.728194e-01
5.728008e-01
5.727944e-01
5.728009e-01
5.728188e-01
5.728462e-01
5.728796e-01
5.729148e-01
5.729471e-01
5.729007e-01
0.000000e+00
1.000000e+00
5.731949e-01
5.730181e-01
5.731056e-01
5.731419e-01
5.731763e-01
5.732053e-01
5.732248e-01
5.732317e-01
5.732245e-01
5.732046e-01
5.731765e-01
5.731405e-01
5.731042e-01
5.730708e-01
5.729586e-01
0.000000e+00
1.000000e+00
5.732199e-01
5.731687e-01
5.733273e-01
5.734452e-01
5.735572e-01
5.736518e-01
5.737159e-01
5.737391e-01
5.737163e-01
5.736500e-01
5.735522e-01
5.734421e-01
5.733253e-01
5.732426e-01
5.729396e-01
0.000000e+00
1.000000e+00
5.739085e-01
5.747492e-01
5.757136e-01
5.766976e-01
5.776558e-01
5.785137e-01
5.791656e-01
5.794642e-01
5.793364e-01
5.788971e-01
5.781189e-01
5.771097e-01
5.760045e-01
5.748780e-01
5.736890e-01
0.000000e+00
1.000000e+00
5.738278e-01
5.746402e-01
5.755410e-01
5.764320e-01
5.772858e-01
5.780447e-01
5.786242e-01
5.788995e-01
5.787854e-01
5.783944e-01
5.776504e-01
5.766935e-01
5.756597e-01
5.746856e-01
5.736212e-01
0.000000e+00
1.000000e+00
5.737271e-01
5.744535e-01
5.752613e-01
5.760777e-01
5.768452e-01
5.775008e-01
5.779727e-01
5.781974e-01
5.781488e-01
5.777345e-01
5.770270e-01
5.761764e-01
5.752945e-01
5.744756e-01
5.735189e-01
0.000000e+00
1.000000e+00
5.736151e-01
5.742381e-01
5.749275e-01
5.756322e-01
5.763031e-01
5.768715e-01
5.772635e-01
5.774552e-01
5.773967e-01
5.770068e-01
5.764201e-01
5.757206e-01
5.749848e-01
5.742884e-01
5.734193e-01
0.000000e+00
1.000000e+00
5.734957e-01
5.740129e-01
5.745747e-01
5.751504e-01
5.756999e-01
5.761698e-01
5.764987e-01
5.766341e-01
5.765508e-01
5.762546e-01
5.757842e-01
5.752166e-01
5.746143e-01
5.740519e-01
5.733069e-01
0.000000e+00
1.000000e+00
5.733738e-01
5.737795e-01
5.742113e-01
5.746559e-01
5.750809e-01
5.754417e-01
5.756905e-01
5.757802e-01
5.757015e-01
5.754841e-01
5.751292e-01
5.746955e-01
5.742370e-01
5.738188e-01
5.731948e-01
0.000000e+00
1.000000e+00
5.732534e-01
5.735508e-01
5.738574e-01
5.741729e-01
5.744728e-01
5.747242e-01
5.748934e-01
5.749519e-01
5.748909e-01
5.747343e-01
5.744907e-01
5.741891e-01
5.738674e-01
5.735891e-01
5.730835e-01
0.000000e+00
1.000000e+00
5.731417e-01
5.733392e-01
5.735318e-01
5.737250e-01
5.739073e-01
5.740594e-01
5.741607e-01
5.741953e-01
5.741561e-01
5.740550e-01
5.739068e-01
5.737254e-01
5.735297e-01
5.733705e-01
5.729869e-01
0.000000e+00
1.000000e+00
5.730247e-01
5.731521e-01
5.732412e-01
5.733306e-01
5.734146e-01
5.734852e-01
5.735325e-01
5.735493e-01
5.735318e-01
5.734844e-01
5.734155e-01
5.733333e-01
5.732442e-01
5.731968e-01
5.729276e-01
0.000000e+00
1.000000e+00
5.729676e-01
5.730331e-01
5.730310e-01
5.730380e-01
5.730453e-01
5.730515e-01
5.730554e-01
5.730564e-01
5.730540e-01
5.730490e-01
5.730424e-01
5.730341e-01
5.730251e-01
5.730422e-01
5.728914e-01
0.000000e+00
1.000000e+00
5.729840e-01
5.729401e-01
5.728918e-01
5.728488e-01
5.728075e-01
5.727726e-01
5.727489e-01
5.727401e-01
5.727476e-01
5.727702e-01
5.728042e-01
5.728443e-01
5.728851e-01
5.729413e-01
5.728998e-01
0.000000e+00
1.000000e+00
5.730182e-01
5.728927e-01
5.728300e-01
5.727647e-01
5.727025e-01
5.726501e-01
5.726148e-01
5.726022e-01
5.726145e-01
5.726495e-01
5.727013e-01
5.727629e-01
5.728280e-01
5.728992e-01
5.729035e-01
0.000000e+00
1.000000e+00
5.730597e-01
5.728941e-01
5.728490e-01
5.727908e-01
5.727353e-01
5.726886e-01
5.726572e-01
5.726460e-01
5.726571e-01
5.726882e-01
5.727342e-01
5.727895e-01
5.728484e-01
5.729057e-01
5.728669e-01
0.000000e+00
1.000000e+00
5.731343e-01
5.729390e-01
5.729390e-01
5.729138e-01
5.728897e-01
5.728693e-01
5.728557e-01
5.728508e-01
5.728555e-01
5.728688e-01
5.728884e-01
5.729131e-01
5.729393e-01
5.729586e-01
5.728533e-01
0.000000e+00
1.000000e+00
5.731856e-01
5.730216e-01
5.730878e-01
5.731172e-01
5.731449e-01
5.731682e-01
5.731840e-01
5.731897e-01
5.731842e-01
5.731681e-01
5.731437e-01
5.731153e-01
5.730875e-01
5.730735e-01
5.729088e-01
0.000000e+00
1.000000e+00
5.732264e-01
5.731340e-01
5.732791e-01
5.733804e-01
5.734760e-01
5.735562e-01
5.736101e-01
5.736292e-01
5.736103e-01
5.735591e-01
5.734815e-01
5.733866e-01
5.732870e-01
5.732044e-01
5.729579e-01
0.000000e+00
1.000000e+00
5.732815e-01
5.732848e-01
5.734984e-01
5.736810e-01
5.738554e-01
5.740027e-01
5.741028e-01
5.741395e-01
5.741053e-01
5.740077e-01
5.738559e-01
5.736860e-01
5.735055e-01
5.733414e-01
5.729940e-01
0.000000e+00
1.000000e+00
5.739536e-01
5.748135e-01
5.758108e-01
5.768267e-01
5.778298e-01
5.787378e-01
5.794257e-01
5.797372e-01
5.796098e-01
5.791489e-01
5.783603e-01
5.773247e-01
5.761666e-01
5.749647e-01
5.737386e-01
0.000000e+00
1.000000e+00
5.738727e-01
5.747244e-01
5.756677e-01
5.765924e-01
5.774867e-01
5.782998e-01
5.789300e-01
5.792184e-01
5.790827e-01
5.786893e-01
5.779282e-01
5.769171e-01
5.758077e-01
5.747622e-01
5.736665e-01
0.000000e+00
1.000000e+00
5.737747e-01
5.745487e-01
5.754091e-01
5.762742e-01
5.770810e-01
5.777752e-01
5.782958e-01
5.785491e-01
5.784841e-01
5.780662e-01
5.773115e-01
5.763956e-01
5.754471e-01
5.745639e-01
5.735675e-01
0.000000e+00
1.000000e+00
5.736654e-01
5.743377e-01
5.750827e-01
5.758451e-01
5.765700e-01
5.771813e-01
5.775985e-01
5.778133e-01
5.777582e-01
5.773462e-01
5.767065e-01
5.759495e-01
5.751514e-01
5.743882e-01
5.734755e-01
0.000000e+00
1.000000e+00
5.735480e-01
5.741145e-01
5.747343e-01
5.753695e-01
5.759759e-01
5.764934e-01
5.768551e-01
5.770109e-01
5.769316e-01
5.765951e-01
5.760750e-01
5.754499e-01
5.747841e-01
5.741543e-01
5.733633e-01
0.000000e+00
1.000000e+00
5.734262e-01
5.738818e-01
5.743715e-01
5.748747e-01
5.753547e-01
5.757627e-01
5.760464e-01
5.761506e-01
5.760686e-01
5.758236e-01
5.754181e-01
5.749252e-01
5.744036e-01
5.739210e-01
5.732409e-01
0.000000e+00
1.000000e+00
5.733036e-01
5.736512e-01
5.740129e-01
5.743843e-01
5.747375e-01
5.750350e-01
5.752380e-01
5.753091e-01
5.752396e-01
5.750599e-01
5.747696e-01
5.744097e-01
5.740277e-01
5.736889e-01
5.731318e-01
0.000000e+00
1.000000e+00
5.731899e-01
5.734359e-01
5.736795e-01
5.739262e-01
5.741600e-01
5.743557e-01
5.744873e-01
5.745331e-01
5.744849e-01
5.743607e-01
5.741721e-01
5.739342e-01
5.736805e-01
5.734737e-01
5.730391e-01
0.000000e+00
1.000000e+00
5.730855e-01
5.732385e-01
5.733872e-01
5.735279e-01
5.736606e-01
5.737716e-01
5.738454e-01
5.738712e-01
5.738427e-01
5.737701e-01
5.736645e-01
5.735298e-01
5.733861e-01
5.732756e-01
5.729468e-01
0.000000e+00
1.000000e+00
5.729779e-01
5.731019e-01
5.731537e-01
5.732129e-01
5.732690e-01
5.733152e-01
5.733458e-01
5.733568e-01
5.733456e-01
5.733161e-01
5.732722e-01
5.732201e-01
5.731641e-01
5.731262e-01
5.729147e-01
0.000000e+00
1.000000e+00
5.729666e-01
5.730277e-01
5.730193e-01
5.730195e-01
5.730218e-01
5.730239e-01
5.730252e-01
5.730253e-01
5.730242e-01
5.730227e-01
5.730206e-01
5.730187e-01
5.730160e-01
5.730138e-01
5.729719e-01
0.000000e+00
1.000000e+00
5.730387e-01
5.729783e-01
5.729536e-01
5.729346e-01
5.729154e-01
5.728991e-01
5.728879e-01
5.728837e-01
5.728869e-01
5.728971e-01
5.729122e-01
5.729303e-01
5.729502e-01
5.729631e-01
5.728607e-01
0.000000e+00
1.000000e+00
5.731076e-01
5.729756e-01
5.729705e-01
5.729571e-01
5.729441e-01
5.729332e-01
5.729257e-01
5.729230e-01
5.729254e-01
5.729324e-01
5.729427e-01
5.729544e-01
5.729671e-01
5.729689e-01
5.728361e-01
0.000000e+00
1.000000e+00
5.731631e-01
5.730190e-01
5.730613e-01
5.730809e-01
5.730993e-01
5.731148e-01
5.731252e-01
5.731287e-01
5.731245e-01
5.731134e-01
5.730970e-01
5.730773e-01
5.730586e-01
5.730435e-01
5.728776e-01
0.000000e+00
1.000000e+00
5.732070e-01
5.731141e-01
5.732108e-01
5.732860e-01
5.733570e-01
5.734168e-01
5.734572e-01
5.734715e-01
5.734569e-01
5.734157e-01
5.733544e-01
5.732822e-01
5.732069e-01
5.731885e-01
5.729364e-01
0.000000e+00
1.000000e+00
5.732551e-01
5.732423e-01
5.734068e-01
5.735552e-01
5.736947e-01
5.738107e-01
5.738878e-01
5.739140e-01
5.738847e-01
5.738038e-01
5.736866e-01
5.735513e-01
5.734102e-01
5.733146e-01
5.729758e-01
0.000000e+00
1.000000e+00
5.733268e-01
5.733758e-01
5.736241e-01
5.738554e-01
5.740745e-01
5.742584e-01
5.743828e-01
5.744284e-01
5.743867e-01
5.742677e-01
5.740903e-01
5.738735e-01
5.736413e-01
5.734273e-01
5.730342e-01
0.000000e+00
1.000000e+00
5.739831e-01
5.748330e-01
5.758523e-01
5.768793e-01
5.779072e-01
5.788375e-01
5.795346e-01
5.798526e-01
5.797271e-01
5.792534e-01
5.784658e-01
5.774268e-01
5.762479e-01
5.750072e-01
5.737666e-01
0.000000e+00
1.000000e+00
5.738969e-01
5.747669e-01
5.757309e-01
5.766669e-01
5.775822e-01
5.784271e-01
5.790796e-01
5.793709e-01
5.792242e-01
5.788262e-01
5.780640e-01
5.770280e-01
5.758793e-01
5.747964e-01
5.736835e-01
0.000000e+00
1.000000e+00
5.738010e-01
5.745978e-01
5.754866e-01
5.763753e-01
5.772003e-01
5.779177e-01
5.784669e-01
5.787325e-01
5.786515e-01
5.782379e-01
5.774616e-01
5.765085e-01
5.755250e-01
5.746119e-01
5.735985e-01
0.000000e+00
1.000000e+00
5.736931e-01
5.743912e-01
5.751675e-01
5.759620e-01
5.767148e-01
5.773474e-01
5.777788e-01
5.780034e-01
5.779485e-01
5.775276e-01
5.768580e-01
5.760691e-01
5.752387e-01
5.744419e-01
5.735045e-01
0.000000e+00
1.000000e+00
5.735779e-01
5.741692e-01
5.748202e-01
5.754872e-01
5.761242e-01
5.766667e-01
5.770456e-01
5.772136e-01
5.771372e-01
5.767789e-01
5.762330e-01
5.755758e-01
5.748752e-01
5.742105e-01
5.733886e-01
0.000000e+00
1.000000e+00
5.734552e-01
5.739380e-01
5.744584e-01
5.749921e-01
5.755011e-01
5.759345e-01
5.762377e-01
5.763517e-01
5.762688e-01
5.760085e-01
5.755765e-01
5.750510e-01
5.744942e-01
5.739764e-01
5.732653e-01
0.000000e+00
1.000000e+00
5.733318e-01
5.737047e-01
5.740945e-01
5.744953e-01
5.748765e-01
5.751991e-01
5.754210e-01
5.754992e-01
5.754249e-01
5.752328e-01
5.749179e-01
5.745274e-01
5.741131e-01
5.737403e-01
5.731558e-01
0.000000e+00
1.000000e+00
5.732145e-01
5.734837e-01
5.737541e-01
5.740288e-01
5.742893e-01
5.745082e-01
5.746559e-01
5.747075e-01
5.746543e-01
5.745182e-01
5.743072e-01
5.740419e-01
5.737597e-01
5.735218e-01
5.730716e-01
0.000000e+00
1.000000e+00
5.731176e-01
5.732815e-01
5.734575e-01
5.736224e-01
5.737789e-01
5.739099e-01
5.739970e-01
5.740277e-01
5.739954e-01
5.739134e-01
5.737873e-01
5.736223e-01
5.734543e-01
5.733198e-01
5.730174e-01
0.000000e+00
1.000000e+00
5.730005e-01
5.731378e-01
5.732224e-01
5.733025e-01
5.733820e-01
5.734467e-01
5.734888e-01
5.735032e-01
5.734874e-01
5.734484e-01
5.733808e-01
5.733055e-01
5.732290e-01
5.731654e-01
5.729642e-01
0.000000e+00
1.000000e+00
5.729477e-01
5.730662e-01
5.730726e-01
5.730913e-01
5.731158e-01
5.731356e-01
5.731490e-01
5.731537e-01
5.731496e-01
5.731392e-01
5.731231e-01
5.731073e-01
5.730834e-01
5.730517e-01
5.729644e-01
0.000000e+00
1.000000e+00
5.730258e-01
5.730188e-01
5.730107e-01
5.730130e-01
5.730132e-01
5.730131e-01
5.730130e-01
5.730126e-01
5.730118e-01
5.730107e-01
5.730096e-01
5.730088e-01
5.730105e-01
5.730136e-01
5.729251e-01
0.000000e+00
1.000000e+00
5.731167e-01
5.730155e-01
5.730267e-01
5.730340e-01
5.730407e-01
5.730462e-01
5.730500e-01
5.730513e-01
5.730500e-01
5.730463e-01
5.730406e-01
5.730322e-01
5.730250e-01
5.730320e-01
5.729142e-01
0.000000e+00
1.000000e+00
5.731888e-01
5.730618e-01
5.731200e-01
5.731606e-01
5.731989e-01
5.732313e-01
5.732533e-01
5.732608e-01
5.732522e-01
5.732292e-01
5.731948e-01
5.731539e-01
5.731154e-01
5.731082e-01
5.728705e-01
0.000000e+00
1.000000e+00
5.732203e-01
5.731650e-01
5.732722e-01
5.733720e-01
5.734639e-01
5.735404e-01
5.735913e-01
5.736079e-01
5.735873e-01
5.735318e-01
5.734498e-01
5.733558e-01
5.732612e-01
5.732414e-01
5.729197e-01
0.000000e+00
1.000000e+00
5.732698e-01
5.733024e-01
5.734712e-01
5.736435e-01
5.738059e-01
5.739406e-01
5.740302e-01
5.740606e-01
5.740263e-01
5.739314e-01
5.737965e-01
5.736385e-01
5.734713e-01
5.733694e-01
5.729709e-01
0.000000e+00
1.000000e+00
5.733547e-01
5.734249e-01
5.736933e-01
5.739498e-01
5.741923e-01
5.743957e-01
5.745335e-01
5.745846e-01
5.745380e-01
5.744066e-01
5.742129e-01
5.739727e-01
5.737135e-01
5.734751e-01
5.730560e-01
0.000000e+00
1.000000e+00
5.739750e-01
5.748205e-01
5.758253e-01
5.768456e-01
5.778669e-01
5.787885e-01
5.794767e-01
5.797952e-01
5.796731e-01
5.792018e-01
5.784266e-01
5.773998e-01
5.762269e-01
5.749867e-01
5.737655e-01
0.000000e+00
1.000000e+00
5.738951e-01
5.747590e-01
5.757185e-01
5.766482e-01
5.775595e-01
5.784028e-01
5.790504e-01
5.793402e-01
5.791880e-01
5.787925e-01
5.780393e-01
5.770088e-01
5.758642e-01
5.747857e-01
5.736724e-01
0.000000e+00
1.000000e+00
5.738022e-01
5.745936e-01
5.754840e-01
5.763718e-01
5.771944e-01
5.779099e-01
5.784573e-01
5.787183e-01
5.786360e-01
5.782275e-01
5.774549e-01
5.765033e-01
5.755228e-01
5.746103e-01
5.735939e-01
0.000000e+00
1.000000e+00
5.736951e-01
5.743940e-01
5.751750e-01
5.759713e-01
5.767235e-01
5.773535e-01
5.777841e-01
5.780032e-01
5.779458e-01
5.775240e-01
5.768546e-01
5.760660e-01
5.752368e-01
5.744419e-01
5.734955e-01
0.000000e+00
1.000000e+00
5.735793e-01
5.741740e-01
5.748256e-01
5.754926e-01
5.761289e-01
5.766703e-01
5.770490e-01
5.772155e-01
5.771321e-01
5.767759e-01
5.762304e-01
5.755741e-01
5.748746e-01
5.742109e-01
5.733827e-01
0.000000e+00
1.000000e+00
5.734570e-01
5.739358e-01
5.744531e-01
5.749847e-01
5.754935e-01
5.759287e-01
5.762360e-01
5.763539e-01
5.762689e-01
5.760063e-01
5.755753e-01
5.750515e-01
5.744954e-01
5.739762e-01
5.732676e-01
0.000000e+00
1.000000e+00
5.733326e-01
5.737000e-01
5.740872e-01
5.744869e-01
5.748688e-01
5.751925e-01
5.754144e-01
5.754919e-01
5.754183e-01
5.752262e-01
5.749132e-01
5.745253e-01
5.741116e-01
5.737382e-01
5.731546e-01
0.000000e+00
1.000000e+00
5.732136e-01
5.734791e-01
5.737455e-01
5.740185e-01
5.742768e-01
5.744924e-01
5.746367e-01
5.746863e-01
5.746328e-01
5.744966e-01
5.742889e-01
5.740278e-01
5.737500e-01
5.735123e-01
5.730924e-01
0.000000e+00
1.000000e+00
5.731109e-01
5.732765e-01
5.734439e-01
5.736039e-01
5.737547e-01
5.738807e-01
5.739645e-01
5.739940e-01
5.739611e-01
5.738784e-01
5.737580e-01
5.736029e-01
5.734397e-01
5.733047e-01
5.730478e-01
0.000000e+00
1.000000e+00
5.729920e-01
5.731255e-01
5.731961e-01
5.732708e-01
5.733418e-01
5.734005e-01
5.734396e-01
5.734537e-01
5.734395e-01
5.734020e-01
5.733456e-01
5.732781e-01
5.732071e-01
5.731366e-01
5.730179e-01
0.000000e+00
1.000000e+00
5.729605e-01
5.730511e-01
5.730544e-01
5.730676e-01
5.730823e-01
5.730947e-01
5.731029e-01
5.731053e-01
5.731017e-01
5.730931e-01
5.730807e-01
5.730673e-01
5.730521e-01
5.730340e-01
5.729865e-01
0.000000e+00
1.000000e+00
5.730375e-01
5.730019e-01
5.729858e-01
5.729786e-01
5.729707e-01
5.729637e-01
5.729590e-01
5.729570e-01
5.729581e-01
5.729620e-01
5.729682e-01
5.729752e-01
5.729832e-01
5.729958e-01
5.729389e-01
0.000000e+00
1.000000e+00
5.731140e-01
5.730004e-01
5.730052e-01
5.730046e-01
5.730039e-01
5.730032e-01
5.730027e-01
5.730025e-01
5.730027e-01
5.730031e-01
5.730034e-01
5.730035e-01
5.730031e-01
5.730130e-01
5.729320e-01
0.000000e+00
1.000000e+00
5.731734e-01
5.730495e-01
5.731027e-01
5.731370e-01
5.731693e-01
5.731966e-01
5.732152e-01
5.732217e-01
5.732148e-01
5.731957e-01
5.731673e-01
5.731330e-01
5.730988e-01
5.730862e-01
5.729320e-01
0.000000e+00
1.000000e+00
5.732162e-01
5.731543e-01
5.732592e-01
5.733543e-01
5.734428e-01
5.735160e-01
5.735646e-01
5.735808e-01
5.735618e-01
5.735101e-01
5.734330e-01
5.733414e-01
5.732499e-01
5.732201e-01
5.729428e-01
0.000000e+00
1.000000e+00
5.732777e-01
5.732905e-01
5.734642e-01
5.736342e-01
5.737953e-01
5.739291e-01
5.740177e-01
5.740480e-01
5.740146e-01
5.739209e-01
5.737880e-01
5.736328e-01
5.734676e-01
5.733517e-01
5.729842e-01
0.000000e+00
1.000000e+00
5.733508e-01
5.734193e-01
5.736899e-01
5.739428e-01
5.741846e-01
5.743900e-01
5.745312e-01
5.745857e-01
5.745413e-01
5.744110e-01
5.742163e-01
5.739764e-01
5.737169e-01
5.734756e-01
5.730533e-01
0.000000e+00
1.000000e+00
5.739401e-01
5.747729e-01
5.757400e-01
5.767254e-01
5.777051e-01
5.785894e-01
5.792511e-01
5.795616e-01
5.794424e-01
5.789908e-01
5.782441e-01
5.772422e-01
5.760999e-01
5.749103e-01
5.737317e-01
0.000000e+00
1.000000e+00
5.738656e-01
5.746996e-01
5.756304e-01
5.765357e-01
5.774143e-01
5.782202e-01
5.788365e-01
5.791175e-01
5.789662e-01
5.785812e-01
5.778468e-01
5.768531e-01
5.757573e-01
5.747257e-01
5.736394e-01
0.000000e+00
1.000000e+00
5.737731e-01
5.745337e-01
5.753919e-01
5.762522e-01
5.770505e-01
5.777386e-01
5.782531e-01
5.784938e-01
5.784264e-01
5.780244e-01
5.772811e-01
5.763708e-01
5.754319e-01
5.745560e-01
5.735634e-01
0.000000e+00
1.000000e+00
5.736681e-01
5.743391e-01
5.750883e-01
5.758511e-01
5.765721e-01
5.771766e-01
5.775933e-01
5.777931e-01
5.777369e-01
5.773296e-01
5.766926e-01
5.759387e-01
5.751439e-01
5.743831e-01
5.734631e-01
0.000000e+00
1.000000e+00
5.735533e-01
5.741188e-01
5.747399e-01
5.753735e-01
5.759776e-01
5.764928e-01
5.768554e-01
5.770058e-01
5.769102e-01
5.765828e-01
5.760683e-01
5.754455e-01
5.747817e-01
5.741534e-01
5.733542e-01
0.000000e+00
1.000000e+00
5.734304e-01
5.738777e-01
5.743629e-01
5.748622e-01
5.753409e-01
5.757495e-01
5.760346e-01
5.761391e-01
5.760489e-01
5.758012e-01
5.754029e-01
5.749165e-01
5.743987e-01
5.739181e-01
5.732358e-01
0.000000e+00
1.000000e+00
5.733039e-01
5.736383e-01
5.739915e-01
5.743576e-01
5.747076e-01
5.750022e-01
5.752003e-01
5.752680e-01
5.751970e-01
5.750149e-01
5.747325e-01
5.743832e-01
5.740096e-01
5.736793e-01
5.731277e-01
0.000000e+00
1.000000e+00
5.731842e-01
5.734106e-01
5.736457e-01
5.738824e-01
5.741052e-01
5.742896e-01
5.744113e-01
5.744534e-01
5.744045e-01
5.742812e-01
5.741027e-01
5.738819e-01
5.736437e-01
5.734464e-01
5.730466e-01
0.000000e+00
1.000000e+00
5.730612e-01
5.732035e-01
5.733291e-01
5.734500e-01
5.735641e-01
5.736600e-01
5.737243e-01
5.737478e-01
5.737237e-01
5.736590e-01
5.735650e-01
5.734514e-01
5.733314e-01
5.732259e-01
5.730737e-01
0.000000e+00
1.000000e+00
5.729838e-01
5.730726e-01
5.730953e-01
5.731265e-01
5.731565e-01
5.731816e-01
5.731983e-01
5.732037e-01
5.731967e-01
5.731789e-01
5.731527e-01
5.731226e-01
5.730910e-01
5.730602e-01
5.730449e-01
0.000000e+00
1.000000e+00
5.729749e-01
5.729723e-01
5.729414e-01
5.729166e-01
5.728926e-01
5.728722e-01
5.728582e-01
5.728528e-01
5.728569e-01
5.728699e-01
5.728894e-01
5.729130e-01
5.729393e-01
5.729618e-01
5.728942e-01
0.000000e+00
1.000000e+00
5.730116e-01
5.729250e-01
5.728748e-01
5.728260e-01
5.727795e-01
5.727402e-01
5.727138e-01
5.727043e-01
5.727134e-01
5.727396e-01
5.727787e-01
5.728255e-01
5.728749e-01
5.729197e-01
5.728803e-01
0.000000e+00
1.000000e+00
5.730658e-01
5.729302e-01
5.728993e-01
5.728596e-01
5.728217e-01
5.727898e-01
5.727684e-01
5.727607e-01
5.727683e-01
5.727898e-01
5.728215e-01
5.728597e-01
5.728990e-01
5.729370e-01
5.729042e-01
0.000000e+00
1.000000e+00
5.731377e-01
5.729842e-01
5.730027e-01
5.730007e-01
5.729986e-01
5.729969e-01
5.729959e-01
5.729956e-01
5.729959e-01
5.729969e-01
5.729982e-01
5.729994e-01
5.730003e-01
5.730056e-01
5.729943e-01
0.000000e+00
1.000000e+00
5.731909e-01
5.730859e-01
5.731689e-01
5.732286e-01
5.732849e-01
5.733323e-01
5.733643e-01
5.733757e-01
5.733641e-01
5.733312e-01
5.732819e-01
5.732233e-01
5.731632e-01
5.731225e-01
5.729934e-01
0.000000e+00
1.000000e+00
5.732490e-01
5.732171e-01
5.733820e-01
5.735221e-01
5.736544e-01
5.737645e-01
5.738372e-01
5.738616e-01
5.738333e-01
5.737564e-01
5.736490e-01
5.735232e-01
5.733873e-01
5.732723e-01
5.730103e-01
0.000000e+00
1.000000e+00
5.733264e-01
5.733650e-01
5.736151e-01
5.738392e-01
5.740543e-01
5.742385e-01
5.743664e-01
5.744165e-01
5.743780e-01
5.742609e-01
5.740849e-01
5.738715e-01
5.736404e-01
5.734255e-01
5.730535e-01
0.000000e+00
1.000000e+00
5.738900e-01
5.746714e-01
5.755975e-01
5.765187e-01
5.774248e-01
5.782429e-01
5.788607e-01
5.791551e-01
5.790409e-01
5.786201e-01
5.779186e-01
5.769622e-01
5.758829e-01
5.747825e-01
5.736741e-01
0.000000e+00
1.000000e+00
5.738120e-01
5.745880e-01
5.754675e-01
5.763262e-01
5.771478e-01
5.778841e-01
5.784422e-01
5.787003e-01
5.785690e-01
5.781987e-01
5.774955e-01
5.765685e-01
5.755612e-01
5.746149e-01
5.735890e-01
0.000000e+00
1.000000e+00
5.737206e-01
5.744201e-01
5.752160e-01
5.760166e-01
5.767660e-01
5.774046e-01
5.778652e-01
5.780798e-01
5.780147e-01
5.776324e-01
5.769442e-01
5.761139e-01
5.752535e-01
5.744474e-01
5.735093e-01
0.000000e+00
1.000000e+00
5.736164e-01
5.742196e-01
5.749018e-01
5.755975e-01
5.762593e-01
5.768195e-01
5.772138e-01
5.773832e-01
5.773098e-01
5.769461e-01
5.763728e-01
5.756873e-01
5.749607e-01
5.742667e-01
5.734047e-01
0.000000e+00
1.000000e+00
5.735000e-01
5.740005e-01
5.745577e-01
5.751284e-01
5.756747e-01
5.761415e-01
5.764660e-01
5.765859e-01
5.764815e-01
5.761976e-01
5.757475e-01
5.751931e-01
5.745987e-01
5.740389e-01
5.732952e-01
0.000000e+00
1.000000e+00
5.733745e-01
5.737647e-01
5.741895e-01
5.746266e-01
5.750438e-01
5.753940e-01
5.756291e-01
5.757086e-01
5.756203e-01
5.753982e-01
5.750632e-01
5.746507e-01
5.742061e-01
5.738058e-01
5.731799e-01
0.000000e+00
1.000000e+00
5.732497e-01
5.735189e-01
5.738113e-01
5.741101e-01
5.743922e-01
5.746256e-01
5.747786e-01
5.748307e-01
5.747678e-01
5.746088e-01
5.743818e-01
5.741088e-01
5.738106e-01
5.735658e-01
5.730557e-01
0.000000e+00
1.000000e+00
5.731203e-01
5.732821e-01
5.734442e-01
5.736069e-01
5.737609e-01
5.738899e-01
5.739760e-01
5.740072e-01
5.739751e-01
5.738860e-01
5.737576e-01
5.736064e-01
5.734449e-01
5.733193e-01
5.730464e-01
0.000000e+00
1.000000e+00
5.730171e-01
5.730915e-01
5.731349e-01
5.731814e-01
5.732256e-01
5.732627e-01
5.732872e-01
5.732955e-01
5.732857e-01
5.732590e-01
5.732187e-01
5.731774e-01
5.731318e-01
5.730929e-01
5.730308e-01
0.000000e+00
1.000000e+00
5.729522e-01
5.729389e-01
5.728957e-01
5.728540e-01
5.728140e-01
5.727802e-01
5.727571e-01
5.727484e-01
5.727558e-01
5.727784e-01
5.728074e-01
5.728477e-01
5.728904e-01
5.729333e-01
5.728747e-01
0.000000e+00
1.000000e+00
5.729404e-01
5.728386e-01
5.727390e-01
5.726400e-01
5.725459e-01
5.724666e-01
5.724132e-01
5.723940e-01
5.724126e-01
5.724661e-01
5.725468e-01
5.726397e-01
5.727368e-01
5.728285e-01
5.728362e-01
0.000000e+00
1.000000e+00
5.729632e-01
5.727944e-01
5.726782e-01
5.725569e-01
5.724416e-01
5.723446e-01
5.722792e-01
5.722559e-01
5.722788e-01
5.723439e-01
5.724409e-01
5.725548e-01
5.726767e-01
5.727813e-01
5.727868e-01
0.000000e+00
1.000000e+00
5.730022e-01
5.728052e-01
5.727088e-01
5.725988e-01
5.724942e-01
5.724063e-01
5.723470e-01
5.723260e-01
5.723468e-01
5.724059e-01
5.724936e-01
5.725976e-01
5.727087e-01
5.727953e-01
5.727543e-01
0.000000e+00
1.000000e+00
5.730701e-01
5.728672e-01
5.728203e-01
5.727512e-01
5.726856e-01
5.726304e-01
5.725933e-01
5.725801e-01
5.725933e-01
5.726304e-01
5.726852e-01
5.727506e-01
5.728203e-01
5.728786e-01
5.728851e-01
0.000000e+00
1.000000e+00
5.731652e-01
5.729657e-01
5.729974e-01
5.729936e-01
5.729897e-01
5.729864e-01
5.729843e-01
5.729837e-01
5.729845e-01
5.729864e-01
5.729887e-01
5.729919e-01
5.729958e-01
5.729993e-01
5.730156e-01
0.000000e+00
1.000000e+00
5.732156e-01
5.730945e-01
5.732195e-01
5.732989e-01
5.733742e-01
5.734376e-01
5.734803e-01