<?xml version="1.0"?>
<VTKFile type="StructuredGrid" version="0.1">
  <StructuredGrid WholeExtent="0 16 0 16 0 16">
    <Piece Extent="0 16 0 16 0 16">
      <PointData Scalars="temperature" Vectors="velocity">
        <DataArray type="Float32" Name="temperature" format="ascii">
1.000000e+00
5.818524e-01
5.881375e-01
5.972125e-01
6.061536e-01
6.146452e-01
6.218028e-01
6.266646e-01
6.284638e-01
6.268888e-01
6.221925e-01
6.152049e-01
6.066646e-01
5.976015e-01
5.887196e-01
5.795996e-01
0.000000e+00
1.000000e+00
5.808006e-01
5.863944e-01
5.943589e-01
6.022411e-01
6.097250e-01
6.160295e-01
6.203058e-01
6.218825e-01
6.204970e-01
6.163578e-01
6.102270e-01
6.027060e-01
5.947341e-01
5.868902e-01
5.789272e-01
0.000000e+00
1.000000e+00
5.795535e-01
5.844223e-01
5.911437e-01
5.978358e-01
6.041887e-01
6.095375e-01
6.131588e-01
6.144828e-01
6.133053e-01
6.097980e-01
6.045866e-01
5.981962e-01
5.914551e-01
5.847985e-01
5.780167e-01
0.000000e+00
1.000000e+00
5.782246e-01
5.822540e-01
5.876523e-01
5.930548e-01
5.981822e-01
6.024968e-01
6.054128e-01
6.064666e-01
6.055051e-01
6.026968e-01
5.984895e-01
5.933476e-01
5.879373e-01
5.825580e-01
5.770141e-01
0.000000e+00
1.000000e+00
5.769014e-01
5.799664e-01
5.840039e-01
5.880608e-01
5.919101e-01
5.951477e-01
5.973323e-01
5.981119e-01
5.973697e-01
5.952796e-01
5.921327e-01
5.882940e-01
5.842676e-01
5.802187e-01
5.759210e-01
0.000000e+00
1.000000e+00
5.756214e-01
5.776654e-01
5.803513e-01
5.830615e-01
5.856327e-01
5.877950e-01
5.892521e-01
5.897664e-01
5.892508e-01
5.878446e-01
5.857654e-01
5.832297e-01
5.805912e-01
5.778791e-01
5.748300e-01
0.000000e+00
1.000000e+00
5.744285e-01
5.754627e-01
5.768678e-01
5.782927e-01
5.796445e-01
5.807806e-01
5.815451e-01
5.818119e-01
5.815325e-01
5.807705e-01
5.796835e-01
5.783834e-01
5.770671e-01
5.756453e-01
5.737552e-01
0.000000e+00
1.000000e+00
5.733675e-01
5.734713e-01
5.737300e-01
5.739959e-01
5.742483e-01
5.744604e-01
5.746028e-01
5.746510e-01
5.745964e-01
5.744492e-01
5.742646e-01
5.740492e-01
5.738698e-01
5.736244e-01
5.727874e-01
0.000000e+00
1.000000e+00
5.725222e-01
5.717958e-01
5.711025e-01
5.703984e-01
5.697314e-01
5.691717e-01
5.687958e-01
5.686635e-01
5.687992e-01
5.691822e-01
5.697776e-01
5.704554e-01
5.712180e-01
5.719437e-01
5.719369e-01
0.000000e+00
1.000000e+00
5.718562e-01
5.705313e-01
5.691247e-01
5.676891e-01
5.663286e-01
5.651868e-01
5.644198e-01
5.641518e-01
5.644311e-01
5.652152e-01
5.663865e-01
5.677498e-01
5.692250e-01
5.706586e-01
5.713889e-01
0.000000e+00
1.000000e+00
5.714295e-01
5.697326e-01
5.678720e-01
5.659738e-01
5.641749e-01
5.626653e-01
5.616515e-01
5.612983e-01
5.616706e-01
5.627092e-01
5.642403e-01
5.660458e-01
5.679596e-01
5.697996e-01
5.713723e-01
0.000000e+00
1.000000e+00
5.712907e-01
5.694136e-01
5.673744e-01
5.652931e-01
5.633207e-01
5.616656e-01
5.605539e-01
5.601667e-01
5.605757e-01
5.617155e-01
5.633918e-01
5.653768e-01
5.674597e-01
5.694748e-01
5.712401e-01
0.000000e+00
1.000000e+00
5.713145e-01
5.695638e-01
5.676085e-01
5.656142e-01
5.637244e-01
5.621385e-01
5.610732e-01
5.607021e-01
5.610943e-01
5.621878e-01
5.638002e-01
5.657128e-01
5.677062e-01
5.696444e-01
5.710566e-01
0.000000e+00
1.000000e+00
5.715748e-01
5.701400e-01
5.685042e-01
5.668410e-01
5.652651e-01
5.639427e-01
5.630543e-01
5.627447e-01
5.630715e-01
5.639849e-01
5.653432e-01
5.669608e-01
5.686250e-01
5.702314e-01
5.714602e-01
0.000000e+00
1.000000e+00
5.720434e-01
5.710714e-01
5.699575e-01
5.688312e-01
5.677642e-01
5.668692e-01
5.662679e-01
5.660579e-01
5.662782e-01
5.668967e-01
5.678342e-01
5.689768e-01
5.701053e-01
5.711913e-01
5.719023e-01
0.000000e+00
1.000000e+00
5.726777e-01
5.722771e-01
5.718468e-01
5.714182e-01
5.710129e-01
5.706736e-01
5.704460e-01
5.703661e-01
5.704482e-01
5.706815e-01
5.710559e-01
5.715730e-01
5.720135e-01
5.724325e-01
5.724081e-01
0.000000e+00
1.000000e+00
5.734254e-01
5.736767e-01
5.740467e-01
5.744308e-01
5.747959e-01
5.751037e-01
5.753118e-01
5.753850e-01
5.753093e-01
5.750982e-01
5.748063e-01
5.745589e-01
5.742508e-01
5.738773e-01
5.728680e-01
0.000000e+00
1.000000e+00
5.829976e-01
5.893205e-01
5.994832e-01
6.092792e-01
6.185805e-01
6.264254e-01
6.317610e-01
6.337406e-01
6.320002e-01
6.268488e-01
6.192041e-01
6.098377e-01
5.998744e-01
5.901348e-01
5.805107e-01
0.000000e+00
1.000000e+00
5.819904e-01
5.876862e-01
5.967875e-01
6.055830e-01
6.139334e-01
6.209740e-01
6.257595e-01
6.275332e-01
6.259698e-01
6.213349e-01
6.145333e-01
6.061400e-01
5.972192e-01
5.884444e-01
5.798135e-01
0.000000e+00
1.000000e+00
5.806841e-01
5.858847e-01
5.936939e-01
6.013381e-01
6.085961e-01
6.147125e-01
6.188647e-01
6.203962e-01
6.190403e-01
6.150123e-01
6.090953e-01
6.017825e-01
5.940599e-01
5.864376e-01
5.788318e-01
0.000000e+00
1.000000e+00
5.792964e-01
5.838294e-01
5.902752e-01
5.966501e-01
6.027021e-01
6.077990e-01
6.112537e-01
6.125199e-01
6.113900e-01
6.080403e-01
6.030984e-01
5.970101e-01
5.905988e-01
5.842384e-01
5.778035e-01
0.000000e+00
1.000000e+00
5.779084e-01
5.815953e-01
5.866462e-01
5.916781e-01
5.964539e-01
6.004731e-01
6.031920e-01
6.041796e-01
6.032856e-01
6.006556e-01
5.967519e-01
5.919654e-01
5.869366e-01
5.819081e-01
5.766920e-01
0.000000e+00
1.000000e+00
5.765677e-01
5.792957e-01
5.829616e-01
5.866335e-01
5.901172e-01
5.930472e-01
5.950251e-01
5.957345e-01
5.950712e-01
5.931645e-01
5.903210e-01
5.868540e-01
5.832195e-01
5.795408e-01
5.755806e-01
0.000000e+00
1.000000e+00
5.753261e-01
5.770587e-01
5.794063e-01
5.817668e-01
5.840059e-01
5.858884e-01
5.871568e-01
5.876051e-01
5.871620e-01
5.859315e-01
5.841162e-01
5.819134e-01
5.796319e-01
5.772590e-01
5.744994e-01
0.000000e+00
1.000000e+00
5.741982e-01
5.750186e-01
5.761731e-01
5.773402e-01
5.784472e-01
5.793773e-01
5.800031e-01
5.802220e-01
5.799949e-01
5.793751e-01
5.784787e-01
5.774048e-01
5.763370e-01
5.751728e-01
5.735163e-01
0.000000e+00
1.000000e+00
5.732918e-01
5.732848e-01
5.734394e-01
5.735983e-01
5.737496e-01
5.738772e-01
5.739633e-01
5.739926e-01
5.739591e-01
5.738712e-01
5.737604e-01
5.736307e-01
5.735420e-01
5.734072e-01
5.726293e-01
0.000000e+00
1.000000e+00
5.726009e-01
5.719608e-01
5.713664e-01
5.707587e-01
5.701829e-01
5.696995e-01
5.693743e-01
5.692593e-01
5.693739e-01
5.697021e-01
5.702063e-01
5.707876e-01
5.714317e-01
5.720665e-01
5.720461e-01
0.000000e+00
1.000000e+00
5.721840e-01
5.711097e-01
5.700368e-01
5.689385e-01
5.678977e-01
5.670241e-01
5.664369e-01
5.662314e-01
5.664446e-01
5.670433e-01
5.679357e-01
5.689786e-01
5.700893e-01
5.711754e-01
5.720377e-01
0.000000e+00
1.000000e+00
5.719580e-01
5.707584e-01
5.694888e-01
5.681880e-01
5.669552e-01
5.659202e-01
5.652245e-01
5.649814e-01
5.652358e-01
5.659481e-01
5.670026e-01
5.682448e-01
5.695459e-01
5.708217e-01
5.718897e-01
0.000000e+00
1.000000e+00
5.719781e-01
5.708948e-01
5.696967e-01
5.684731e-01
5.673135e-01
5.663401e-01
5.656857e-01
5.654569e-01
5.656962e-01
5.663672e-01
5.673643e-01
5.685496e-01
5.697695e-01
5.709718e-01
5.717291e-01
0.000000e+00
1.000000e+00
5.722632e-01
5.714677e-01
5.705871e-01
5.696926e-01
5.688450e-01
5.681336e-01
5.676552e-01
5.674876e-01
5.676616e-01
5.681519e-01
5.688911e-01
5.697911e-01
5.706816e-01
5.715564e-01
5.721164e-01
0.000000e+00
1.000000e+00
5.727507e-01
5.724022e-01
5.720485e-01
5.716938e-01
5.713579e-01
5.710764e-01
5.708871e-01
5.708203e-01
5.708878e-01
5.710810e-01
5.713866e-01
5.718030e-01
5.721680e-01
5.725174e-01
5.725316e-01
0.000000e+00
1.000000e+00
5.734112e-01
5.736126e-01
5.739509e-01
5.742991e-01
5.746297e-01
5.749080e-01
5.750956e-01
5.751613e-01
5.750922e-01
5.749017e-01
5.746362e-01
5.743900e-01
5.741088e-01
5.737650e-01
5.731054e-01
0.000000e+00
1.000000e+00
5.741673e-01
5.750148e-01
5.761615e-01
5.773266e-01
5.784321e-01
5.793618e-01
5.799884e-01
5.802100e-01
5.799864e-01
5.793563e-01
5.784345e-01
5.774185e-01
5.763804e-01
5.752180e-01
5.735530e-01
0.000000e+00
1.000000e+00
5.838122e-01
5.900292e-01
6.013025e-01
6.117776e-01
6.217168e-01
6.301032e-01
6.358120e-01
6.379301e-01
6.360439e-01
6.305673e-01
6.224043e-01
6.123881e-01
6.016933e-01
5.912755e-01
5.810949e-01
0.000000e+00
1.000000e+00
5.827976e-01
5.885640e-01
5.987781e-01
6.083160e-01
6.173650e-01
6.249973e-01
6.301912e-01
6.321167e-01
6.303866e-01
6.254058e-01
6.180263e-01
6.089169e-01
5.992109e-01
5.897011e-01
5.804447e-01
0.000000e+00
1.000000e+00
5.815678e-01
5.869616e-01
5.958086e-01
6.042409e-01
6.122430e-01
6.189897e-01
6.235774e-01
6.252740e-01
6.237442e-01
6.193422e-01
6.128095e-01
6.047331e-01
5.961803e-01
5.877782e-01
5.794910e-01
0.000000e+00
1.000000e+00
5.802121e-01
5.850442e-01
5.924650e-01
5.996541e-01
6.064780e-01
6.122281e-01
6.161338e-01
6.175753e-01
6.162738e-01
6.125174e-01
6.069395e-01
6.000550e-01
5.927910e-01
5.856272e-01
5.784717e-01
0.000000e+00
1.000000e+00
5.788214e-01
5.828832e-01
5.888626e-01
5.947157e-01
6.002717e-01
6.049503e-01
6.081229e-01
6.092898e-01
6.082348e-01
6.051711e-01
6.006318e-01
5.950376e-01
5.891506e-01
5.833131e-01
5.773669e-01
0.000000e+00
1.000000e+00
5.774357e-01
5.806131e-01
5.851588e-01
5.896422e-01
5.938969e-01
5.974771e-01
5.998996e-01
6.007845e-01
5.999756e-01
5.976319e-01
5.941600e-01
5.898887e-01
5.854050e-01
5.809296e-01
5.762422e-01
0.000000e+00
1.000000e+00
5.761249e-01
5.783717e-01
5.815447e-01
5.846934e-01
5.876803e-01
5.901920e-01
5.918882e-01
5.925016e-01
5.919273e-01
5.902859e-01
5.878517e-01
5.848683e-01
5.817499e-01
5.786027e-01
5.751395e-01
0.000000e+00
1.000000e+00
5.749305e-01
5.762992e-01
5.782280e-01
5.801522e-01
5.819769e-01
5.835105e-01
5.845444e-01
5.849143e-01
5.845557e-01
5.835441e-01
5.820574e-01
5.802469e-01
5.783906e-01
5.764697e-01
5.741434e-01
0.000000e+00
1.000000e+00
5.739740e-01
5.745220e-01
5.753976e-01
5.762782e-01
5.771134e-01
5.778158e-01
5.782896e-01
5.784579e-01
5.782903e-01
5.778208e-01
5.771330e-01
5.763074e-01
5.754958e-01
5.746411e-01
5.732473e-01
0.000000e+00
1.000000e+00
5.732515e-01
5.731444e-01
5.732353e-01
5.733177e-01
5.733961e-01
5.734622e-01
5.735066e-01
5.735212e-01
5.735012e-01
5.734527e-01
5.733886e-01
5.733174e-01
5.732780e-01
5.732334e-01
5.726250e-01
0.000000e+00
1.000000e+00
5.727615e-01
5.722485e-01
5.718356e-01
5.714007e-01
5.709886e-01
5.706423e-01
5.704093e-01
5.703271e-01
5.704094e-01
5.706435e-01
5.709964e-01
5.714076e-01
5.718539e-01
5.723094e-01
5.725233e-01
0.000000e+00
1.000000e+00
5.724938e-01
5.718702e-01
5.712388e-01
5.705838e-01
5.699630e-01
5.694417e-01
5.690911e-01
5.689683e-01
5.690958e-01
5.694537e-01
5.699879e-01
5.706130e-01
5.712594e-01
5.719301e-01
5.723378e-01
0.000000e+00
1.000000e+00
5.725345e-01
5.719949e-01
5.714242e-01
5.708383e-01
5.702830e-01
5.698169e-01
5.695033e-01
5.693935e-01
5.695074e-01
5.698283e-01
5.703098e-01
5.708901e-01
5.714624e-01
5.720606e-01
5.722482e-01
0.000000e+00
1.000000e+00
5.728333e-01
5.725657e-01
5.723127e-01
5.720551e-01
5.718110e-01
5.716062e-01
5.714684e-01
5.714196e-01
5.714686e-01
5.716093e-01
5.718282e-01
5.721150e-01
5.723721e-01
5.726445e-01
5.725496e-01
0.000000e+00
1.000000e+00
5.733388e-01
5.735048e-01
5.737848e-01
5.740709e-01
5.743424e-01
5.745707e-01
5.747244e-01
5.747778e-01
5.747208e-01
5.745646e-01
5.743443e-01
5.741249e-01
5.738853e-01
5.736153e-01
5.729382e-01
0.000000e+00
1.000000e+00
5.740214e-01
5.747212e-01
5.757021e-01
5.766969e-01
5.776405e-01
5.784338e-01
5.789683e-01
5.791570e-01
5.789651e-01
5.784263e-01
5.776364e-01
5.767588e-01
5.758654e-01
5.748767e-01
5.735444e-01
0.000000e+00
1.000000e+00
5.747880e-01
5.761291e-01
5.779252e-01
5.797414e-01
5.814643e-01
5.829130e-01
5.838898e-01
5.842364e-01
5.838910e-01
5.829130e-01
5.814879e-01
5.798679e-01
5.781471e-01
5.763298e-01
5.740942e-01
0.000000e+00
1.000000e+00
5.842099e-01
5.906470e-01
6.025386e-01
6.134627e-01
6.238274e-01
6.325762e-01
6.385372e-01
6.407452e-01
6.387637e-01
6.330769e-01
6.245749e-01
6.141272e-01
6.029271e-01
5.920287e-01
5.814907e-01
0.000000e+00
1.000000e+00
5.833500e-01
5.892104e-01
6.001691e-01
6.102202e-01
6.197552e-01
6.278012e-01
6.332820e-01
6.353134e-01
6.334679e-01
6.282545e-01
6.204673e-01
6.108576e-01
6.005970e-01
5.905596e-01
5.808599e-01
0.000000e+00
1.000000e+00
5.822902e-01
5.876494e-01
5.973177e-01
6.063146e-01
6.148499e-01
6.220487e-01
6.269492e-01
6.287654e-01
6.271059e-01
6.224474e-01
6.154713e-01
6.068533e-01
5.977069e-01
5.887320e-01
5.799576e-01
0.000000e+00
1.000000e+00
5.810177e-01
5.858345e-01
5.940524e-01
6.018365e-01
6.092232e-01
6.154497e-01
6.196844e-01
6.212526e-01
6.198161e-01
6.157863e-01
6.097356e-01
6.022756e-01
5.943920e-01
5.866305e-01
5.789553e-01
0.000000e+00
1.000000e+00
5.796324e-01
5.837448e-01
5.904827e-01
5.969414e-01
6.030714e-01
6.082354e-01
6.117428e-01
6.130393e-01
6.118502e-01
6.085049e-01
6.034764e-01
5.972949e-01
5.907817e-01
5.843369e-01
5.778657e-01
0.000000e+00
1.000000e+00
5.781849e-01
5.815153e-01
5.867676e-01
5.918492e-01
5.966722e-01
6.007325e-01
6.034854e-01
6.044985e-01
6.035679e-01
6.009304e-01
5.969759e-01
5.921222e-01
5.870211e-01
5.819454e-01
5.767342e-01
0.000000e+00
1.000000e+00
5.767710e-01
5.792841e-01
5.831057e-01
5.868325e-01
5.903689e-01
5.933443e-01
5.953575e-01
5.960914e-01
5.954105e-01
5.934679e-01
5.905785e-01
5.870291e-01
5.833097e-01
5.795832e-01
5.756114e-01
0.000000e+00
1.000000e+00
5.754806e-01
5.772006e-01
5.797174e-01
5.821917e-01
5.845389e-01
5.865124e-01
5.878450e-01
5.883244e-01
5.878668e-01
5.865679e-01
5.846573e-01
5.823111e-01
5.798737e-01
5.773954e-01
5.745975e-01
0.000000e+00
1.000000e+00
5.744677e-01
5.753847e-01
5.768081e-01
5.782084e-01
5.795368e-01
5.806535e-01
5.814068e-01
5.816753e-01
5.814117e-01
5.806701e-01
5.795824e-01
5.782535e-01
5.769098e-01
5.755180e-01
5.737123e-01
0.000000e+00
1.000000e+00
5.736851e-01
5.739665e-01
5.745671e-01
5.751400e-01
5.756838e-01
5.761408e-01
5.764484e-01
5.765559e-01
5.764436e-01
5.761336e-01
5.756752e-01
5.751311e-01
5.746010e-01
5.740615e-01
5.730739e-01
0.000000e+00
1.000000e+00
5.731410e-01
5.730437e-01
5.731034e-01
5.731364e-01
5.731676e-01
5.731936e-01
5.732110e-01
5.732168e-01
5.732090e-01
5.731892e-01
5.731591e-01
5.731251e-01
5.731057e-01
5.731027e-01
5.728745e-01
0.000000e+00
1.000000e+00
5.728931e-01
5.726481e-01
5.724681e-01
5.722675e-01
5.720774e-01
5.719177e-01
5.718104e-01
5.717728e-01
5.718120e-01
5.719218e-01
5.720851e-01
5.722727e-01
5.724642e-01
5.726965e-01
5.726220e-01
0.000000e+00
1.000000e+00
5.729378e-01
5.727667e-01
5.726410e-01
5.725045e-01
5.723751e-01
5.722666e-01
5.721936e-01
5.721681e-01
5.721947e-01
5.722702e-01
5.723850e-01
5.725233e-01
5.726499e-01
5.728122e-01
5.726218e-01
0.000000e+00
1.000000e+00
5.732440e-01
5.733418e-01
5.735364e-01
5.737305e-01
5.739146e-01
5.740694e-01
5.741735e-01
5.742097e-01
5.741713e-01
5.740661e-01
5.739158e-01
5.737517e-01
5.735751e-01
5.734103e-01
5.728428e-01
0.000000e+00
1.000000e+00
5.737642e-01
5.742916e-01
5.750275e-01
5.757725e-01
5.764791e-01
5.770729e-01
5.774727e-01
5.776133e-01
5.774689e-01
5.770645e-01
5.764698e-01
5.758001e-01
5.751215e-01
5.743980e-01
5.732907e-01
0.000000e+00
1.000000e+00
5.744504e-01
5.755222e-01
5.769684e-01
5.784307e-01
5.798176e-01
5.809835e-01
5.817693e-01
5.820475e-01
5.817678e-01
5.809780e-01
5.798188e-01
5.785150e-01
5.771354e-01
5.756730e-01
5.739047e-01
0.000000e+00
1.000000e+00
5.752382e-01
5.769429e-01
5.792134e-01
5.815048e-01
5.836783e-01
5.855058e-01
5.867384e-01
5.871768e-01
5.867431e-01
5.855147e-01
5.837334e-01
5.816678e-01
5.794224e-01
5.771335e-01
5.744815e-01
0.000000e+00
1.000000e+00
5.843077e-01
5.910339e-01
6.030577e-01
6.141831e-01
6.247357e-01
6.336412e-01
6.397081e-01
6.419560e-01
6.399465e-01
6.341585e-01
6.255290e-01
6.149022e-01
6.034711e-01
5.923545e-01
5.816639e-01
0.000000e+00
1.000000e+00
5.835963e-01
5.897581e-01
6.008389e-01
6.111435e-01
6.209164e-01
6.291610e-01
6.347746e-01
6.368502e-01
6.349756e-01
6.296349e-01
6.216561e-01
6.117986e-01
6.012650e-01
5.909698e-01
5.810464e-01
0.000000e+00
1.000000e+00
5.824673e-01
5.883338e-01
5.981085e-01
6.073931e-01
6.162026e-01
6.236329e-01
6.286905e-01
6.305592e-01
6.288606e-01
6.240543e-01
6.168544e-01
6.079559e-01
5.985027e-01
5.892288e-01
5.801877e-01
0.000000e+00
1.000000e+00
5.811496e-01
5.865279e-01
5.949168e-01
6.030137e-01
6.106990e-01
6.171788e-01
6.215864e-01
6.232126e-01
6.217311e-01
6.175389e-01
6.112407e-01
6.034725e-01
5.952569e-01
5.871723e-01
5.792083e-01
0.000000e+00
1.000000e+00
5.798299e-01
5.843994e-01
5.913756e-01
5.981595e-01
6.045991e-01
6.100250e-01
6.137110e-01
6.150677e-01
6.138312e-01
6.103172e-01
6.050281e-01
5.985290e-01
5.916760e-01
5.848979e-01
5.781307e-01
0.000000e+00
1.000000e+00
5.784258e-01
5.821328e-01
5.876503e-01
5.930545e-01
5.981836e-01
6.025018e-01
6.054294e-01
6.065022e-01
6.055236e-01
6.027197e-01
5.985033e-01
5.933376e-01
5.879023e-01
5.824985e-01
5.769884e-01
0.000000e+00
1.000000e+00
5.770273e-01
5.798497e-01
5.839424e-01
5.879762e-01
5.918032e-01
5.950228e-01
5.972011e-01
5.979938e-01
5.972656e-01
5.951669e-01
5.920241e-01
5.881809e-01
5.841463e-01
5.801104e-01
5.758530e-01
0.000000e+00
1.000000e+00
5.757380e-01
5.777033e-01
5.804843e-01
5.832412e-01
5.858560e-01
5.880545e-01
5.895393e-01
5.900745e-01
5.895724e-01
5.881302e-01
5.859891e-01
5.833741e-01
5.806393e-01
5.778758e-01
5.748836e-01
0.000000e+00
1.000000e+00
5.747090e-01
5.758361e-01
5.774971e-01
5.791530e-01
5.807237e-01
5.820443e-01
5.829356e-01
5.832553e-01
5.829494e-01
5.820749e-01
5.807882e-01
5.792230e-01
5.776157e-01
5.759495e-01
5.740541e-01
0.000000e+00
1.000000e+00
5.739351e-01
5.743759e-01
5.751885e-01
5.759922e-01
5.767548e-01
5.773957e-01
5.778274e-01
5.779798e-01
5.778265e-01
5.773970e-01
5.767623e-01
5.759982e-01
5.752368e-01
5.744427e-01
5.733788e-01
0.000000e+00
1.000000e+00
5.733861e-01
5.734187e-01
5.736848e-01
5.739319e-01
5.741661e-01
5.743626e-01
5.744948e-01
5.745410e-01
5.744921e-01
5.743563e-01
5.741541e-01
5.739173e-01
5.736869e-01
5.734488e-01
5.730492e-01
0.000000e+00
1.000000e+00
5.731178e-01
5.730051e-01
5.730293e-01
5.730352e-01
5.730408e-01
5.730454e-01
5.730486e-01
5.730498e-01
5.730487e-01
5.730451e-01
5.730384e-01
5.730289e-01
5.730195e-01
5.730373e-01
5.728559e-01
0.000000e+00
1.000000e+00
5.731394e-01
5.731226e-01
5.732034e-01
5.732740e-01
5.733409e-01
5.733970e-01
5.734349e-01
5.734482e-01
5.734349e-01
5.733972e-01
5.733413e-01
5.732735e-01
5.732041e-01
5.731559e-01
5.728807e-01
0.000000e+00
1.000000e+00
5.734484e-01
5.737105e-01
5.741193e-01
5.745284e-01
5.749163e-01
5.752422e-01
5.754614e-01
5.755382e-01
5.754588e-01
5.752371e-01
5.749105e-01
5.745301e-01
5.741543e-01
5.737757e-01
5.729815e-01
0.000000e+00
1.000000e+00
5.739729e-01
5.746820e-01
5.756442e-01
5.766168e-01
5.775392e-01
5.783144e-01
5.788364e-01
5.790205e-01
5.788328e-01
5.783050e-01
5.775245e-01
5.766421e-01
5.757449e-01
5.747830e-01
5.734192e-01
0.000000e+00
1.000000e+00
5.746633e-01
5.759382e-01
5.776244e-01
5.793285e-01
5.809448e-01
5.823034e-01
5.832190e-01
5.835434e-01
5.832180e-01
5.822988e-01
5.809511e-01
5.794323e-01
5.778066e-01
5.760801e-01
5.740452e-01
0.000000e+00
1.000000e+00
5.754816e-01
5.773815e-01
5.799078e-01
5.824555e-01
5.848721e-01
5.869039e-01
5.882746e-01
5.887629e-01
5.882827e-01
5.869218e-01
5.849420e-01
5.826321e-01
5.801138e-01
5.775603e-01
5.746854e-01
0.000000e+00
1.000000e+00
5.842131e-01
5.911546e-01
6.028023e-01
6.138394e-01
6.243131e-01
6.331505e-01
6.391681e-01
6.414050e-01
6.394307e-01
6.336650e-01
6.251287e-01
6.145766e-01
6.032293e-01
5.922384e-01
5.816211e-01
0.000000e+00
1.000000e+00
5.834503e-01
5.899560e-01
6.006962e-01
6.109509e-01
6.206828e-01
6.288913e-01
6.344755e-01
6.365400e-01
6.347067e-01
6.293684e-01
6.214320e-01
6.116060e-01
6.011224e-01
5.909065e-01
5.810020e-01
0.000000e+00
1.000000e+00
5.822595e-01
5.884899e-01
5.980541e-01
6.073205e-01
6.161171e-01
6.235341e-01
6.285772e-01
6.304361e-01
6.287781e-01
6.239601e-01
6.167806e-01
6.078974e-01
5.984638e-01
5.892209e-01
5.801806e-01
0.000000e+00
1.000000e+00
5.809944e-01
5.866404e-01
5.949208e-01
6.030200e-01
6.107080e-01
6.171875e-01
6.215895e-01
6.232070e-01
6.217607e-01
6.175518e-01
6.112567e-01
6.034874e-01
5.952727e-01
5.871964e-01
5.792171e-01
0.000000e+00
1.000000e+00
5.797189e-01
5.844909e-01
5.913991e-01
5.981915e-01
6.046388e-01
6.100693e-01
6.137538e-01
6.151023e-01
6.138954e-01
6.103659e-01
6.050729e-01
5.985694e-01
5.917120e-01
5.849337e-01
5.781420e-01
0.000000e+00
1.000000e+00
5.783585e-01
5.821803e-01
5.876538e-01
5.930607e-01
5.981920e-01
6.025117e-01
6.054373e-01
6.065023e-01
6.055460e-01
6.027378e-01
5.985191e-01
5.933572e-01
5.879234e-01
5.825251e-01
5.769894e-01
0.000000e+00
1.000000e+00
5.770117e-01
5.798447e-01
5.838998e-01
5.879203e-01
5.917350e-01
5.949448e-01
5.971142e-01
5.978985e-01
5.971856e-01
5.951010e-01
5.919641e-01
5.881423e-01
5.841253e-01
5.801121e-01
5.758398e-01
0.000000e+00
1.000000e+00
5.757282e-01
5.776566e-01
5.803841e-01
5.831058e-01
5.856875e-01
5.878581e-01
5.893220e-01
5.898465e-01
5.893552e-01
5.879410e-01
5.858257e-01
5.832529e-01
5.805616e-01
5.778426e-01
5.749003e-01
0.000000e+00
1.000000e+00
5.746531e-01
5.757498e-01
5.773384e-01
5.789363e-01
5.804517e-01
5.817254e-01
5.825843e-01
5.828907e-01
5.825952e-01
5.817552e-01
5.805144e-01
5.790117e-01
5.774734e-01
5.758699e-01
5.741449e-01
0.000000e+00
1.000000e+00
5.738688e-01
5.742533e-01
5.749798e-01
5.757068e-01
5.763966e-01
5.769764e-01
5.773669e-01
5.775044e-01
5.773649e-01
5.769757e-01
5.764028e-01
5.757205e-01
5.750407e-01
5.743153e-01
5.734618e-01
0.000000e+00
1.000000e+00
5.733128e-01
5.732772e-01
5.734487e-01
5.736088e-01
5.737605e-01
5.738877e-01
5.739729e-01
5.740018e-01
5.739680e-01
5.738773e-01
5.737463e-01
5.736018e-01
5.734604e-01
5.732978e-01
5.729688e-01
0.000000e+00
1.000000e+00
5.730649e-01
5.728600e-01
5.727911e-01
5.727088e-01
5.726306e-01
5.725648e-01
5.725203e-01
5.725042e-01
5.725188e-01
5.725605e-01
5.726235e-01
5.727077e-01
5.727891e-01
5.728605e-01
5.728145e-01
0.000000e+00
1.000000e+00
5.730896e-01
5.729883e-01
5.729883e-01
5.729788e-01
5.729698e-01
5.729621e-01
5.729567e-01
5.729544e-01
5.729553e-01
5.729587e-01
5.729637e-01
5.729800e-01
5.729972e-01
5.729914e-01
5.728181e-01
0.000000e+00
1.000000e+00
5.733903e-01
5.736016e-01
5.739456e-01
5.742902e-01
5.746168e-01
5.748910e-01
5.750753e-01
5.751394e-01
5.750716e-01
5.748832e-01
5.746047e-01
5.742853e-01
5.739873e-01
5.736389e-01
5.730642e-01
0.000000e+00
1.000000e+00
5.739241e-01
5.746092e-01
5.755253e-01
5.764538e-01
5.773342e-01
5.780740e-01
5.785720e-01
5.787472e-01
5.785673e-01
5.780624e-01
5.773135e-01
5.764623e-01
5.756271e-01
5.746886e-01
5.734530e-01
0.000000e+00
1.000000e+00
5.746608e-01
5.759032e-01
5.775662e-01
5.792489e-01
5.808446e-01
5.821859e-01
5.830897e-01
5.834097e-01
5.830878e-01
5.821796e-01
5.808413e-01
5.793312e-01
5.777569e-01
5.760265e-01
5.740273e-01
0.000000e+00
1.000000e+00
5.754997e-01
5.773824e-01
5.799109e-01
5.824599e-01
5.848776e-01
5.869104e-01
5.882816e-01
5.887699e-01
5.882893e-01
5.869282e-01
5.849406e-01
5.826290e-01
5.801253e-01
5.775472e-01
5.746676e-01
0.000000e+00
1.000000e+00
5.836125e-01
5.908043e-01
6.017719e-01
6.124122e-01
6.225185e-01
6.310465e-01
6.368535e-01
6.390179e-01
6.371329e-01
6.315421e-01
6.233259e-01
6.131203e-01
6.021826e-01
5.915828e-01
5.813063e-01
0.000000e+00
1.000000e+00
5.828580e-01
5.895924e-01
5.997300e-01
6.096113e-01
6.189970e-01
6.269135e-01
6.322963e-01
6.342939e-01
6.325500e-01
6.273819e-01
6.197301e-01
6.102365e-01
6.001437e-01
5.903001e-01
5.806919e-01
0.000000e+00
1.000000e+00
5.817925e-01
5.880504e-01
5.971301e-01
6.060434e-01
6.145099e-01
6.216483e-01
6.264963e-01
6.282885e-01
6.267207e-01
6.220696e-01
6.151599e-01
6.066061e-01
5.975409e-01
5.886489e-01
5.798981e-01
0.000000e+00
1.000000e+00
5.805913e-01
5.861600e-01
5.940131e-01
6.017705e-01
6.091381e-01
6.153471e-01
6.195581e-01
6.211061e-01
6.197460e-01
6.157082e-01
6.096775e-01
6.022380e-01
5.943809e-01
5.866429e-01
5.789401e-01
0.000000e+00
1.000000e+00
5.793244e-01
5.839797e-01
5.904836e-01
5.969360e-01
6.030628e-01
6.082232e-01
6.117174e-01
6.129930e-01
6.118645e-01
6.085187e-01
6.034917e-01
5.973229e-01
5.908206e-01
5.843789e-01
5.778642e-01
0.000000e+00
1.000000e+00
5.779684e-01
5.816341e-01
5.867112e-01
5.917697e-01
5.965714e-01
6.006131e-01
6.033451e-01
6.043338e-01
6.034454e-01
6.008371e-01
5.968942e-01
5.920795e-01
5.870096e-01
5.819553e-01
5.767082e-01
0.000000e+00
1.000000e+00
5.766086e-01
5.792661e-01
5.829158e-01
5.865726e-01
5.900425e-01
5.929609e-01
5.949300e-01
5.956350e-01
5.949805e-01
5.931015e-01
5.902645e-01
5.868068e-01
5.831695e-01
5.795120e-01
5.755429e-01
0.000000e+00
1.000000e+00
5.753181e-01
5.770288e-01
5.793479e-01
5.816873e-01
5.839064e-01
5.857716e-01
5.870281e-01
5.874733e-01
5.870405e-01
5.858264e-01
5.840259e-01
5.818363e-01
5.795591e-01
5.772114e-01
5.745804e-01
0.000000e+00
1.000000e+00
5.742470e-01
5.750745e-01
5.762559e-01
5.774542e-01
5.785908e-01
5.795459e-01
5.801892e-01
5.804160e-01
5.801876e-01
5.795520e-01
5.786247e-01
5.775164e-01
5.764018e-01
5.751948e-01
5.738357e-01
0.000000e+00
1.000000e+00
5.734572e-01
5.735531e-01
5.738641e-01
5.741791e-01
5.744781e-01
5.747292e-01
5.748981e-01
5.749561e-01
5.748923e-01
5.747194e-01
5.744748e-01
5.742063e-01
5.739402e-01
5.736190e-01
5.731472e-01
0.000000e+00
1.000000e+00
5.729162e-01
5.725689e-01
5.723230e-01
5.720677e-01
5.718255e-01
5.716216e-01
5.714836e-01
5.714330e-01
5.714778e-01
5.716104e-01
5.718188e-01
5.720897e-01
5.723591e-01
5.726029e-01
5.726106e-01
0.000000e+00
1.000000e+00
5.726723e-01
5.721614e-01
5.716836e-01
5.711923e-01
5.707261e-01
5.703341e-01
5.700698e-01
5.699755e-01
5.700676e-01
5.703293e-01
5.707251e-01
5.712199e-01
5.717042e-01
5.721810e-01
5.724175e-01
0.000000e+00
1.000000e+00
5.727418e-01
5.723149e-01
5.719232e-01
5.715207e-01
5.711389e-01
5.708178e-01
5.706012e-01
5.705241e-01
5.705996e-01
5.708138e-01
5.711349e-01
5.715509e-01
5.719529e-01
5.723422e-01
5.723976e-01
0.000000e+00
1.000000e+00
5.730441e-01
5.729681e-01
5.729448e-01
5.729197e-01
5.728957e-01
5.728753e-01
5.728610e-01
5.728546e-01
5.728565e-01
5.728659e-01
5.728807e-01
5.729383e-01
5.729992e-01
5.729994e-01
5.728504e-01
0.000000e+00
1.000000e+00
5.735996e-01
5.740266e-01
5.746029e-01
5.751905e-01
5.757477e-01
5.762157e-01
5.765303e-01
5.766400e-01
5.765238e-01
5.762013e-01
5.757227e-01
5.751948e-01
5.746993e-01
5.740961e-01
5.733424e-01
0.000000e+00
1.000000e+00
5.743762e-01
5.753760e-01
5.767295e-01
5.781032e-01
5.794060e-01
5.805011e-01
5.812387e-01
5.814990e-01
5.812346e-01
5.804906e-01
5.793872e-01
5.781471e-01
5.769134e-01
5.754948e-01
5.739258e-01
0.000000e+00
1.000000e+00
5.752492e-01
5.769104e-01
5.791615e-01
5.814339e-01
5.835894e-01
5.854016e-01
5.866237e-01
5.870580e-01
5.866271e-01
5.854088e-01
5.836228e-01
5.815781e-01
5.793927e-01
5.770723e-01
5.745076e-01
0.000000e+00
1.000000e+00
5.828284e-01
5.898367e-01
5.999805e-01
6.099435e-01
6.194077e-01
6.273918e-01
6.328248e-01
6.348503e-01
6.331006e-01
6.278515e-01
6.201566e-01
6.105694e-01
6.003638e-01
5.904404e-01
5.807599e-01
0.000000e+00
1.000000e+00
5.820733e-01
5.886023e-01
5.979481e-01
6.071580e-01
6.159060e-01
6.232819e-01
6.282921e-01
6.301496e-01
6.285410e-01
6.237204e-01
6.165804e-01
6.077251e-01
5.983488e-01
5.891621e-01
5.801462e-01
0.000000e+00
1.000000e+00
5.810837e-01
5.870105e-01
5.953424e-01
6.035876e-01
6.114181e-01
6.180172e-01
6.224929e-01
6.241431e-01
6.227089e-01
6.184167e-01
6.120208e-01
6.041153e-01
5.957541e-01
5.875118e-01
5.793500e-01
0.000000e+00
1.000000e+00
5.799103e-01
5.850825e-01
5.922072e-01
5.992935e-01
6.060223e-01
6.116897e-01
6.155275e-01
6.169304e-01
6.156970e-01
6.120319e-01
6.065229e-01
5.997436e-01
5.925913e-01
5.855050e-01
5.783901e-01
0.000000e+00
1.000000e+00
5.786196e-01
5.828712e-01
5.886475e-01
5.944197e-01
5.998994e-01
6.045122e-01
6.076305e-01
6.087584e-01
6.077442e-01
6.047818e-01
6.002966e-01
5.948015e-01
5.890086e-01
5.832285e-01
5.773061e-01
0.000000e+00
1.000000e+00
5.772546e-01
5.804864e-01
5.848337e-01
5.891983e-01
5.933407e-01
5.968259e-01
5.991783e-01
6.000197e-01
5.992353e-01
5.970053e-01
5.936328e-01
5.895100e-01
5.851637e-01
5.807806e-01
5.761408e-01
0.000000e+00
1.000000e+00
5.758826e-01
5.780738e-01
5.809910e-01
5.839375e-01
5.867333e-01
5.890847e-01
5.906696e-01
5.912306e-01
5.906830e-01
5.891633e-01
5.869111e-01
5.841665e-01
5.812848e-01
5.783117e-01
5.749652e-01
0.000000e+00
1.000000e+00
5.746023e-01
5.757912e-01
5.773770e-01
5.789894e-01
5.805191e-01
5.818049e-01
5.826707e-01
5.829748e-01
5.826658e-01
5.818149e-01
5.805841e-01
5.791148e-01
5.776225e-01
5.759836e-01
5.739785e-01
0.000000e+00
1.000000e+00
5.735262e-01
5.738061e-01
5.742520e-01
5.747105e-01
5.751455e-01
5.755111e-01
5.757572e-01
5.758424e-01
5.757513e-01
5.755034e-01
5.751603e-01
5.747831e-01
5.744098e-01
5.739321e-01
5.731984e-01
0.000000e+00
1.000000e+00
5.727293e-01
5.722704e-01
5.718444e-01
5.714138e-01
5.710057e-01
5.706631e-01
5.704323e-01
5.703498e-01
5.704303e-01
5.706615e-01
5.710285e-01
5.714897e-01
5.719540e-01
5.723534e-01
5.724913e-01
0.000000e+00
1.000000e+00
5.722238e-01
5.712901e-01
5.703102e-01
5.693123e-01
5.683662e-01
5.675715e-01
5.670363e-01
5.668470e-01
5.670380e-01
5.675759e-01
5.683959e-01
5.693866e-01
5.703893e-01
5.713436e-01
5.720409e-01
0.000000e+00
1.000000e+00
5.720050e-01
5.709062e-01
5.697079e-01
5.684872e-01
5.673297e-01
5.663573e-01
5.657027e-01
5.654719e-01
5.657067e-01
5.663651e-01
5.673577e-01
5.685571e-01
5.697658e-01
5.709506e-01
5.716960e-01
0.000000e+00
1.000000e+00
5.720970e-01
5.710992e-01
5.700089e-01
5.688998e-01
5.678481e-01
5.669646e-01
5.663700e-01
5.661602e-01
5.663730e-01
5.669705e-01
5.678668e-01
5.689773e-01
5.700705e-01
5.711484e-01
5.717219e-01
0.000000e+00
1.000000e+00
5.724469e-01
5.718038e-01
5.711128e-01
5.704115e-01
5.697465e-01
5.691878e-01
5.688113e-01
5.686779e-01
5.688109e-01
5.691867e-01
5.697462e-01
5.704990e-01
5.711919e-01
5.718507e-01
5.722213e-01
0.000000e+00
1.000000e+00
5.730249e-01
5.729244e-01
5.728687e-01
5.728160e-01
5.727662e-01
5.727243e-01
5.726956e-01
5.726839e-01
5.726902e-01
5.727130e-01
5.727472e-01
5.728762e-01
5.729718e-01
5.729951e-01
5.728866e-01
0.000000e+00
1.000000e+00
5.738100e-01
5.743457e-01
5.751030e-01
5.758760e-01
5.766093e-01
5.772256e-01
5.776404e-01