<?xml version="1.0"?>
<VTKFile type="StructuredGrid" version="0.1">
  <StructuredGrid WholeExtent="0 16 0 16 0 16">
    <Piece Extent="0 16 0 16 0 16">
      <PointData Scalars="temperature" Vectors="velocity">
        <DataArray type="Float32" Name="temperature" format="ascii">
1.000000e+00
5.733846e-01
5.736907e-01
5.740830e-01
5.744815e-01
5.748594e-01
5.751771e-01
5.753911e-01
5.754661e-01
5.753887e-01
5.751724e-01
5.748548e-01
5.745054e-01
5.741283e-01
5.737411e-01
5.731609e-01
0.000000e+00
1.000000e+00
5.726361e-01
5.721650e-01
5.716910e-01
5.712063e-01
5.707468e-01
5.703612e-01
5.701015e-01
5.700094e-01
5.701009e-01
5.703602e-01
5.707504e-01
5.712589e-01
5.717441e-01
5.722178e-01
5.724377e-01
0.000000e+00
1.000000e+00
5.717556e-01
5.703585e-01
5.688604e-01
5.673307e-01
5.658807e-01
5.646630e-01
5.638433e-01
5.635539e-01
5.638465e-01
5.646700e-01
5.658979e-01
5.674036e-01
5.689282e-01
5.704174e-01
5.715790e-01
0.000000e+00
1.000000e+00
5.707606e-01
5.683063e-01
5.656465e-01
5.629304e-01
5.603555e-01
5.581932e-01
5.567379e-01
5.562252e-01
5.567462e-01
5.582099e-01
5.603870e-01
5.630078e-01
5.657180e-01
5.683645e-01
5.706039e-01
0.000000e+00
1.000000e+00
5.696813e-01
5.660691e-01
5.621439e-01
5.581348e-01
5.543341e-01
5.511422e-01
5.489944e-01
5.482384e-01
5.490083e-01
5.511687e-01
5.543782e-01
5.582158e-01
5.622164e-01
5.661270e-01
5.695452e-01
0.000000e+00
1.000000e+00
5.685582e-01
5.637327e-01
5.584865e-01
5.531270e-01
5.480464e-01
5.437796e-01
5.409088e-01
5.398990e-01
5.409286e-01
5.438164e-01
5.481028e-01
5.532146e-01
5.585594e-01
5.637902e-01
5.684350e-01
0.000000e+00
1.000000e+00
5.674403e-01
5.614033e-01
5.548409e-01
5.481355e-01
5.417791e-01
5.364413e-01
5.328500e-01
5.315873e-01
5.328758e-01
5.364886e-01
5.418481e-01
5.482315e-01
5.549146e-01
5.614615e-01
5.673284e-01
0.000000e+00
1.000000e+00
5.663861e-01
5.592002e-01
5.513940e-01
5.434161e-01
5.358536e-01
5.295034e-01
5.252315e-01
5.237298e-01
5.252633e-01
5.295614e-01
5.359357e-01
5.435231e-01
5.514686e-01
5.592579e-01
5.662804e-01
0.000000e+00
1.000000e+00
5.654549e-01
5.572442e-01
5.483347e-01
5.392275e-01
5.305950e-01
5.233466e-01
5.184708e-01
5.167572e-01
5.185078e-01
5.234141e-01
5.306895e-01
5.393458e-01
5.484133e-01
5.573006e-01
5.653612e-01
0.000000e+00
1.000000e+00
5.647003e-01
5.556448e-01
5.458337e-01
5.358033e-01
5.262962e-01
5.183139e-01
5.129446e-01
5.110575e-01
5.129852e-01
5.183887e-01
5.264002e-01
5.359288e-01
5.459230e-01
5.556933e-01
5.646249e-01
0.000000e+00
1.000000e+00
5.641622e-01
5.544871e-01
5.440238e-01
5.333255e-01
5.231859e-01
5.146726e-01
5.089461e-01
5.069332e-01
5.089889e-01
5.147519e-01
5.232963e-01
5.334476e-01
5.441348e-01
5.545281e-01
5.640568e-01
0.000000e+00
1.000000e+00
5.638638e-01
5.538239e-01
5.429870e-01
5.319065e-01
5.214048e-01
5.125875e-01
5.066561e-01
5.045708e-01
5.066995e-01
5.126682e-01
5.215186e-01
5.320165e-01
5.431175e-01
5.538794e-01
5.636042e-01
0.000000e+00
1.000000e+00
5.638058e-01
5.536716e-01
5.427490e-01
5.315811e-01
5.209964e-01
5.121092e-01
5.061305e-01
5.040281e-01
5.061730e-01
5.121886e-01
5.211123e-01
5.316786e-01
5.428769e-01
5.537658e-01
5.633615e-01
0.000000e+00
1.000000e+00
5.639725e-01
5.540119e-01
5.432815e-01
5.323104e-01
5.219120e-01
5.131809e-01
5.073069e-01
5.052408e-01
5.073472e-01
5.132562e-01
5.220251e-01
5.323977e-01
5.434078e-01
5.541932e-01
5.631478e-01
0.000000e+00
1.000000e+00
5.643423e-01
5.547982e-01
5.445119e-01
5.339951e-01
5.240269e-01
5.156568e-01
5.100254e-01
5.080442e-01
5.100628e-01
5.157264e-01
5.241296e-01
5.340838e-01
5.446404e-01
5.550384e-01
5.634085e-01
0.000000e+00
1.000000e+00
5.648872e-01
5.559639e-01
5.463367e-01
5.364937e-01
5.271640e-01
5.193299e-01
5.140589e-01
5.122042e-01
5.140930e-01
5.193929e-01
5.272515e-01
5.365922e-01
5.464598e-01
5.562513e-01
5.640860e-01
0.000000e+00
1.000000e+00
5.655340e-01
5.574347e-01
5.486351e-01
5.396408e-01
5.311158e-01
5.239576e-01
5.191418e-01
5.174478e-01
5.191745e-01
5.240175e-01
5.311946e-01
5.397482e-01
5.487541e-01
5.578918e-01
5.641337e-01
0.000000e+00
1.000000e+00
5.726740e-01
5.722325e-01
5.717988e-01
5.713539e-01
5.709320e-01
5.705777e-01
5.703390e-01
5.702543e-01
5.703382e-01
5.705767e-01
5.709358e-01
5.713891e-01
5.718360e-01
5.722796e-01
5.724593e-01
0.000000e+00
1.000000e+00
5.718992e-01
5.706458e-01
5.693121e-01
5.679491e-01
5.666570e-01
5.655717e-01
5.648409e-01
5.645829e-01
5.648436e-01
5.655783e-01
5.666748e-01
5.680046e-01
5.693595e-01
5.706955e-01
5.717105e-01
0.000000e+00
1.000000e+00
5.709914e-01
5.687734e-01
5.663793e-01
5.639336e-01
5.616150e-01
5.596677e-01
5.583570e-01
5.578949e-01
5.583639e-01
5.596824e-01
5.616442e-01
5.639977e-01
5.664448e-01
5.688317e-01
5.708234e-01
0.000000e+00
1.000000e+00
5.699683e-01
5.666540e-01
5.630608e-01
5.593901e-01
5.559101e-01
5.529875e-01
5.510205e-01
5.503279e-01
5.510325e-01
5.530107e-01
5.559498e-01
5.594576e-01
5.631256e-01
5.667101e-01
5.698097e-01
0.000000e+00
1.000000e+00
5.688627e-01
5.643539e-01
5.594604e-01
5.544605e-01
5.497206e-01
5.457400e-01
5.430613e-01
5.421187e-01
5.430787e-01
5.457724e-01
5.497714e-01
5.545343e-01
5.595280e-01
5.644125e-01
5.687141e-01
0.000000e+00
1.000000e+00
5.677176e-01
5.619671e-01
5.557251e-01
5.493461e-01
5.432991e-01
5.382210e-01
5.348043e-01
5.336025e-01
5.348274e-01
5.382636e-01
5.433622e-01
5.494286e-01
5.557947e-01
5.620272e-01
5.675781e-01
0.000000e+00
1.000000e+00
5.665895e-01
5.596103e-01
5.520376e-01
5.442973e-01
5.369601e-01
5.307990e-01
5.266540e-01
5.251965e-01
5.266832e-01
5.308522e-01
5.370371e-01
5.443897e-01
5.521097e-01
5.596732e-01
5.664562e-01
0.000000e+00
1.000000e+00
5.655420e-01
5.574138e-01
5.486019e-01
5.395932e-01
5.310542e-01
5.238844e-01
5.190613e-01
5.173656e-01
5.190961e-01
5.239479e-01
5.311456e-01
5.396967e-01
5.486768e-01
5.574783e-01
5.654088e-01
0.000000e+00
1.000000e+00
5.646383e-01
5.555082e-01
5.456218e-01
5.355131e-01
5.259320e-01
5.178876e-01
5.124765e-01
5.105742e-01
5.125159e-01
5.179601e-01
5.260367e-01
5.356250e-01
5.457022e-01
5.555750e-01
5.645022e-01
0.000000e+00
1.000000e+00
5.639324e-01
5.540090e-01
5.432775e-01
5.323036e-01
5.219031e-01
5.131710e-01
5.072973e-01
5.052324e-01
5.073400e-01
5.132501e-01
5.220167e-01
5.324231e-01
5.433632e-01
5.540749e-01
5.637933e-01
0.000000e+00
1.000000e+00
5.634639e-01
5.530030e-01
5.417042e-01
5.301499e-01
5.191995e-01
5.100059e-01
5.038215e-01
5.016471e-01
5.038659e-01
5.100887e-01
5.193161e-01
5.302747e-01
5.418016e-01
5.530639e-01
5.633576e-01
0.000000e+00
1.000000e+00
5.632503e-01
5.525388e-01
5.409774e-01
5.291549e-01
5.179505e-01
5.085434e-01
5.022152e-01
4.999899e-01
5.022599e-01
5.086270e-01
5.180663e-01
5.292742e-01
5.410916e-01
5.525961e-01
5.631587e-01
0.000000e+00
1.000000e+00
5.632861e-01
5.526233e-01
5.411083e-01
5.293339e-01
5.181749e-01
5.088057e-01
5.025028e-01
5.002861e-01
5.025466e-01
5.088874e-01
5.182893e-01
5.294416e-01
5.412278e-01
5.526816e-01
5.632567e-01
0.000000e+00
1.000000e+00
5.635564e-01
5.532259e-01
5.420486e-01
5.306210e-01
5.197903e-01
5.106965e-01
5.045786e-01
5.024267e-01
5.046203e-01
5.107740e-01
5.198999e-01
5.307253e-01
5.421643e-01
5.533006e-01
5.633478e-01
0.000000e+00
1.000000e+00
5.640433e-01
5.542860e-01
5.437038e-01
5.328872e-01
5.226349e-01
5.140265e-01
5.082350e-01
5.061977e-01
5.082738e-01
5.140980e-01
5.227342e-01
5.329963e-01
5.438062e-01
5.543745e-01
5.637605e-01
0.000000e+00
1.000000e+00
5.647148e-01
5.557231e-01
5.459496e-01
5.359624e-01
5.264958e-01
5.185467e-01
5.131986e-01
5.113170e-01
5.132338e-01
5.186113e-01
5.265820e-01
5.360752e-01
5.460509e-01
5.558642e-01
5.644654e-01
0.000000e+00
1.000000e+00
5.655443e-01
5.574481e-01
5.486496e-01
5.396596e-01
5.311381e-01
5.239824e-01
5.191677e-01
5.174736e-01
5.191989e-01
5.240394e-01
5.312130e-01
5.397747e-01
5.487609e-01
5.577887e-01
5.643123e-01
0.000000e+00
1.000000e+00
5.720639e-01
5.709698e-01
5.698219e-01
5.686469e-01
5.675330e-01
5.665972e-01
5.659669e-01
5.657441e-01
5.659684e-01
5.666016e-01
5.675458e-01
5.686832e-01
5.698566e-01
5.710156e-01
5.718571e-01
0.000000e+00
1.000000e+00
5.712702e-01
5.693361e-01
5.672623e-01
5.651425e-01
5.631328e-01
5.614446e-01
5.603080e-01
5.599071e-01
5.603133e-01
5.614564e-01
5.631569e-01
5.651870e-01
5.673026e-01
5.693824e-01
5.710937e-01
0.000000e+00
1.000000e+00
5.703411e-01
5.674132e-01
5.642511e-01
5.610196e-01
5.579561e-01
5.553829e-01
5.536508e-01
5.530405e-01
5.536603e-01
5.554022e-01
5.579898e-01
5.610729e-01
5.643070e-01
5.674663e-01
5.701866e-01
0.000000e+00
1.000000e+00
5.692961e-01
5.652429e-01
5.608533e-01
5.563676e-01
5.521150e-01
5.485433e-01
5.461395e-01
5.452930e-01
5.461537e-01
5.485707e-01
5.521585e-01
5.564266e-01
5.609110e-01
5.652966e-01
5.691510e-01
0.000000e+00
1.000000e+00
5.681701e-01
5.628969e-01
5.571815e-01
5.513402e-01
5.458027e-01
5.411522e-01
5.380227e-01
5.369212e-01
5.380422e-01
5.411889e-01
5.458581e-01
5.514074e-01
5.572427e-01
5.629539e-01
5.680370e-01
0.000000e+00
1.000000e+00
5.670109e-01
5.604770e-01
5.533948e-01
5.461556e-01
5.392932e-01
5.335304e-01
5.296530e-01
5.282887e-01
5.296783e-01
5.335775e-01
5.393627e-01
5.462328e-01
5.534596e-01
5.605368e-01
5.668872e-01
0.000000e+00
1.000000e+00
5.658805e-01
5.581098e-01
5.496916e-01
5.410852e-01
5.329273e-01
5.260772e-01
5.214686e-01
5.198476e-01
5.214999e-01
5.261350e-01
5.330127e-01
5.411731e-01
5.497603e-01
5.581732e-01
5.657634e-01
0.000000e+00
1.000000e+00
5.648468e-01
5.559359e-01
5.462916e-01
5.364302e-01
5.270833e-01
5.192354e-01
5.139559e-01
5.120993e-01
5.139925e-01
5.193035e-01
5.271846e-01
5.365284e-01
5.463639e-01
5.560021e-01
5.647288e-01
0.000000e+00
1.000000e+00
5.639770e-01
5.540947e-01
5.434125e-01
5.324886e-01
5.221355e-01
5.134431e-01
5.075956e-01
5.055393e-01
5.076365e-01
5.135197e-01
5.222495e-01
5.325983e-01
5.434876e-01
5.541631e-01
5.638555e-01
0.000000e+00
1.000000e+00
5.633282e-01
5.527069e-01
5.412427e-01
5.295185e-01
5.184074e-01
5.090789e-01
5.028035e-01
5.005965e-01
5.028473e-01
5.091617e-01
5.185280e-01
5.296439e-01
5.413195e-01
5.527748e-01
5.631961e-01
0.000000e+00
1.000000e+00
5.629382e-01
5.518596e-01
5.399178e-01
5.277052e-01
5.161316e-01
5.064146e-01
4.998777e-01
4.975786e-01
4.999230e-01
5.065007e-01
5.162527e-01
5.278427e-01
5.400069e-01
5.519276e-01
5.627967e-01
0.000000e+00
1.000000e+00
5.628164e-01
5.515957e-01
5.395051e-01
5.271405e-01
5.154227e-01
5.055845e-01
4.989659e-01
4.966379e-01
4.990115e-01
5.056711e-01
5.155407e-01
5.272756e-01
5.396139e-01
5.516608e-01
5.626669e-01
0.000000e+00
1.000000e+00
5.629520e-01
5.519124e-01
5.400001e-01
5.278177e-01
5.162724e-01
5.065790e-01
5.000577e-01
4.977639e-01
5.001023e-01
5.066631e-01
5.163873e-01
5.279390e-01
5.401194e-01
5.519771e-01
5.628592e-01
0.000000e+00
1.000000e+00
5.633347e-01
5.527671e-01
5.413341e-01
5.296433e-01
5.185635e-01
5.092608e-01
5.030023e-01
5.008009e-01
5.030448e-01
5.093401e-01
5.186716e-01
5.297603e-01
5.414521e-01
5.528384e-01
5.631550e-01
0.000000e+00
1.000000e+00
5.639435e-01
5.540844e-01
5.433903e-01
5.324582e-01
5.220967e-01
5.133968e-01
5.075438e-01
5.054850e-01
5.075832e-01
5.134695e-01
5.221936e-01
5.325807e-01
5.434865e-01
5.541561e-01
5.637491e-01
0.000000e+00
1.000000e+00
5.647412e-01
5.557706e-01
5.460245e-01
5.360649e-01
5.266245e-01
5.186976e-01
5.133644e-01
5.114883e-01
5.134000e-01
5.187624e-01
5.267097e-01
5.361856e-01
5.461164e-01
5.558776e-01
5.645867e-01
0.000000e+00
1.000000e+00
5.656824e-01
5.577254e-01
5.490837e-01
5.402538e-01
5.318839e-01
5.248555e-01
5.201265e-01
5.184627e-01
5.201576e-01
5.249121e-01
5.319592e-01
5.403718e-01
5.491817e-01
5.579754e-01
5.647072e-01
0.000000e+00
1.000000e+00
5.715905e-01
5.699842e-01
5.682795e-01
5.665351e-01
5.648812e-01
5.634918e-01
5.625561e-01
5.622258e-01
5.625596e-01
5.635002e-01
5.648986e-01
5.665650e-01
5.683082e-01
5.700180e-01
5.713681e-01
0.000000e+00
1.000000e+00
5.707877e-01
5.683255e-01
5.656814e-01
5.629779e-01
5.604147e-01
5.582616e-01
5.568119e-01
5.563007e-01
5.568189e-01
5.582761e-01
5.604401e-01
5.630134e-01
5.657133e-01
5.683667e-01
5.706168e-01
0.000000e+00
1.000000e+00
5.698480e-01
5.663757e-01
5.626284e-01
5.587978e-01
5.551663e-01
5.521159e-01
5.500626e-01
5.493390e-01
5.500734e-01
5.521374e-01
5.552003e-01
5.588426e-01
5.626753e-01
5.664253e-01
5.697003e-01
0.000000e+00
1.000000e+00
5.687919e-01
5.641789e-01
5.591895e-01
5.540895e-01
5.492547e-01
5.451939e-01
5.424608e-01
5.414982e-01
5.424763e-01
5.452236e-01
5.492992e-01
5.541413e-01
5.592397e-01
5.642316e-01
5.686465e-01
0.000000e+00
1.000000e+00
5.676572e-01
5.618113e-01
5.554844e-01
5.490166e-01
5.428853e-01
5.377361e-01
5.342710e-01
5.330511e-01
5.342918e-01
5.377755e-01
5.429433e-01
5.490775e-01
5.555401e-01
5.618688e-01
5.675203e-01
0.000000e+00
1.000000e+00
5.664958e-01
5.593817e-01
5.516829e-01
5.438118e-01
5.363507e-01
5.300851e-01
5.258693e-01
5.243857e-01
5.258960e-01
5.301353e-01
5.364246e-01
5.438825e-01
5.517438e-01
5.594437e-01
5.663651e-01
0.000000e+00
1.000000e+00
5.653732e-01
5.570250e-01
5.479967e-01
5.387649e-01
5.300145e-01
5.226669e-01
5.177234e-01
5.159843e-01
5.177560e-01
5.227280e-01
5.301056e-01
5.388456e-01
5.480618e-01
5.570918e-01
5.652481e-01
0.000000e+00
1.000000e+00
5.643623e-01
5.548911e-01
5.446594e-01
5.341960e-01
5.242790e-01
5.159524e-01
5.103506e-01
5.083801e-01
5.103883e-01
5.160235e-01
5.243860e-01
5.342899e-01
5.447274e-01
5.549615e-01
5.642365e-01
0.000000e+00
1.000000e+00
5.635337e-01
5.531267e-01
5.419004e-01
5.304193e-01
5.195386e-01
5.104031e-01
5.042570e-01
5.020951e-01
5.042986e-01
5.104821e-01
5.196569e-01
5.305301e-01
5.419691e-01
5.532002e-01
5.633985e-01
0.000000e+00
1.000000e+00
5.629470e-01
5.518569e-01
5.399144e-01
5.277015e-01
5.161277e-01
5.064100e-01
4.998721e-01
4.975722e-01
4.999162e-01
5.064945e-01
5.162512e-01
5.278322e-01
5.399866e-01
5.519300e-01
5.627936e-01
0.000000e+00
1.000000e+00
5.626371e-01
5.511678e-01
5.388359e-01
5.262260e-01
5.142758e-01
5.042419e-01
4.974911e-01
4.951162e-01
4.975365e-01
5.043290e-01
5.143986e-01
5.263706e-01
5.389209e-01
5.512346e-01
5.624700e-01
0.000000e+00
1.000000e+00
5.626001e-01
5.510950e-01
5.387229e-01
5.260713e-01
5.140814e-01
5.040141e-01
4.972408e-01
4.948579e-01
4.972862e-01
5.041009e-01
5.142000e-01
5.262163e-01
5.388252e-01
5.511582e-01
5.624301e-01
0.000000e+00
1.000000e+00
5.628224e-01
5.516266e-01
5.395545e-01
5.272088e-01
5.155087e-01
5.056849e-01
4.990755e-01
4.967503e-01
4.991197e-01
5.057686e-01
5.156227e-01
5.273422e-01
5.396597e-01
5.516885e-01
5.627120e-01
0.000000e+00
1.000000e+00
5.633045e-01
5.527081e-01
5.412422e-01
5.295181e-01
5.184068e-01
5.090774e-01
5.028008e-01
5.005927e-01
5.028427e-01
5.091557e-01
5.185127e-01
5.296440e-01
5.413466e-01
5.527722e-01
5.631712e-01
0.000000e+00
1.000000e+00
5.640277e-01
5.542496e-01
5.436490e-01
5.328125e-01
5.225417e-01
5.139179e-01
5.081161e-01
5.060752e-01
5.081549e-01
5.139894e-01
5.226364e-01
5.329389e-01
5.437393e-01
5.543079e-01
5.638889e-01
0.000000e+00
1.000000e+00
5.649241e-01
5.561456e-01
5.466125e-01
5.368701e-01
5.276355e-01
5.198812e-01
5.146643e-01
5.128292e-01
5.146994e-01
5.199448e-01
5.277194e-01
5.369894e-01
5.466979e-01
5.562218e-01
5.648460e-01
0.000000e+00
1.000000e+00
5.659536e-01
5.582888e-01
5.499663e-01
5.414625e-01
5.334018e-01
5.266326e-01
5.220781e-01
5.204759e-01
5.221086e-01
5.266879e-01
5.334771e-01
5.415763e-01
5.500537e-01
5.584549e-01
5.652744e-01
0.000000e+00
1.000000e+00
5.712920e-01
5.693550e-01
5.672957e-01
5.651881e-01
5.631898e-01
5.615110e-01
5.603805e-01
5.599816e-01
5.603851e-01
5.615213e-01
5.632076e-01
5.652115e-01
5.673197e-01
5.693519e-01
5.710702e-01
0.000000e+00
1.000000e+00
5.704940e-01
5.677016e-01
5.647058e-01
5.616422e-01
5.587375e-01
5.562975e-01
5.546547e-01
5.540753e-01
5.546623e-01
5.563129e-01
5.587618e-01
5.616705e-01
5.647322e-01
5.677292e-01
5.702602e-01
0.000000e+00
1.000000e+00
5.695582e-01
5.657568e-01
5.616610e-01
5.574733e-01
5.535032e-01
5.501684e-01
5.479236e-01
5.471324e-01
5.479348e-01
5.501905e-01
5.535362e-01
5.575111e-01
5.617010e-01
5.658030e-01
5.693787e-01
0.000000e+00
1.000000e+00
5.685069e-01
5.635664e-01
5.582323e-01
5.527790e-01
5.476092e-01
5.432671e-01
5.403447e-01
5.393151e-01
5.403605e-01
5.432976e-01
5.476536e-01
5.528242e-01
5.582779e-01
5.636188e-01
5.683444e-01
0.000000e+00
1.000000e+00
5.673798e-01
5.612096e-01
5.545442e-01
5.477294e-01
5.412693e-01
5.358439e-01
5.321929e-01
5.309074e-01
5.322143e-01
5.358845e-01
5.413280e-01
5.477828e-01
5.545964e-01
5.612681e-01
5.672297e-01
0.000000e+00
1.000000e+00
5.662311e-01
5.588000e-01
5.507743e-01
5.425680e-01
5.347892e-01
5.282569e-01
5.238615e-01
5.223145e-01
5.238887e-01
5.283084e-01
5.348646e-01
5.426308e-01
5.508319e-01
5.588648e-01
5.660878e-01
0.000000e+00
1.000000e+00
5.651286e-01
5.564791e-01
5.471439e-01
5.375977e-01
5.285496e-01
5.209519e-01
5.158400e-01
5.140413e-01
5.158729e-01
5.210142e-01
5.286422e-01
5.376734e-01
5.472064e-01
5.565490e-01
5.649856e-01
0.000000e+00
1.000000e+00
5.641489e-01
5.544031e-01
5.438973e-01
5.331535e-01
5.229709e-01
5.144209e-01
5.086685e-01
5.066446e-01
5.087062e-01
5.144927e-01
5.230789e-01
5.332438e-01
5.439622e-01
5.544785e-01
5.640011e-01
0.000000e+00
1.000000e+00
5.633665e-01
5.527248e-01
5.412723e-01
5.295609e-01
5.184618e-01
5.091423e-01
5.028719e-01
5.006657e-01
5.029130e-01
5.092212e-01
5.185805e-01
5.296691e-01
5.413375e-01
5.528014e-01
5.632049e-01
0.000000e+00
1.000000e+00
5.628452e-01
5.515726e-01
5.394677e-01
5.270921e-01
5.153632e-01
5.055146e-01
4.988880e-01
4.965563e-01
4.989313e-01
5.055980e-01
5.154869e-01
5.272189e-01
5.395360e-01
5.516463e-01
5.626582e-01
0.000000e+00
1.000000e+00
5.626139e-01
5.510297e-01
5.386154e-01
5.259263e-01
5.138999e-01
5.038011e-01
4.970061e-01
4.946150e-01
4.970503e-01
5.038863e-01
5.140224e-01
5.260674e-01
5.386911e-01
5.510958e-01
5.623989e-01
0.000000e+00
1.000000e+00
5.626376e-01
5.511217e-01
5.387635e-01
5.261288e-01
5.141539e-01
5.040984e-01
4.973325e-01
4.949517e-01
4.973764e-01
5.041824e-01
5.142717e-01
5.262732e-01
5.388490e-01
5.511882e-01
5.624417e-01
0.000000e+00
1.000000e+00
5.629194e-01
5.518317e-01
5.398769e-01
5.276513e-01
5.160647e-01
5.063356e-01
4.997896e-01
4.974862e-01
4.998321e-01
5.064163e-01
5.161774e-01
5.277867e-01
5.399614e-01
5.518990e-01
5.627955e-01
0.000000e+00
1.000000e+00
5.635000e-01
5.530960e-01
5.418503e-01
5.303511e-01
5.194528e-01
5.103020e-01
5.041453e-01
5.019792e-01
5.041856e-01
5.103773e-01
5.195569e-01
5.304778e-01
5.419350e-01
5.531612e-01
5.633877e-01
0.000000e+00
1.000000e+00
5.643010e-01
5.548108e-01
5.445292e-01
5.340182e-01
5.240558e-01
5.156906e-01
5.100625e-01
5.080826e-01
5.100997e-01
5.157588e-01
5.241483e-01
5.341411e-01
5.446055e-01
5.548643e-01
5.642440e-01
0.000000e+00
1.000000e+00
5.652728e-01
5.568639e-01
5.477382e-01
5.384114e-01
5.295713e-01
5.221483e-01
5.171537e-01
5.153967e-01
5.171870e-01
5.222086e-01
5.296536e-01
5.385244e-01
5.478129e-01
5.569212e-01
5.652953e-01
0.000000e+00
1.000000e+00
5.663637e-01
5.591413e-01
5.513014e-01
5.432903e-01
5.356969e-01
5.293208e-01
5.250304e-01
5.235206e-01
5.250587e-01
5.293731e-01
5.357714e-01
5.433957e-01
5.513787e-01
5.592515e-01
5.659161e-01
0.000000e+00
1.000000e+00
5.712002e-01
5.691504e-01
5.669766e-01
5.647513e-01
5.626413e-01
5.608688e-01
5.596751e-01
5.592539e-01
5.596799e-01
5.608791e-01
5.626573e-01
5.647688e-01
5.669959e-01
5.690902e-01
5.712799e-01
0.000000e+00
1.000000e+00
5.704232e-01
5.675392e-01
5.644527e-01
5.612956e-01
5.583024e-01
5.557880e-01
5.540951e-01
5.534980e-01
5.541026e-01
5.558031e-01
5.583244e-01
5.613177e-01
5.644752e-01
5.675231e-01
5.701750e-01
0.000000e+00
1.000000e+00
5.695108e-01
5.656388e-01
5.614771e-01
5.572215e-01
5.531871e-01
5.497983e-01
5.475171e-01
5.467129e-01
5.475281e-01
5.498199e-01
5.532179e-01
5.572521e-01
5.615115e-01
5.656606e-01
5.692859e-01
0.000000e+00
1.000000e+00
5.684843e-01
5.634949e-01
5.581210e-01
5.526265e-01
5.474177e-01
5.430429e-01
5.400984e-01
5.390610e-01
5.401140e-01
5.430730e-01
5.474601e-01
5.526645e-01
5.581624e-01
5.635342e-01
5.682849e-01
0.000000e+00
1.000000e+00
5.673803e-01
5.611877e-01
5.545102e-01
5.476827e-01
5.412105e-01
5.357751e-01
5.321174e-01
5.308293e-01
5.321384e-01
5.358153e-01
5.412670e-01
5.477303e-01
5.545605e-01
5.612425e-01
5.672080e-01
0.000000e+00
1.000000e+00
5.662557e-01
5.588327e-01
5.508257e-01
5.426381e-01
5.348771e-01
5.283599e-01
5.239746e-01
5.224310e-01
5.240014e-01
5.284109e-01
5.349500e-01
5.426956e-01
5.508826e-01
5.588988e-01
5.660981e-01
0.000000e+00
1.000000e+00
5.651848e-01
5.565746e-01
5.472937e-01
5.378028e-01
5.288070e-01
5.212533e-01
5.161708e-01
5.143823e-01
5.162030e-01
5.213147e-01
5.288968e-01
5.378726e-01
5.473550e-01
5.566482e-01
5.650273e-01
0.000000e+00
1.000000e+00
5.642486e-01
5.545740e-01
5.441644e-01
5.335192e-01
5.234300e-01
5.149585e-01
5.092584e-01
5.072526e-01
5.092949e-01
5.150286e-01
5.235351e-01
5.336027e-01
5.442274e-01
5.546509e-01
5.640778e-01
0.000000e+00
1.000000e+00
5.635214e-01
5.529869e-01
5.416796e-01
5.301191e-01
5.191625e-01
5.099623e-01
5.037717e-01
5.015932e-01
5.038112e-01
5.100386e-01
5.192782e-01
5.302178e-01
5.417428e-01
5.530636e-01
5.633213e-01
0.000000e+00
1.000000e+00
5.630677e-01
5.519448e-01
5.400398e-01
5.278761e-01
5.163471e-01
5.066655e-01
5.001510e-01
4.978583e-01
5.001922e-01
5.067452e-01
5.164674e-01
5.279902e-01
5.401030e-01
5.520113e-01
5.628168e-01
0.000000e+00
1.000000e+00
5.629292e-01
5.515275e-01
5.393736e-01
5.269647e-01
5.152024e-01
5.053249e-01
4.986784e-01
4.963392e-01
4.987202e-01
5.054053e-01
5.153216e-01
5.270911e-01
5.394390e-01
5.515788e-01
5.626103e-01
0.000000e+00
1.000000e+00
5.629548e-01
5.517387e-01
5.397197e-01
5.274382e-01
5.157970e-01
5.060211e-01
4.994432e-01
4.971281e-01
4.994845e-01
5.061000e-01
5.159120e-01
5.275693e-01
5.397909e-01
5.517972e-01
5.627051e-01
0.000000e+00
1.000000e+00
5.632857e-01
5.525701e-01
5.410327e-01
5.292346e-01
5.180520e-01
5.086617e-01
5.023434e-01
5.001198e-01
5.023832e-01
5.087370e-01
5.181620e-01
5.293581e-01
5.411045e-01
5.526364e-01
5.631058e-01
0.000000e+00
1.000000e+00
5.639197e-01
5.539538e-01
5.431957e-01
5.321944e-01
5.217675e-01
5.130117e-01
5.071201e-01
5.050470e-01
5.071576e-01
5.130814e-01
5.218683e-01
5.323101e-01
5.432693e-01
5.540188e-01
5.637495e-01
0.000000e+00
1.000000e+00
5.647708e-01
5.557768e-01
5.460435e-01
5.360920e-01
5.266607e-01
5.187412e-01
5.134119e-01
5.115366e-01
5.134459e-01
5.188039e-01
5.267501e-01
5.362036e-01
5.461122e-01
5.558319e-01
5.646613e-01
0.000000e+00
1.000000e+00
5.657812e-01
5.579203e-01
5.493926e-01
5.406762e-01
5.324153e-01
5.254793e-01
5.208123e-01
5.191697e-01
5.208422e-01
5.255352e-01
5.324951e-01
5.407772e-01
5.494609e-01
5.579716e-01
5.657877e-01
0.000000e+00
1.000000e+00
5.669052e-01
5.602658e-01
5.530616e-01
5.456998e-01
5.387218e-01
5.328630e-01
5.289216e-01
5.275343e-01
5.289469e-01
5.329120e-01
5.387934e-01
5.457927e-01
5.531321e-01
5.603429e-01
5.666367e-01
0.000000e+00
1.000000e+00
5.713354e-01
5.694174e-01
5.673957e-01
5.653251e-01
5.633619e-01
5.617127e-01
5.606021e-01
5.602100e-01
5.606062e-01
5.617219e-01
5.633750e-01
5.653384e-01
5.674131e-01
5.693699e-01
5.721016e-01
0.000000e+00
1.000000e+00
5.706008e-01
5.678895e-01
5.650015e-01
5.620471e-01
5.592461e-01
5.568933e-01
5.553091e-01
5.547503e-01
5.553160e-01
5.569072e-01
5.592652e-01
5.620644e-01
5.650208e-01
5.678289e-01
5.707494e-01
0.000000e+00
1.000000e+00
5.697264e-01
5.660768e-01
5.621626e-01
5.581601e-01
5.543656e-01
5.511784e-01
5.490330e-01
5.482767e-01
5.490434e-01
5.511988e-01
5.543930e-01
5.581856e-01
5.621939e-01
5.660531e-01
5.697128e-01
0.000000e+00
1.000000e+00
5.687362e-01
5.640228e-01
5.589470e-01
5.537574e-01
5.488377e-01
5.447057e-01
5.419248e-01
5.409450e-01
5.419397e-01
5.447344e-01
5.488761e-01
5.537913e-01
5.589882e-01
5.640278e-01
5.686426e-01
0.000000e+00
1.000000e+00
5.676732e-01
5.618061e-01
5.554780e-01
5.490076e-01
5.428744e-01
5.377235e-01
5.342572e-01
5.330367e-01
5.342773e-01
5.377620e-01
5.429262e-01
5.490510e-01
5.555290e-01
5.618483e-01
5.674883e-01
0.000000e+00
1.000000e+00
5.665940e-01
5.595411e-01
5.519346e-01
5.441563e-01
5.367840e-01
5.305929e-01
5.264269e-01
5.249605e-01
5.264524e-01
5.306418e-01
5.368513e-01
5.442096e-01
5.519927e-01
5.596078e-01
5.664310e-01
0.000000e+00
1.000000e+00
5.655693e-01
5.573725e-01
5.485424e-01
5.395124e-01
5.309547e-01
5.237682e-01
5.189326e-01
5.172308e-01
5.189631e-01
5.238269e-01
5.310384e-01
5.395761e-01
5.486051e-01
5.574493e-01
5.654157e-01
0.000000e+00
1.000000e+00
5.646748e-01
5.554608e-01
5.455511e-01
5.354183e-01
5.258160e-01
5.177519e-01
5.123257e-01
5.104163e-01
5.123603e-01
5.178186e-01
5.259145e-01
5.354932e-01
5.456159e-01
5.555396e-01
5.645076e-01
0.000000e+00
1.000000e+00
5.639874e-01
5.539624e-01
5.432028e-01
5.322058e-01
5.217834e-01
5.130299e-01
5.071399e-01
5.050672e-01
5.071772e-01
5.131019e-01
5.218921e-01
5.322916e-01
5.432670e-01
5.540362e-01
5.637907e-01
0.000000e+00
1.000000e+00
5.636195e-01
5.530147e-01
5.416978e-01
5.301460e-01
5.191958e-01
5.099998e-01
5.038121e-01
5.016343e-01
5.038507e-01
5.100744e-01
5.193096e-01
5.302423e-01
5.417575e-01
5.530612e-01
5.633493e-01
0.000000e+00
1.000000e+00
5.636446e-01
5.526921e-01
5.411590e-01
5.294070e-01
5.182670e-01
5.089123e-01
5.026176e-01
5.004020e-01
5.026563e-01
5.089868e-01
5.183808e-01
5.295126e-01
5.412156e-01
5.527001e-01
5.631969e-01
0.000000e+00
1.000000e+00
5.636704e-01
5.529713e-01
5.416192e-01
5.300369e-01
5.190581e-01
5.098387e-01
5.036350e-01
5.014513e-01
5.036729e-01
5.099111e-01
5.191682e-01
5.301476e-01
5.416779e-01
5.529830e-01
5.633265e-01
0.000000e+00
1.000000e+00
5.639361e-01
5.538500e-01
5.430281e-01
5.319664e-01
5.214809e-01
5.126751e-01
5.067498e-01
5.046642e-01
5.067860e-01
5.127434e-01
5.215852e-01
5.320700e-01
5.430879e-01
5.538765e-01
5.637638e-01
0.000000e+00
1.000000e+00
5.645639e-01
5.552729e-01
5.452626e-01
5.350260e-01
5.253240e-01
5.171755e-01
5.116912e-01
5.097609e-01
5.117245e-01
5.172375e-01
5.254184e-01
5.351249e-01
5.453273e-01
5.553020e-01
5.644320e-01
0.000000e+00
1.000000e+00
5.654215e-01
5.571265e-01
5.481577e-01
5.389868e-01
5.302963e-01
5.229997e-01
5.180885e-01
5.163589e-01
5.181176e-01
5.230556e-01
5.303808e-01
5.390829e-01
5.482190e-01
5.571497e-01
5.653361e-01
0.000000e+00
1.000000e+00
5.664366e-01
5.592831e-01
5.515264e-01
5.435970e-01
5.360822e-01
5.297735e-01
5.255295e-01
5.240348e-01
5.255552e-01
5.298243e-01
5.361575e-01
5.436833e-01
5.515879e-01
5.593069e-01
5.664262e-01
0.000000e+00
1.000000e+00
5.675573e-01
5.616224e-01
5.551855e-01
5.486072e-01
5.423718e-01
5.371365e-01
5.336154e-01
5.323768e-01
5.336383e-01
5.371810e-01
5.424396e-01
5.486870e-01
5.552504e-01
5.616681e-01
5.673825e-01
0.000000e+00
1.000000e+00
5.717067e-01
5.701729e-01
5.685794e-01
5.669461e-01
5.653976e-01
5.640968e-01
5.632208e-01
5.629115e-01
5.632239e-01
5.641038e-01
5.654071e-01
5.669576e-01
5.686022e-01
5.702491e-01
5.727663e-01
0.000000e+00
1.000000e+00
5.710249e-01
5.687690e-01
5.663786e-01
5.639327e-01
5.616140e-01
5.596663e-01
5.583552e-01
5.578927e-01
5.583610e-01
5.596787e-01
5.616305e-01
5.639498e-01
5.664026e-01
5.687454e-01
5.716798e-01
0.000000e+00
1.000000e+00
5.702103e-01
5.670861e-01
5.637427e-01
5.603235e-01
5.570821e-01
5.543597e-01
5.525274e-01
5.518815e-01
5.525367e-01
5.543785e-01
5.571064e-01
5.603474e-01
5.637750e-01
5.670452e-01
5.705025e-01
0.000000e+00
1.000000e+00
5.692866e-01
5.651640e-01
5.607337e-01
5.562036e-01
5.519093e-01
5.483029e-01
5.458758e-01
5.450209e-01
5.458895e-01
5.483296e-01
5.519435e-01
5.562354e-01
5.607751e-01
5.651341e-01
5.694382e-01
0.000000e+00
1.000000e+00
5.682913e-01
5.630772e-01
5.574681e-01
5.517324e-01
5.462957e-01
5.417303e-01
5.386581e-01
5.375765e-01
5.386767e-01
5.417662e-01
5.463421e-01
5.517735e-01
5.575210e-01
5.630858e-01
5.681333e-01
0.000000e+00
1.000000e+00
5.672745e-01
5.609359e-01
5.541178e-01
5.471454e-01
5.405371e-01
5.349882e-01
5.312544e-01
5.299403e-01
5.312780e-01
5.350338e-01
5.405975e-01
5.471954e-01
5.541803e-01
5.609900e-01
5.670202e-01
0.000000e+00
1.000000e+00
5.663053e-01
5.588799e-01
5.509010e-01
5.427417e-01
5.350093e-01
5.285164e-01
5.241473e-01
5.226099e-01
5.241754e-01
5.285710e-01
5.350842e-01
5.427995e-01
5.509686e-01
5.589544e-01
5.660782e-01
0.000000e+00
1.000000e+00
5.654610e-01
5.570655e-01
5.480608e-01
5.388547e-01
5.301306e-01
5.228043e-01
5.178741e-01
5.161392e-01
5.179057e-01
5.228658e-01
5.302189e-01
5.389199e-01
5.481298e-01
5.571424e-01
5.652407e-01
0.000000e+00
1.000000e+00
5.648204e-01
5.556466e-01
5.458342e-01
5.358087e-01
5.263067e-01
5.183266e-01
5.129563e-01
5.110663e-01
5.129901e-01
5.183924e-01
5.264050e-01
5.358803e-01
5.459007e-01
5.557115e-01
5.646125e-01
0.000000e+00
1.000000e+00
5.644788e-01
5.547570e-01
5.444174e-01
5.338692e-01
5.238703e-01
5.154734e-01
5.098223e-01
5.078334e-01
5.098572e-01
5.155409e-01
5.239743e-01
5.339465e-01
5.444760e-01
5.547868e-01
5.642731e-01
0.000000e+00
1.000000e+00
5.645368e-01
5.544660e-01
5.439308e-01
5.332014e-01
5.230309e-01
5.144900e-01
5.087424e-01
5.067195e-01
5.087775e-01
5.145576e-01
5.231361e-01
5.332843e-01
5.439822e-01
5.544518e-01
5.642261e-01
0.000000e+00
1.000000e+00
5.646910e-01
5.547648e-01
5.444071e-01
5.338532e-01
5.238488e-01
5.154473e-01
5.097942e-01
5.078042e-01
5.098283e-01
5.155130e-01
5.239513e-01
5.339382e-01
5.444558e-01
5.547394e-01
5.644300e-01
0.000000e+00
1.000000e+00
5.649023e-01
5.556342e-01
5.457963e-01
5.357565e-01
5.262387e-01
5.182447e-01
5.128649e-01
5.109712e-01
5.128968e-01
5.183051e-01
5.263336e-01
5.358336e-01
5.458444e-01
5.556173e-01
5.649097e-01
0.000000e+00
1.000000e+00
5.654129e-01
5.570088e-01
5.479753e-01
5.387408e-01
5.299890e-01
5.226383e-01
5.176892e-01
5.159462e-01
5.177171e-01
5.226917e-01
5.300738e-01
5.388168e-01
5.480304e-01
5.570089e-01
5.656101e-01
0.000000e+00
1.000000e+00
5.662313e-01
5.588063e-01
5.507874e-01
5.425871e-01
5.348168e-01
5.282934e-01
5.239029e-01
5.223550e-01
5.239267e-01
5.283422e-01
5.348941e-01
5.426629e-01
5.508412e-01
5.588069e-01
5.664688e-01
0.000000e+00
1.000000e+00
5.672110e-01
5.608937e-01
5.540482e-01
5.470495e-01
5.404167e-01
5.348486e-01
5.311037e-01