<?xml version="1.0"?>
<VTKFile type="StructuredGrid" version="0.1">
  <StructuredGrid WholeExtent="0 16 0 16 0 16">
    <Piece Extent="0 16 0 16 0 16">
      <PointData Scalars="temperature" Vectors="velocity">
        <DataArray type="Float32" Name="temperature" format="ascii">
1.000000e+00
5.733617e-01
5.736940e-01
5.740817e-01
5.744803e-01
5.748586e-01
5.751769e-01
5.753915e-01
5.754671e-01
5.753903e-01
5.751746e-01
5.748613e-01
5.745224e-01
5.741467e-01
5.737589e-01
5.731781e-01
0.000000e+00
1.000000e+00
5.741616e-01
5.753105e-01
5.766161e-01
5.779507e-01
5.792165e-01
5.802806e-01
5.809977e-01
5.812514e-01
5.809970e-01
5.802795e-01
5.792191e-01
5.779881e-01
5.767040e-01
5.753864e-01
5.739666e-01
0.000000e+00
1.000000e+00
5.750988e-01
5.771816e-01
5.795517e-01
5.819704e-01
5.842646e-01
5.861931e-01
5.874930e-01
5.879540e-01
5.874951e-01
5.861984e-01
5.842841e-01
5.820309e-01
5.796546e-01
5.772660e-01
5.748589e-01
0.000000e+00
1.000000e+00
5.761456e-01
5.792645e-01
5.828240e-01
5.864510e-01
5.898913e-01
5.927835e-01
5.947337e-01
5.954265e-01
5.947408e-01
5.928003e-01
5.899380e-01
5.865392e-01
5.829311e-01
5.793585e-01
5.758490e-01
0.000000e+00
1.000000e+00
5.772526e-01
5.814955e-01
5.863299e-01
5.912509e-01
5.959186e-01
5.998427e-01
6.024891e-01
6.034306e-01
6.025033e-01
5.998766e-01
5.959963e-01
5.913601e-01
5.864387e-01
5.816004e-01
5.769098e-01
0.000000e+00
1.000000e+00
5.783974e-01
5.837842e-01
5.899280e-01
5.961772e-01
6.021047e-01
6.070883e-01
6.104502e-01
6.116480e-01
6.104737e-01
6.071441e-01
6.022131e-01
5.963042e-01
5.900394e-01
5.839014e-01
5.779972e-01
0.000000e+00
1.000000e+00
5.795267e-01
5.860190e-01
5.934476e-01
6.009959e-01
6.081557e-01
6.141762e-01
6.182390e-01
6.196890e-01
6.182755e-01
6.142598e-01
6.082921e-01
6.011389e-01
5.935565e-01
5.861649e-01
5.790317e-01
0.000000e+00
1.000000e+00
5.805731e-01
5.880816e-01
5.967023e-01
6.054515e-01
6.137509e-01
6.207306e-01
6.254431e-01
6.271291e-01
6.254980e-01
6.208461e-01
6.139111e-01
6.056108e-01
5.968020e-01
5.883265e-01
5.795810e-01
0.000000e+00
1.000000e+00
5.814886e-01
5.898530e-01
5.995076e-01
6.092917e-01
6.185738e-01
6.263820e-01
6.316570e-01
6.335496e-01
6.317338e-01
6.265287e-01
6.187534e-01
6.094678e-01
5.995931e-01
5.902972e-01
5.796972e-01
0.000000e+00
1.000000e+00
5.822309e-01
5.912255e-01
6.017015e-01
6.122959e-01
6.223488e-01
6.308075e-01
6.365252e-01
6.385820e-01
6.366214e-01
6.309784e-01
6.225446e-01
6.124882e-01
6.017780e-01
5.917923e-01
5.800259e-01
0.000000e+00
1.000000e+00
5.827429e-01
5.921221e-01
6.031647e-01
6.143017e-01
6.248713e-01
6.337662e-01
6.397807e-01
6.419474e-01
6.398887e-01
6.339522e-01
6.250812e-01
6.145056e-01
6.032428e-01
5.926274e-01
5.806419e-01
0.000000e+00
1.000000e+00
5.830122e-01
5.924917e-01
6.038314e-01
6.152197e-01
6.260274e-01
6.351221e-01
6.412719e-01
6.434881e-01
6.413832e-01
6.353129e-01
6.262449e-01
6.154232e-01
6.039226e-01
5.929026e-01
5.812153e-01
0.000000e+00
1.000000e+00
5.830594e-01
5.923052e-01
6.036944e-01
6.150358e-01
6.257968e-01
6.348514e-01
6.409731e-01
6.431779e-01
6.410813e-01
6.350386e-01
6.260194e-01
6.152394e-01
6.038040e-01
5.927073e-01
5.817266e-01
0.000000e+00
1.000000e+00
5.827891e-01
5.916474e-01
6.027980e-01
6.138055e-01
6.242494e-01
6.330381e-01
6.389807e-01
6.411171e-01
6.390784e-01
6.332185e-01
6.244734e-01
6.140055e-01
6.029190e-01
5.921087e-01
5.818510e-01
0.000000e+00
1.000000e+00
5.823520e-01
5.906232e-01
6.012182e-01
6.116403e-01
6.215300e-01
6.298531e-01
6.354819e-01
6.375000e-01
6.355649e-01
6.300278e-01
6.217485e-01
6.118394e-01
6.013465e-01
5.910919e-01
5.812778e-01
0.000000e+00
1.000000e+00
5.816798e-01
5.893016e-01
5.990660e-01
6.086959e-01
6.178334e-01
6.255226e-01
6.307230e-01
6.325872e-01
6.307994e-01
6.256921e-01
6.180432e-01
6.088963e-01
5.992068e-01
5.896984e-01
5.807314e-01
0.000000e+00
1.000000e+00
5.807368e-01
5.878011e-01
5.964771e-01
6.051487e-01
6.133772e-01
6.203008e-01
6.249837e-01
6.266653e-01
6.250602e-01
6.204663e-01
6.135832e-01
6.053581e-01
5.966439e-01
5.880795e-01
5.803714e-01
0.000000e+00
1.000000e+00
5.740351e-01
5.750394e-01
5.761941e-01
5.773728e-01
5.784907e-01
5.794303e-01
5.800634e-01
5.802874e-01
5.800624e-01
5.794281e-01
5.784910e-01
5.774020e-01
5.762649e-01
5.751051e-01
5.738325e-01
0.000000e+00
1.000000e+00
5.748557e-01
5.767109e-01
5.788151e-01
5.809615e-01
5.829973e-01
5.847085e-01
5.858618e-01
5.862706e-01
5.858629e-01
5.847110e-01
5.830111e-01
5.810143e-01
5.789115e-01
5.767915e-01
5.746288e-01
0.000000e+00
1.000000e+00
5.758250e-01
5.786405e-01
5.818437e-01
5.851084e-01
5.882048e-01
5.908078e-01
5.925629e-01
5.931862e-01
5.925682e-01
5.908206e-01
5.882451e-01
5.851890e-01
5.819443e-01
5.787274e-01
5.755479e-01
0.000000e+00
1.000000e+00
5.769070e-01
5.807814e-01
5.852102e-01
5.897179e-01
5.939934e-01
5.975875e-01
6.000113e-01
6.008732e-01
6.000229e-01
5.976162e-01
5.940640e-01
5.898221e-01
5.853163e-01
5.808812e-01
5.765646e-01
0.000000e+00
1.000000e+00
5.780422e-01
5.830655e-01
5.888015e-01
5.946349e-01
6.001679e-01
6.048195e-01
6.079573e-01
6.090747e-01
6.079777e-01
6.048692e-01
6.002695e-01
5.947625e-01
5.889134e-01
5.831777e-01
5.776553e-01
0.000000e+00
1.000000e+00
5.792054e-01
5.853933e-01
5.924634e-01
5.996481e-01
6.064630e-01
6.121930e-01
6.160596e-01
6.174388e-01
6.160923e-01
6.122702e-01
6.065947e-01
5.998011e-01
5.925807e-01
5.855167e-01
5.787580e-01
0.000000e+00
1.000000e+00
5.803521e-01
5.876415e-01
5.960083e-01
6.045014e-01
6.125577e-01
6.193324e-01
6.239058e-01
6.255409e-01
6.239568e-01
6.194431e-01
6.127160e-01
6.046838e-01
5.961288e-01
5.877803e-01
5.798852e-01
0.000000e+00
1.000000e+00
5.814040e-01
5.896796e-01
5.992336e-01
6.089170e-01
6.181030e-01
6.258294e-01
6.310484e-01
6.329201e-01
6.311235e-01
6.259754e-01
6.182825e-01
6.091293e-01
5.993529e-01
5.898608e-01
5.808577e-01
0.000000e+00
1.000000e+00
5.822909e-01
5.913831e-01
6.019416e-01
6.126241e-01
6.227594e-01
6.312871e-01
6.370514e-01
6.391252e-01
6.371506e-01
6.314642e-01
6.229562e-01
6.128628e-01
6.020537e-01
5.917137e-01
5.811138e-01
0.000000e+00
1.000000e+00
5.829791e-01
5.926378e-01
6.039616e-01
6.153911e-01
6.262377e-01
6.353663e-01
6.415401e-01
6.437661e-01
6.416566e-01
6.355664e-01
6.264526e-01
6.156440e-01
6.040761e-01
5.932093e-01
5.809281e-01
0.000000e+00
1.000000e+00
5.834163e-01
5.933652e-01
6.051746e-01
6.170561e-01
6.283329e-01
6.378243e-01
6.442446e-01
6.465611e-01
6.443688e-01
6.380382e-01
6.285677e-01
6.173031e-01
6.052960e-01
5.940166e-01
5.812275e-01
0.000000e+00
1.000000e+00
5.835661e-01
5.935284e-01
6.055245e-01
6.175401e-01
6.289428e-01
6.385389e-01
6.450294e-01
6.473710e-01
6.451545e-01
6.387581e-01
6.291899e-01
6.177683e-01
6.056386e-01
5.941225e-01
5.814196e-01
0.000000e+00
1.000000e+00
5.834408e-01
5.931263e-01
6.050183e-01
6.168482e-01
6.280725e-01
6.375178e-01
6.439051e-01
6.462081e-01
6.440258e-01
6.377322e-01
6.283195e-01
6.170605e-01
6.051300e-01
5.936333e-01
5.817044e-01
0.000000e+00
1.000000e+00
5.830833e-01
5.922250e-01
6.037163e-01
6.150622e-01
6.258273e-01
6.348868e-01
6.410130e-01
6.432185e-01
6.411231e-01
6.350904e-01
6.260693e-01
6.152715e-01
6.038423e-01
5.927088e-01
5.819715e-01
0.000000e+00
1.000000e+00
5.825064e-01
5.909485e-01
6.017159e-01
6.123235e-01
6.223887e-01
6.308595e-01
6.365881e-01
6.386473e-01
6.366882e-01
6.310560e-01
6.226240e-01
6.125380e-01
6.018633e-01
5.914152e-01
5.814655e-01
0.000000e+00
1.000000e+00
5.816152e-01
5.894320e-01
5.991578e-01
6.088211e-01
6.179905e-01
6.257065e-01
6.309248e-01
6.328004e-01
6.310185e-01
6.258928e-01
6.182122e-01
6.090359e-01
5.993268e-01
5.897805e-01
5.808629e-01
0.000000e+00
1.000000e+00
5.805767e-01
5.876569e-01
5.961868e-01
6.047508e-01
6.128775e-01
6.197155e-01
6.243398e-01
6.260034e-01
6.244241e-01
6.198814e-01
6.130760e-01
6.049550e-01
5.963605e-01
5.879261e-01
5.803955e-01
0.000000e+00
1.000000e+00
5.745976e-01
5.761615e-01
5.779568e-01
5.797862e-01
5.815212e-01
5.829795e-01
5.839622e-01
5.843104e-01
5.839625e-01
5.829795e-01
5.815281e-01
5.798260e-01
5.780290e-01
5.762270e-01
5.743691e-01
0.000000e+00
1.000000e+00
5.754447e-01
5.778713e-01
5.806394e-01
5.834593e-01
5.861337e-01
5.883816e-01
5.898971e-01
5.904349e-01
5.899004e-01
5.883886e-01
5.861612e-01
5.835260e-01
5.807225e-01
5.779455e-01
5.751794e-01
0.000000e+00
1.000000e+00
5.764349e-01
5.798416e-01
5.837348e-01
5.876976e-01
5.914560e-01
5.946154e-01
5.967458e-01
5.975032e-01
5.967547e-01
5.946363e-01
5.915125e-01
5.877913e-01
5.838258e-01
5.799274e-01
5.761177e-01
0.000000e+00
1.000000e+00
5.775322e-01
5.820247e-01
5.871681e-01
5.923985e-01
5.973594e-01
6.015300e-01
6.043430e-01
6.053445e-01
6.043597e-01
6.015697e-01
5.974466e-01
5.925171e-01
5.872679e-01
5.821256e-01
5.771587e-01
0.000000e+00
1.000000e+00
5.786901e-01
5.843441e-01
5.908174e-01
5.973949e-01
6.036335e-01
6.088789e-01
6.124180e-01
6.136799e-01
6.124454e-01
6.089445e-01
6.037517e-01
5.975409e-01
5.909256e-01
5.844600e-01
5.782624e-01
0.000000e+00
1.000000e+00
5.798647e-01
5.866938e-01
5.945162e-01
6.024584e-01
6.099918e-01
6.163265e-01
6.206023e-01
6.221299e-01
6.206463e-01
6.164264e-01
6.101391e-01
6.026355e-01
5.946341e-01
5.868242e-01
5.793883e-01
0.000000e+00
1.000000e+00
5.810154e-01
5.889399e-01
5.980615e-01
6.073121e-01
6.160871e-01
6.234672e-01
6.284512e-01
6.302371e-01
6.285196e-01
6.236071e-01
6.162596e-01
6.075242e-01
5.981926e-01
5.890914e-01
5.804631e-01
0.000000e+00
1.000000e+00
5.820648e-01
5.909397e-01
6.012350e-01
6.116572e-01
6.215445e-01
6.298623e-01
6.354838e-01
6.375053e-01
6.355803e-01
6.300406e-01
6.217382e-01
6.119006e-01
6.013827e-01
5.911281e-01
5.814200e-01
0.000000e+00
1.000000e+00
5.829229e-01
5.925626e-01
6.038270e-01
6.152061e-01
6.260035e-01
6.350902e-01
6.412357e-01
6.434522e-01
6.413549e-01
6.352974e-01
6.262183e-01
6.154661e-01
6.039897e-01
5.928482e-01
5.818939e-01
0.000000e+00
1.000000e+00
5.835533e-01
5.936931e-01
6.056605e-01
6.177190e-01
6.291637e-01
6.387973e-01
6.453153e-01
6.476691e-01
6.454457e-01
6.390203e-01
6.294044e-01
6.179703e-01
6.058435e-01
5.942079e-01
5.818488e-01
0.000000e+00
1.000000e+00
5.838985e-01
5.942593e-01
6.066179e-01
6.190352e-01
6.308209e-01
6.407413e-01
6.474530e-01
6.498763e-01
6.475847e-01
6.409697e-01
6.310858e-01
6.192892e-01
6.067947e-01
5.949863e-01
5.817302e-01
0.000000e+00
1.000000e+00
5.839318e-01
5.942348e-01
6.066543e-01
6.190886e-01
6.308882e-01
6.408186e-01
6.475362e-01
6.499594e-01
6.476630e-01
6.410474e-01
6.311693e-01
6.193436e-01
6.067878e-01
5.949503e-01
5.817306e-01
0.000000e+00
1.000000e+00
5.837107e-01
5.936012e-01
6.057871e-01
6.179025e-01
6.293972e-01
6.390702e-01
6.456118e-01
6.479701e-01
6.457342e-01
6.392947e-01
6.296745e-01
6.181376e-01
6.059073e-01
5.942065e-01
5.818760e-01
0.000000e+00
1.000000e+00
5.832149e-01
5.924814e-01
6.040985e-01
6.155877e-01
6.264887e-01
6.356627e-01
6.418667e-01
6.441008e-01
6.419816e-01
6.358792e-01
6.267498e-01
6.158130e-01
6.042345e-01
5.929778e-01
5.819198e-01
0.000000e+00
1.000000e+00
5.824380e-01
5.910371e-01
6.017139e-01
6.123212e-01
6.223861e-01
6.308571e-01
6.365861e-01
6.386469e-01
6.366924e-01
6.310627e-01
6.226290e-01
6.125437e-01
6.018711e-01
5.914148e-01
5.813763e-01
0.000000e+00
1.000000e+00
5.814291e-01
5.892855e-01
5.987911e-01
6.083169e-01
6.173563e-01
6.249627e-01
6.301070e-01
6.319578e-01
6.302033e-01
6.251500e-01
6.175755e-01
6.085299e-01
5.989633e-01
5.895686e-01
5.808791e-01
0.000000e+00
1.000000e+00
5.803084e-01
5.872469e-01
5.954859e-01
6.037890e-01
6.116682e-01
6.182974e-01
6.227798e-01
6.243938e-01
6.228633e-01
6.184581e-01
6.118576e-01
6.039866e-01
5.956575e-01
5.874764e-01
5.801774e-01
0.000000e+00
1.000000e+00
5.750068e-01
5.769817e-01
5.792449e-01
5.815497e-01
5.837356e-01
5.855727e-01
5.868110e-01
5.872502e-01
5.868126e-01
5.855758e-01
5.837527e-01
5.816022e-01
5.793131e-01
5.770438e-01
5.747578e-01
0.000000e+00
1.000000e+00
5.758752e-01
5.787055e-01
5.819520e-01
5.852566e-01
5.883906e-01
5.910248e-01
5.928009e-01
5.934317e-01
5.928063e-01
5.910371e-01
5.884281e-01
5.853303e-01
5.820289e-01
5.787777e-01
5.755770e-01
0.000000e+00
1.000000e+00
5.768763e-01
5.806913e-01
5.850748e-01
5.895324e-01
5.937601e-01
5.973142e-01
5.997110e-01
6.005638e-01
5.997231e-01
5.973420e-01
5.938246e-01
5.896332e-01
5.851620e-01
5.807788e-01
5.765251e-01
0.000000e+00
1.000000e+00
5.779767e-01
5.828912e-01
5.885350e-01
5.942700e-01
5.997097e-01
6.042829e-01
6.073681e-01
6.084673e-01
6.073888e-01
6.043320e-01
5.998043e-01
5.943980e-01
5.886351e-01
5.829959e-01
5.775747e-01
0.000000e+00
1.000000e+00
5.791442e-01
5.852215e-01
5.922032e-01
5.992924e-01
6.060165e-01
6.116702e-01
6.154856e-01
6.168471e-01
6.155192e-01
6.117498e-01
6.061427e-01
5.994479e-01
5.923164e-01
5.853423e-01
5.786862e-01
0.000000e+00
1.000000e+00
5.803178e-01
5.875706e-01
5.959029e-01
6.043570e-01
6.123760e-01
6.191196e-01
6.236724e-01
6.253008e-01
6.237265e-01
6.192393e-01
6.125330e-01
6.045421e-01
5.960332e-01
5.877064e-01
5.798109e-01
0.000000e+00
1.000000e+00
5.814528e-01
5.897978e-01
5.994182e-01
6.091693e-01
6.184194e-01
6.261998e-01
6.314558e-01
6.333423e-01
6.315384e-01
6.263644e-01
6.186042e-01
6.093844e-01
5.995765e-01
5.899513e-01
5.808664e-01
0.000000e+00
1.000000e+00
5.824811e-01
5.917496e-01
6.025168e-01
6.134122e-01
6.237490e-01
6.324461e-01
6.383261e-01
6.404444e-01
6.384380e-01
6.326518e-01
6.239659e-01
6.136325e-01
6.027188e-01
5.919329e-01
5.818460e-01
0.000000e+00
1.000000e+00
5.833047e-01
5.932888e-01
6.049791e-01
6.167844e-01
6.279869e-01
6.374156e-01
6.437944e-01
6.460983e-01
6.439260e-01
6.376481e-01
6.282389e-01
6.169932e-01
6.052098e-01
5.935441e-01
5.824447e-01
0.000000e+00
1.000000e+00
5.838588e-01
5.943063e-01
6.066241e-01
6.190397e-01
6.308236e-01
6.407436e-01
6.474566e-01
6.498823e-01
6.475937e-01
6.409823e-01
6.310954e-01
6.192675e-01
6.068395e-01
5.947645e-01
5.824448e-01
0.000000e+00
1.000000e+00
5.841097e-01
5.947315e-01
6.073380e-01
6.200207e-01
6.320588e-01
6.421920e-01
6.490492e-01
6.515251e-01
6.491808e-01
6.424242e-01
6.323397e-01
6.202879e-01
6.075244e-01
5.955231e-01
5.820693e-01
0.000000e+00
1.000000e+00
5.840962e-01
5.945032e-01
6.070766e-01
6.196684e-01
6.316185e-01
6.416761e-01
6.484809e-01
6.509364e-01
6.486075e-01
6.419025e-01
6.319160e-01
6.199603e-01
6.072431e-01
5.953939e-01
5.817880e-01
0.000000e+00
1.000000e+00
5.837882e-01
5.936717e-01
6.058825e-01
6.180354e-01
6.295669e-01
6.392712e-01
6.458351e-01
6.482037e-01
6.459614e-01
6.394959e-01
6.298609e-01
6.182977e-01
6.060172e-01
5.943701e-01
5.817325e-01
0.000000e+00
1.000000e+00
5.831159e-01
5.924108e-01
6.038610e-01
6.152628e-01
6.260814e-01
6.351864e-01
6.413442e-01
6.435637e-01
6.414643e-01
6.354089e-01
6.263492e-01
6.154977e-01
6.040007e-01
5.928581e-01
5.816941e-01
0.000000e+00
1.000000e+00
5.821617e-01
5.907853e-01
6.011524e-01
6.115501e-01
6.214166e-01
6.297206e-01
6.353365e-01
6.373577e-01
6.354443e-01
6.299265e-01
6.216566e-01
6.117707e-01
6.013073e-01
5.910673e-01
5.811581e-01
0.000000e+00
1.000000e+00
5.810942e-01
5.887922e-01
5.979281e-01
6.071328e-01
6.158674e-01
6.232167e-01
6.281862e-01
6.299743e-01
6.282794e-01
6.233976e-01
6.160784e-01
6.073366e-01
5.980976e-01
5.890235e-01
5.806361e-01
0.000000e+00
1.000000e+00
5.799203e-01
5.865501e-01
5.943564e-01
6.022414e-01
6.097230e-01
6.160170e-01
6.202710e-01
6.218021e-01
6.203479e-01
6.161669e-01
6.098990e-01
6.024255e-01
5.945234e-01
5.867350e-01
5.798837e-01
0.000000e+00
1.000000e+00
5.752279e-01
5.774244e-01
5.799401e-01
5.825017e-01
5.849309e-01
5.869726e-01
5.883489e-01
5.888372e-01
5.883516e-01
5.869786e-01
5.849527e-01
5.825591e-01
5.800077e-01
5.774827e-01
5.749662e-01
0.000000e+00
1.000000e+00
5.760916e-01
5.791321e-01
5.826227e-01
5.861748e-01
5.895436e-01
5.923753e-01
5.942845e-01
5.949629e-01
5.942914e-01
5.923910e-01
5.895833e-01
5.862502e-01
5.826992e-01
5.792021e-01
5.757799e-01
0.000000e+00
1.000000e+00
5.770845e-01
5.811024e-01
5.857209e-01
5.904171e-01
5.948711e-01
5.986154e-01
6.011408e-01
6.020397e-01
6.011545e-01
5.986467e-01
5.949363e-01
5.905193e-01
5.858106e-01
5.811886e-01
5.767217e-01
0.000000e+00
1.000000e+00
5.781766e-01
5.832862e-01
5.891557e-01
5.951198e-01
6.007768e-01
6.055329e-01
6.087417e-01
6.098854e-01
6.087644e-01
6.055868e-01
6.008737e-01
5.952460e-01
5.892601e-01
5.833887e-01
5.777612e-01
0.000000e+00
1.000000e+00
5.793370e-01
5.855965e-01
5.927927e-01
6.000996e-01
6.070302e-01
6.128578e-01
6.167908e-01
6.181947e-01
6.168272e-01
6.129445e-01
6.071620e-01
6.002506e-01
5.929136e-01
5.857158e-01
5.788639e-01
0.000000e+00
1.000000e+00
5.804981e-01
5.879177e-01
5.964485e-01
6.051043e-01
6.133146e-01
6.202192e-01
6.248811e-01
6.265494e-01
6.249393e-01
6.203485e-01
6.134792e-01
6.052842e-01
5.965910e-01
5.880522e-01
5.799742e-01
0.000000e+00
1.000000e+00
5.816012e-01
5.901058e-01
5.998986e-01
6.098271e-01
6.192453e-01
6.271674e-01
6.325198e-01
6.344419e-01
6.326072e-01
6.273432e-01
6.194420e-01
6.100286e-01
6.000756e-01
5.902572e-01
5.810188e-01
0.000000e+00
1.000000e+00
5.825896e-01
5.920003e-01
6.029002e-01
6.139371e-01
6.244082e-01
6.332185e-01
6.391754e-01
6.413224e-01
6.392909e-01
6.334351e-01
6.246467e-01
6.141362e-01
6.031214e-01
5.921764e-01
5.819487e-01
0.000000e+00
1.000000e+00
5.833667e-01
5.934585e-01
6.052258e-01
6.171229e-01
6.284122e-01
6.379139e-01
6.443422e-01
6.466639e-01
6.444742e-01
6.381533e-01
6.286876e-01
6.173203e-01
6.054794e-01
5.936735e-01
5.826540e-01
0.000000e+00
1.000000e+00
5.838597e-01
5.943723e-01
6.066943e-01
6.191353e-01
6.309426e-01
6.408822e-01
6.476091e-01
6.500404e-01
6.477427e-01
6.411188e-01
6.312189e-01
6.193770e-01
6.069175e-01
5.947349e-01
5.829233e-01
0.000000e+00
1.000000e+00
5.840529e-01
5.946548e-01
6.071888e-01
6.198144e-01
6.317993e-01
6.418893e-01
6.487190e-01
6.511873e-01
6.488493e-01
6.421124e-01
6.320800e-01
6.201101e-01
6.073840e-01
5.952831e-01
5.824014e-01
0.000000e+00
1.000000e+00
5.839727e-01
5.942741e-01
6.066793e-01
6.191216e-01
6.309324e-01
6.408745e-01
6.476026e-01
6.500347e-01
6.477344e-01
6.410903e-01
6.312348e-01
6.194385e-01
6.068656e-01
5.950328e-01
5.817716e-01
0.000000e+00
1.000000e+00
5.835571e-01
5.933150e-01
6.052243e-01
6.171312e-01
6.284319e-01
6.379427e-01
6.443766e-01
6.467014e-01
6.445063e-01
6.381619e-01
6.287283e-01
6.174103e-01
6.053687e-01
5.938945e-01
5.817050e-01
0.000000e+00
1.000000e+00
5.827483e-01
5.919188e-01
6.029452e-01
6.140062e-01
6.245021e-01
6.333353e-01
6.393091e-01
6.414632e-01
6.394290e-01
6.335545e-01
6.247627e-01
6.142422e-01
6.030853e-01
5.922949e-01
5.814770e-01
0.000000e+00
1.000000e+00
5.817130e-01
5.901124e-01
5.999960e-01
6.099637e-01
6.194218e-01
6.273811e-01
6.327629e-01
6.346994e-01
6.328660e-01
6.275772e-01
6.196476e-01
6.101744e-01
6.001439e-01
5.903598e-01
5.808594e-01
0.000000e+00
1.000000e+00
5.805932e-01
5.879556e-01
5.965580e-01
6.052548e-01
6.135065e-01
6.204486e-01
6.251408e-01
6.268276e-01
6.252243e-01
6.206147e-01
6.137013e-01
6.054428e-01
5.967169e-01
5.881399e-01
5.802396e-01
0.000000e+00
1.000000e+00
5.793967e-01
5.855814e-01
5.928085e-01
6.001213e-01
6.070596e-01
6.128953e-01
6.168377e-01
6.182541e-01
6.169024e-01
6.130273e-01
6.072172e-01
6.002874e-01
5.929640e-01
5.857346e-01
5.791613e-01
0.000000e+00
1.000000e+00
5.752348e-01
5.774274e-01
5.799452e-01
5.825087e-01
5.849397e-01
5.869829e-01
5.883601e-01
5.888487e-01
5.883627e-01
5.869887e-01
5.849590e-01
5.825632e-01
5.800159e-01
5.774807e-01
5.749621e-01
0.000000e+00
1.000000e+00
5.760582e-01
5.790828e-01
5.825441e-01
5.860672e-01
5.894084e-01
5.922169e-01
5.941104e-01
5.947831e-01
5.941169e-01
5.922318e-01
5.894452e-01
5.861389e-01
5.826248e-01
5.791482e-01
5.757520e-01
0.000000e+00
1.000000e+00
5.770172e-01
5.810000e-01
5.855562e-01
5.901913e-01
5.945874e-01
5.982830e-01
6.007755e-01
6.016625e-01
6.007887e-01
5.983133e-01
5.946512e-01
5.902874e-01
5.856507e-01
5.810793e-01
5.766675e-01
0.000000e+00
1.000000e+00
5.780873e-01
5.831292e-01
5.889034e-01
5.947743e-01
6.003427e-01
6.050243e-01
6.081829e-01
6.093084e-01
6.082046e-01
6.050766e-01
6.004417e-01
5.948906e-01
5.890134e-01
5.832239e-01
5.776814e-01
0.000000e+00
1.000000e+00
5.792190e-01
5.853837e-01
5.924508e-01
5.996313e-01
6.064422e-01
6.121688e-01
6.160337e-01
6.174130e-01
6.160681e-01
6.122527e-01
6.065780e-01
5.997736e-01
5.925761e-01
5.854942e-01
5.787568e-01
0.000000e+00
1.000000e+00
5.803451e-01
5.876468e-01
5.960122e-01
6.045071e-01
6.125646e-01
6.193405e-01
6.239152e-01
6.255516e-01
6.239693e-01
6.194648e-01
6.127349e-01
6.046797e-01
5.961559e-01
5.877707e-01
5.798374e-01
0.000000e+00
1.000000e+00
5.814067e-01
5.897722e-01
5.993593e-01
6.090888e-01
6.183181e-01
6.260809e-01
6.313249e-01
6.332066e-01
6.314050e-01
6.262484e-01
6.185227e-01
6.092912e-01
5.995252e-01
5.899075e-01
5.808528e-01
0.000000e+00
1.000000e+00
5.823480e-01
5.915975e-01
6.022441e-01
6.130390e-01
6.232802e-01
6.318962e-01
6.377205e-01
6.398170e-01
6.378254e-01
6.320989e-01
6.235144e-01
6.132718e-01
6.024420e-01
5.917470e-01
5.817290e-01
0.000000e+00
1.000000e+00
5.830859e-01
5.929759e-01
6.044356e-01
6.160410e-01
6.270525e-01
6.363191e-01
6.425872e-01
6.448495e-01
6.427074e-01
6.365403e-01
6.273118e-01
6.162858e-01
6.046736e-01
5.931425e-01
5.824012e-01
0.000000e+00
1.000000e+00
5.835306e-01
5.937948e-01
6.057517e-01
6.178420e-01
6.293156e-01
6.389742e-01
6.455115e-01
6.478761e-01
6.456398e-01
6.391942e-01
6.295876e-01
6.181093e-01
6.059890e-01
5.939848e-01
5.825968e-01
0.000000e+00
1.000000e+00
5.836829e-01
5.939717e-01
6.060783e-01
6.182895e-01
6.298804e-01
6.396395e-01
6.462465e-01
6.486390e-01
6.463817e-01
6.398473e-01
6.301640e-01
6.186109e-01
6.062886e-01
5.942987e-01
5.820925e-01
0.000000e+00
1.000000e+00
5.835242e-01
5.935024e-01
6.053948e-01
6.173567e-01
6.287120e-01
6.382716e-01
6.447418e-01
6.470843e-01
6.448772e-01
6.384760e-01
6.290080e-01
6.176776e-01
6.055639e-01
5.939830e-01
5.818190e-01
0.000000e+00
1.000000e+00
5.830177e-01
5.924618e-01
6.037686e-01
6.151318e-01
6.259170e-01
6.349945e-01
6.411352e-01
6.433550e-01
6.412625e-01
6.352047e-01
6.261977e-01
6.154041e-01
6.039110e-01
5.928514e-01
5.817097e-01
0.000000e+00
1.000000e+00
5.821658e-01
5.909506e-01
6.013303e-01
6.117914e-01
6.217182e-01
6.300711e-01
6.357186e-01
6.377541e-01
6.358310e-01
6.302759e-01
6.219584e-01
6.120156e-01
6.014663e-01
5.912425e-01
5.810988e-01
0.000000e+00
1.000000e+00
5.811011e-01
5.890326e-01
5.982461e-01
6.075661e-01
6.164088e-01
6.238485e-01
6.288766e-01
6.306837e-01
6.289675e-01
6.240247e-01
6.166123e-01
6.077581e-01
5.983856e-01
5.892460e-01
5.803331e-01
0.000000e+00
1.000000e+00
5.799516e-01
5.867962e-01
5.947036e-01
6.027149e-01
6.103153e-01
6.167083e-01
6.210270e-01
6.225767e-01
6.210954e-01
6.168514e-01
6.104877e-01
6.028808e-01
5.948505e-01
5.869553e-01
5.796144e-01
0.000000e+00
1.000000e+00
5.787550e-01
5.843678e-01
5.908827e-01
5.974844e-01
6.037475e-01
6.090148e-01
6.125713e-01
6.138456e-01
6.126207e-01
6.091229e-01
6.038835e-01
5.976289e-01
5.910232e-01
5.845024e-01
5.783504e-01
0.000000e+00
1.000000e+00
5.750007e-01
5.769528e-01
5.791988e-01
5.814868e-01
5.836565e-01
5.854802e-01
5.867093e-01
5.871450e-01
5.867103e-01
5.854824e-01
5.836661e-01
5.815321e-01
5.792753e-01
5.770048e-01
5.747580e-01
0.000000e+00
1.000000e+00
5.757781e-01
5.785141e-01
5.816498e-01
5.848429e-01
5.878710e-01
5.904163e-01
5.921321e-01
5.927412e-01
5.921365e-01
5.904264e-01
5.879001e-01
5.849115e-01
5.817357e-01
5.785766e-01
5.754834e-01
0.000000e+00
1.000000e+00
5.766836e-01
5.803346e-01
5.845088e-01
5.887573e-01
5.927866e-01
5.961738e-01
5.984580e-01
5.992703e-01
5.984685e-01
5.961983e-01
5.928479e-01
5.888494e-01
5.846097e-01
5.804102e-01
5.763512e-01
0.000000e+00
1.000000e+00
5.776979e-01
5.823679e-01
5.877023e-01
5.931298e-01
5.982776e-01
6.026054e-01
6.055248e-01
6.065646e-01
6.055430e-01
6.026490e-01
5.983759e-01
5.932405e-01
5.878180e-01
5.824578e-01
5.773174e-01
0.000000e+00
1.000000e+00
5.787711e-01
5.845291e-01
5.910986e-01
5.977798e-01
6.041170e-01
6.094453e-01
6.130407e-01
6.143231e-01
6.130691e-01
6.095153e-01
6.042521e-01
5.979190e-01
5.912259e-01
5.846319e-01
5.783456e-01
0.000000e+00
1.000000e+00
5.798491e-01
5.867007e-01
5.945137e-01
6.024556e-01
6.099885e-01
6.163230e-01
6.205988e-01
6.221267e-01
6.206423e-01
6.164268e-01
6.101586e-01
6.026284e-01
5.946511e-01
5.868159e-01
5.793816e-01
0.000000e+00
1.000000e+00
5.808689e-01
5.887384e-01
5.977213e-01
6.068469e-01
6.155032e-01
6.227835e-01
6.277001e-01
6.294611e-01
6.277636e-01
6.229231e-01
6.157034e-01
6.070595e-01
5.978692e-01
5.888641e-01
5.803529e-01
0.000000e+00
1.000000e+00
5.817647e-01
5.904838e-01
6.004752e-01
6.106178e-01
6.202395e-01
6.283334e-01
6.338027e-01
6.357678e-01
6.338876e-01
6.285027e-01
6.204596e-01
6.108750e-01
6.006428e-01
5.906200e-01
5.811898e-01
0.000000e+00
1.000000e+00
5.824500e-01
5.917932e-01
6.025472e-01
6.134537e-01
6.238007e-01
6.325063e-01
6.383929e-01
6.405160e-01
6.384980e-01
6.326941e-01
6.240402e-01
6.137303e-01
6.027456e-01
5.919406e-01
5.818229e-01
0.000000e+00
1.000000e+00
5.828732e-01
5.925407e-01
6.037503e-01
6.150995e-01
6.258677e-01
6.349302e-01
6.410621e-01
6.432804e-01
6.411863e-01
6.351251e-01
6.261318e-01
6.153840e-01
6.039561e-01
5.927008e-01
5.822148e-01
0.000000e+00
1.000000e+00
5.829923e-01
5.926630e-01
6.039780e-01
6.154112e-01
6.262609e-01
6.353936e-01
6.415745e-01
6.438134e-01
6.417077e-01
6.355854e-01
6.265363e-01
6.157188e-01
6.041531e-01
5.928680e-01
5.821667e-01
0.000000e+00
1.000000e+00
5.827752e-01
5.921604e-01
6.032134e-01
6.143658e-01
6.249500e-01
6.338587e-01
6.398865e-01
6.420684e-01
6.400149e-01
6.340510e-01
6.252221e-01
6.146568e-01
6.033586e-01
5.924117e-01
5.817722e-01
0.000000e+00
1.000000e+00
5.822246e-01
5.910886e-01
6.015256e-01
6.120562e-01
6.220494e-01
6.304589e-01
6.361455e-01
6.381988e-01
6.362610e-01
6.306521e-01
6.222977e-01
6.123007e-01
6.016599e-01
5.913350e-01
5.813225e-01
0.000000e+00
1.000000e+00
5.813873e-01
5.895336e-01
5.990476e-01
6.086638e-01
6.177878e-01
6.254638e-01
6.306510e-01
6.325170e-01
6.307474e-01
6.256437e-01
6.179984e-01
6.088650e-01
5.991759e-01
5.897506e-01
5.805539e-01
0.000000e+00
1.000000e+00
5.803488e-01
5.875894e-01
5.959524e-01
6.044252e-01
6.124633e-01
6.192249e-01
6.237920e-01
6.254298e-01
6.238644e-01
6.193738e-01
6.126406e-01
6.045938e-01
5.960821e-01
5.877687e-01
5.796792e-01
0.000000e+00
1.000000e+00
5.792149e-01
5.853571e-01
5.924276e-01
5.995993e-01
6.064024e-01
6.121237e-01
6.159868e-01
6.173699e-01
6.160379e-01
6.122393e-01
6.065490e-01
5.997419e-01
5.925601e-01
5.855022e-01
5.788058e-01
0.000000e+00
1.000000e+00
5.780335e-01
5.829557e-01
5.886523e-01
5.944309e-01
5.999126e-01
6.045222e-01
6.076334e-01
6.087455e-01
6.076686e-01
6.046045e-01
6.000258e-01
5.945540e-01
5.887754e-01
5.830779e-01
5.776120e-01
0.000000e+00
1.000000e+00
5.745181e-01
5.759920e-01
5.776883e-01
5.794186e-01
5.810595e-01
5.824387e-01
5.833681e-01
5.836971e-01
5.833674e-01
5.824370e-01
5.810567e-01
5.794445e-01
5.777660e-01
5.760482e-01
5.743357e-01
0.000000e+00
1.000000e+00
5.752363e-01
5.774199e-01
5.799295e-01
5.824875e-01
5.849135e-01
5.869528e-01
5.883275e-01
5.888152e-01
5.883295e-01
5.869562e-01
5.849252e-01
5.825487e-01
5.800241e-01
5.774879e-01
5.749454e-01
0.000000e+00
1.000000e+00
5.760699e-01
5.791027e-01
5.825711e-01
5.861044e-01
5.894555e-01
5.922726e-01
5.941721e-01
5.948471e-01
5.941787e-01
5.922872e-01
5.895009e-01
5.862006e-01
5.826813e-01
5.791823e-01
5.757465e-01
0.000000e+00
1.000000e+00
5.770057e-01
5.809989e-01
5.855480e-01
5.901803e-01
5.945739e-01
5.982676e-01
6.007588e-01
6.016453e-01
6.007717e-01
5.982969e-01
5.946574e-01
5.902959e-01
5.856717e-01
5.810924e-01
5.766518e-01
0.000000e+00
1.000000e+00
5.780121e-01
5.830285e-01
5.887356e-01
5.945446e-01
6.000546e-01
6.046872e-01
6.078126e-01
6.089263e-01
6.078335e-01
6.047355e-01
6.001747e-01
5.946876e-01
5.888672e-01
5.831337e-01
5.776213e-01
0.000000e+00
1.000000e+00
5.790416e-01
5.850769e-01
5.919578e-01
5.989567e-01
6.055956e-01
6.111779e-01
6.149451e-01
6.162896e-01
6.149765e-01
6.112506e-01
6.057508e-01
5.991341e-01
5.920951e-01
5.851941e-01
5.786012e-01
0.000000e+00
1.000000e+00
5.800090e-01
5.870079e-01
5.949972e-01
6.031184e-01
6.108220e-01
6.173006e-01
6.216743e-01
6.232383e-01
6.217196e-01
6.174010e-01
6.110079e-01
6.033305e-01
5.951397e-01
5.871351e-01
5.795236e-01
0.000000e+00
1.000000e+00
5.808445e-01
5.886747e-01
5.976182e-01
6.067060e-01
6.153264e-01
6.225764e-01
6.274727e-01
6.292281e-01
6.275355e-01
6.227017e-01
6.155317e-01
6.069505e-01
5.977656e-01
5.888047e-01
5.803176e-01
0.000000e+00
1.000000e+00
5.814926e-01
5.899234e-01
5.995905e-01
6.094049e-01
6.187146e-01
6.265451e-01
6.318359e-01
6.337391e-01
6.319223e-01
6.266938e-01
6.189383e-01
6.096697e-01
5.997516e-01
5.900617e-01
5.809133e-01
0.000000e+00
1.000000e+00
5.818894e-01
5.906405e-01
6.007352e-01
6.109710e-01
6.206807e-01
6.288489e-01
6.343706e-01
6.363622e-01
6.344762e-01
6.290136e-01
6.209245e-01
6.112313e-01
6.009019e-01
5.907831e-01
5.812724e-01
0.000000e+00
1.000000e+00
5.819835e-01
5.907623e-01
6.009459e-01
6.112590e-01
6.210430e-01
6.292748e-01
6.348408e-01
6.368511e-01
6.349532e-01
6.294458e-01
6.212889e-01
6.115165e-01
6.010942e-01
5.909198e-01
5.813384e-01
0.000000e+00
1.000000e+00
5.817490e-01
5.902834e-01
6.002046e-01
6.102445e-01
6.197699e-01
6.277843e-01
6.332026e-01
6.351578e-01
6.333097e-01
6.279555e-01
6.200021e-01
6.104890e-01
6.003361e-01
5.904569e-01
5.810552e-01
0.000000e+00
1.000000e+00
5.812179e-01
5.892467e-01
5.985757e-01
6.080155e-01
6.169715e-01
6.245060e-01
6.295974e-01
6.314300e-01
6.296911e-01
6.246722e-01
6.171780e-01
6.082234e-01
5.986983e-01
5.894206e-01
5.805356e-01
0.000000e+00
1.000000e+00
5.804438e-01
5.877353e-01
5.961887e-01
6.047489e-01
6.128698e-01
6.197005e-01
6.243139e-01
6.259687e-01
6.243878e-01
6.198475e-01
6.130457e-01
6.049216e-01
5.963068e-01
5.879020e-01
5.797928e-01
0.000000e+00
1.000000e+00
5.794736e-01
5.858560e-01
5.932142e-01
6.006767e-01
6.077557e-01
6.137091e-01
6.177285e-01
6.191663e-01
6.177807e-01
6.138264e-01
6.079054e-01
6.008195e-01
5.933328e-01
5.860039e-01
5.789209e-01
0.000000e+00
1.000000e+00
5.783914e-01
5.837119e-01
5.898338e-01
5.960484e-01
6.019434e-01
6.069002e-01
6.102457e-01