<?xml version="1.0"?>
<VTKFile type="StructuredGrid" version="0.1">
  <StructuredGrid WholeExtent="0 16 0 16 0 16">
    <Piece Extent="0 16 0 16 0 16">
      <PointData Scalars="temperature" Vectors="velocity">
        <DataArray type="Float32" Name="temperature" format="ascii">
1.000000e+00
5.729667e-01
5.729298e-01
5.728901e-01
5.728495e-01
5.728110e-01
5.727787e-01
5.727569e-01
5.727492e-01
5.727569e-01
5.727787e-01
5.728110e-01
5.728495e-01
5.728901e-01
5.729298e-01
5.729667e-01
0.000000e+00
1.000000e+00
5.730417e-01
5.730880e-01
5.731377e-01
5.731885e-01
5.732367e-01
5.732772e-01
5.733045e-01
5.733141e-01
5.733045e-01
5.732772e-01
5.732367e-01
5.731885e-01
5.731377e-01
5.730880e-01
5.730417e-01
0.000000e+00
1.000000e+00
5.731301e-01
5.732744e-01
5.734294e-01
5.735879e-01
5.737382e-01
5.738645e-01
5.739497e-01
5.739798e-01
5.739497e-01
5.738645e-01
5.737382e-01
5.735879e-01
5.734294e-01
5.732744e-01
5.731301e-01
0.000000e+00
1.000000e+00
5.732301e-01
5.734853e-01
5.737596e-01
5.740400e-01
5.743059e-01
5.745294e-01
5.746800e-01
5.747333e-01
5.746800e-01
5.745294e-01
5.743059e-01
5.740400e-01
5.737596e-01
5.734853e-01
5.732301e-01
0.000000e+00
1.000000e+00
5.733389e-01
5.737148e-01
5.741186e-01
5.745316e-01
5.749232e-01
5.752524e-01
5.754741e-01
5.755527e-01
5.754741e-01
5.752524e-01
5.749232e-01
5.745316e-01
5.741186e-01
5.737148e-01
5.733389e-01
0.000000e+00
1.000000e+00
5.734522e-01
5.739539e-01
5.744929e-01
5.750441e-01
5.755668e-01
5.760060e-01
5.763020e-01
5.764068e-01
5.763020e-01
5.760060e-01
5.755668e-01
5.750441e-01
5.744929e-01
5.739539e-01
5.734522e-01
0.000000e+00
1.000000e+00
5.735651e-01
5.741921e-01
5.748655e-01
5.755544e-01
5.762075e-01
5.767564e-01
5.771263e-01
5.772572e-01
5.771263e-01
5.767564e-01
5.762075e-01
5.755544e-01
5.748655e-01
5.741921e-01
5.735651e-01
0.000000e+00
1.000000e+00
5.736718e-01
5.744171e-01
5.752177e-01
5.760365e-01
5.768130e-01
5.774655e-01
5.779051e-01
5.780608e-01
5.779051e-01
5.774655e-01
5.768130e-01
5.760365e-01
5.752177e-01
5.744171e-01
5.736718e-01
0.000000e+00
1.000000e+00
5.737665e-01
5.746168e-01
5.755302e-01
5.764645e-01
5.773504e-01
5.780948e-01
5.785965e-01
5.787741e-01
5.785965e-01
5.780948e-01
5.773504e-01
5.764645e-01
5.755302e-01
5.746168e-01
5.737665e-01
0.000000e+00
1.000000e+00
5.738440e-01
5.747802e-01
5.757861e-01
5.768148e-01
5.777902e-01
5.786099e-01
5.791623e-01
5.793579e-01
5.791623e-01
5.786099e-01
5.777902e-01
5.768148e-01
5.757861e-01
5.747802e-01
5.738440e-01
0.000000e+00
1.000000e+00
5.739002e-01
5.748989e-01
5.759718e-01
5.770690e-01
5.781095e-01
5.789839e-01
5.795731e-01
5.797817e-01
5.795731e-01
5.789839e-01
5.781095e-01
5.770690e-01
5.759718e-01
5.748989e-01
5.739002e-01
0.000000e+00
1.000000e+00
5.739328e-01
5.749676e-01
5.760792e-01
5.772161e-01
5.782942e-01
5.792002e-01
5.798106e-01
5.800269e-01
5.798106e-01
5.792002e-01
5.782942e-01
5.772161e-01
5.760792e-01
5.749676e-01
5.739328e-01
0.000000e+00
1.000000e+00
5.739408e-01
5.749846e-01
5.761058e-01
5.772526e-01
5.783400e-01
5.792538e-01
5.798695e-01
5.800876e-01
5.798695e-01
5.792538e-01
5.783400e-01
5.772526e-01
5.761058e-01
5.749846e-01
5.739408e-01
0.000000e+00
1.000000e+00
5.739253e-01
5.749518e-01
5.760546e-01
5.771824e-01
5.782519e-01
5.791506e-01
5.797562e-01
5.799707e-01
5.797562e-01
5.791506e-01
5.782519e-01
5.771824e-01
5.760546e-01
5.749518e-01
5.739253e-01
0.000000e+00
1.000000e+00
5.738884e-01
5.748740e-01
5.759328e-01
5.770156e-01
5.780425e-01
5.789053e-01
5.794868e-01
5.796927e-01
5.794868e-01
5.789053e-01
5.780425e-01
5.770156e-01
5.759328e-01
5.748740e-01
5.738884e-01
0.000000e+00
1.000000e+00
5.738333e-01
5.747577e-01
5.757508e-01
5.767666e-01
5.777297e-01
5.785390e-01
5.790844e-01
5.792776e-01
5.790844e-01
5.785390e-01
5.777297e-01
5.767666e-01
5.757508e-01
5.747577e-01
5.738333e-01
0.000000e+00
1.000000e+00
5.737636e-01
5.746108e-01
5.755208e-01
5.764516e-01
5.773342e-01
5.780759e-01
5.785757e-01
5.787527e-01
5.785757e-01
5.780759e-01
5.773342e-01
5.764516e-01
5.755208e-01
5.746108e-01
5.737636e-01
0.000000e+00
1.000000e+00
5.730337e-01
5.730710e-01
5.731111e-01
5.731521e-01
5.731910e-01
5.732237e-01
5.732458e-01
5.732536e-01
5.732458e-01
5.732237e-01
5.731910e-01
5.731521e-01
5.731111e-01
5.730710e-01
5.730337e-01
0.000000e+00
1.000000e+00
5.731108e-01
5.732336e-01
5.733657e-01
5.735007e-01
5.736287e-01
5.737363e-01
5.738087e-01
5.738344e-01
5.738087e-01
5.737363e-01
5.736287e-01
5.735007e-01
5.733657e-01
5.732336e-01
5.731108e-01
0.000000e+00
1.000000e+00
5.732015e-01
5.734250e-01
5.736651e-01
5.739107e-01
5.741436e-01
5.743393e-01
5.744711e-01
5.745178e-01
5.744711e-01
5.743393e-01
5.741436e-01
5.739107e-01
5.736651e-01
5.734250e-01
5.732015e-01
0.000000e+00
1.000000e+00
5.733040e-01
5.736412e-01
5.740034e-01
5.743739e-01
5.747252e-01
5.750204e-01
5.752194e-01
5.752898e-01
5.752194e-01
5.750204e-01
5.747252e-01
5.743739e-01
5.740034e-01
5.736412e-01
5.733040e-01
0.000000e+00
1.000000e+00
5.734150e-01
5.738755e-01
5.743701e-01
5.748760e-01
5.753556e-01
5.757588e-01
5.760304e-01
5.761266e-01
5.760304e-01
5.757588e-01
5.753556e-01
5.748760e-01
5.743701e-01
5.738755e-01
5.734150e-01
0.000000e+00
1.000000e+00
5.735302e-01
5.741184e-01
5.747503e-01
5.753966e-01
5.760094e-01
5.765244e-01
5.768714e-01
5.769943e-01
5.768714e-01
5.765244e-01
5.760094e-01
5.753966e-01
5.747503e-01
5.741184e-01
5.735302e-01
0.000000e+00
1.000000e+00
5.736439e-01
5.743583e-01
5.751257e-01
5.759106e-01
5.766549e-01
5.772803e-01
5.777018e-01
5.778510e-01
5.777018e-01
5.772803e-01
5.766549e-01
5.759106e-01
5.751257e-01
5.743583e-01
5.736439e-01
0.000000e+00
1.000000e+00
5.737500e-01
5.745820e-01
5.754758e-01
5.763900e-01
5.772568e-01
5.779852e-01
5.784761e-01
5.786499e-01
5.784761e-01
5.779852e-01
5.772568e-01
5.763900e-01
5.754758e-01
5.745820e-01
5.737500e-01
0.000000e+00
1.000000e+00
5.738421e-01
5.747764e-01
5.757800e-01
5.768065e-01
5.777799e-01
5.785978e-01
5.791490e-01
5.793442e-01
5.791490e-01
5.785978e-01
5.777799e-01
5.768065e-01
5.757800e-01
5.747764e-01
5.738421e-01
0.000000e+00
1.000000e+00
5.739149e-01
5.749299e-01
5.760203e-01
5.771355e-01
5.781930e-01
5.790817e-01
5.796805e-01
5.798925e-01
5.796805e-01
5.790817e-01
5.781930e-01
5.771355e-01
5.760203e-01
5.749299e-01
5.739149e-01
0.000000e+00
1.000000e+00
5.739642e-01
5.750339e-01
5.761831e-01
5.773584e-01
5.784728e-01
5.794093e-01
5.800404e-01
5.802639e-01
5.800404e-01
5.794093e-01
5.784728e-01
5.773584e-01
5.761831e-01
5.750339e-01
5.739642e-01
0.000000e+00
1.000000e+00
5.739877e-01
5.750835e-01
5.762607e-01
5.774646e-01
5.786063e-01
5.795656e-01
5.802121e-01
5.804410e-01
5.802121e-01
5.795656e-01
5.786063e-01
5.774646e-01
5.762607e-01
5.750835e-01
5.739877e-01
0.000000e+00
1.000000e+00
5.739851e-01
5.750780e-01
5.762520e-01
5.774528e-01
5.785913e-01
5.795482e-01
5.801929e-01
5.804212e-01
5.801929e-01
5.795482e-01
5.785913e-01
5.774528e-01
5.762520e-01
5.750780e-01
5.739851e-01
0.000000e+00
1.000000e+00
5.739578e-01
5.750204e-01
5.761618e-01
5.773293e-01
5.784363e-01
5.793666e-01
5.799934e-01
5.802154e-01
5.799934e-01
5.793666e-01
5.784363e-01
5.773293e-01
5.761618e-01
5.750204e-01
5.739578e-01
0.000000e+00
1.000000e+00
5.739086e-01
5.749167e-01
5.759996e-01
5.771071e-01
5.781574e-01
5.790399e-01
5.796346e-01
5.798452e-01
5.796346e-01
5.790399e-01
5.781574e-01
5.771071e-01
5.759996e-01
5.749167e-01
5.739087e-01
0.000000e+00
1.000000e+00
5.738414e-01
5.747749e-01
5.757777e-01
5.768033e-01
5.777759e-01
5.785931e-01
5.791438e-01
5.793388e-01
5.791438e-01
5.785931e-01
5.777759e-01
5.768033e-01
5.757777e-01
5.747749e-01
5.738414e-01
0.000000e+00
1.000000e+00
5.737603e-01
5.746038e-01
5.755099e-01
5.764366e-01
5.773154e-01
5.780539e-01
5.785515e-01
5.787277e-01
5.785515e-01
5.780539e-01
5.773154e-01
5.764366e-01
5.755099e-01
5.746038e-01
5.737603e-01
0.000000e+00
1.000000e+00
5.730912e-01
5.731924e-01
5.733012e-01
5.734123e-01
5.735178e-01
5.736064e-01
5.736661e-01
5.736872e-01
5.736661e-01
5.736064e-01
5.735178e-01
5.734123e-01
5.733012e-01
5.731924e-01
5.730912e-01
0.000000e+00
1.000000e+00
5.731697e-01
5.733579e-01
5.735601e-01
5.737669e-01
5.739630e-01
5.741278e-01
5.742388e-01
5.742781e-01
5.742388e-01
5.741278e-01
5.739630e-01
5.737669e-01
5.735601e-01
5.733579e-01
5.731697e-01
0.000000e+00
1.000000e+00
5.732619e-01
5.735524e-01
5.738645e-01
5.741837e-01
5.744864e-01
5.747407e-01
5.749121e-01
5.749728e-01
5.749121e-01
5.747407e-01
5.744864e-01
5.741837e-01
5.738645e-01
5.735524e-01
5.732619e-01
0.000000e+00
1.000000e+00
5.733659e-01
5.737718e-01
5.742079e-01
5.746539e-01
5.750768e-01
5.754322e-01
5.756717e-01
5.757565e-01
5.756717e-01
5.754322e-01
5.750768e-01
5.746539e-01
5.742079e-01
5.737718e-01
5.733659e-01
0.000000e+00
1.000000e+00
5.734784e-01
5.740091e-01
5.745792e-01
5.751622e-01
5.757151e-01
5.761797e-01
5.764928e-01
5.766037e-01
5.764928e-01
5.761797e-01
5.757151e-01
5.751622e-01
5.745792e-01
5.740091e-01
5.734784e-01
0.000000e+00
1.000000e+00
5.735944e-01
5.742539e-01
5.749623e-01
5.756869e-01
5.763739e-01
5.769512e-01
5.773403e-01
5.774781e-01
5.773403e-01
5.769512e-01
5.763739e-01
5.756869e-01
5.749623e-01
5.742539e-01
5.735944e-01
0.000000e+00
1.000000e+00
5.737081e-01
5.744937e-01
5.753376e-01
5.762007e-01
5.770191e-01
5.777068e-01
5.781703e-01
5.783344e-01
5.781703e-01
5.777068e-01
5.770191e-01
5.762007e-01
5.753376e-01
5.744937e-01
5.737081e-01
0.000000e+00
1.000000e+00
5.738127e-01
5.747143e-01
5.756829e-01
5.766735e-01
5.776129e-01
5.784022e-01
5.789341e-01
5.791225e-01
5.789341e-01
5.784022e-01
5.776129e-01
5.766735e-01
5.756829e-01
5.747143e-01
5.738127e-01
0.000000e+00
1.000000e+00
5.739017e-01
5.749020e-01
5.759765e-01
5.770756e-01
5.781177e-01
5.789935e-01
5.795836e-01
5.797926e-01
5.795836e-01
5.789935e-01
5.781177e-01
5.770756e-01
5.759765e-01
5.749020e-01
5.739017e-01
0.000000e+00
1.000000e+00
5.739692e-01
5.750445e-01
5.761995e-01
5.773809e-01
5.785011e-01
5.794425e-01
5.800768e-01
5.803015e-01
5.800768e-01
5.794425e-01
5.785011e-01
5.773809e-01
5.761995e-01
5.750445e-01
5.739692e-01
0.000000e+00
1.000000e+00
5.740112e-01
5.751331e-01
5.763383e-01
5.775709e-01
5.787397e-01
5.797219e-01
5.803837e-01
5.806181e-01
5.803837e-01
5.797219e-01
5.787397e-01
5.775709e-01
5.763383e-01
5.751331e-01
5.740112e-01
0.000000e+00
1.000000e+00
5.740257e-01
5.751635e-01
5.763859e-01
5.776361e-01
5.788216e-01
5.798178e-01
5.804890e-01
5.807268e-01
5.804890e-01
5.798178e-01
5.788216e-01
5.776361e-01
5.763859e-01
5.751635e-01
5.740257e-01
0.000000e+00
1.000000e+00
5.740126e-01
5.751360e-01
5.763427e-01
5.775770e-01
5.787474e-01
5.797309e-01
5.803936e-01
5.806283e-01
5.803936e-01
5.797309e-01
5.787474e-01
5.775770e-01
5.763427e-01
5.751360e-01
5.740126e-01
0.000000e+00
1.000000e+00
5.739741e-01
5.750547e-01
5.762155e-01
5.774028e-01
5.785286e-01
5.794747e-01
5.801121e-01
5.803379e-01
5.801121e-01
5.794747e-01
5.785286e-01
5.774028e-01
5.762155e-01
5.750547e-01
5.739741e-01
0.000000e+00
1.000000e+00
5.739135e-01
5.749270e-01
5.760157e-01
5.771292e-01
5.781850e-01
5.790723e-01
5.796702e-01
5.798819e-01
5.796702e-01
5.790723e-01
5.781850e-01
5.771292e-01
5.760157e-01
5.749270e-01
5.739135e-01
0.000000e+00
1.000000e+00
5.738353e-01
5.747620e-01
5.757576e-01
5.767757e-01
5.777412e-01
5.785526e-01
5.790993e-01
5.792929e-01
5.790993e-01
5.785526e-01
5.777412e-01
5.767757e-01
5.757576e-01
5.747620e-01
5.738353e-01
0.000000e+00
1.000000e+00
5.737441e-01
5.745696e-01
5.754564e-01
5.763634e-01
5.772235e-01
5.779462e-01
5.784332e-01
5.786057e-01
5.784332e-01
5.779462e-01
5.772235e-01
5.763634e-01
5.754564e-01
5.745696e-01
5.737441e-01
0.000000e+00
1.000000e+00
5.731356e-01
5.732860e-01
5.734476e-01
5.736128e-01
5.737695e-01
5.739012e-01
5.739900e-01
5.740214e-01
5.739900e-01
5.739012e-01
5.737695e-01
5.736128e-01
5.734476e-01
5.732860e-01
5.731356e-01
0.000000e+00
1.000000e+00
5.732142e-01
5.734518e-01
5.737071e-01
5.739682e-01
5.742158e-01
5.744238e-01
5.745640e-01
5.746137e-01
5.745640e-01
5.744238e-01
5.742158e-01
5.739682e-01
5.737071e-01
5.734518e-01
5.732142e-01
0.000000e+00
1.000000e+00
5.733067e-01
5.736469e-01
5.740124e-01
5.743862e-01
5.747407e-01
5.750385e-01
5.752392e-01
5.753103e-01
5.752392e-01
5.750385e-01
5.747407e-01
5.743862e-01
5.740124e-01
5.736469e-01
5.733067e-01
0.000000e+00
1.000000e+00
5.734110e-01
5.738669e-01
5.743567e-01
5.748576e-01
5.753326e-01
5.757318e-01
5.760008e-01
5.760960e-01
5.760008e-01
5.757318e-01
5.753326e-01
5.748576e-01
5.743567e-01
5.738669e-01
5.734110e-01
0.000000e+00
1.000000e+00
5.735235e-01
5.741043e-01
5.747283e-01
5.753664e-01
5.759715e-01
5.764800e-01
5.768226e-01
5.769440e-01
5.768226e-01
5.764800e-01
5.759715e-01
5.753664e-01
5.747283e-01
5.741043e-01
5.735235e-01
0.000000e+00
1.000000e+00
5.736393e-01
5.743484e-01
5.751103e-01
5.758895e-01
5.766283e-01
5.772492e-01
5.776676e-01
5.778158e-01
5.776676e-01
5.772492e-01
5.766283e-01
5.758895e-01
5.751103e-01
5.743484e-01
5.736393e-01
0.000000e+00
1.000000e+00
5.737518e-01
5.745858e-01
5.754818e-01
5.763981e-01
5.772671e-01
5.779973e-01
5.784893e-01
5.786636e-01
5.784893e-01
5.779973e-01
5.772671e-01
5.763981e-01
5.754818e-01
5.745858e-01
5.737518e-01
0.000000e+00
1.000000e+00
5.738541e-01
5.748016e-01
5.758195e-01
5.768606e-01
5.778477e-01
5.786773e-01
5.792363e-01
5.794343e-01
5.792363e-01
5.786773e-01
5.778477e-01
5.768606e-01
5.758195e-01
5.748016e-01
5.738541e-01
0.000000e+00
1.000000e+00
5.739392e-01
5.749812e-01
5.761006e-01
5.772454e-01
5.783310e-01
5.792432e-01
5.798579e-01
5.800756e-01
5.798579e-01
5.792432e-01
5.783310e-01
5.772454e-01
5.761006e-01
5.749812e-01
5.739392e-01
0.000000e+00
1.000000e+00
5.740013e-01
5.751121e-01
5.763054e-01
5.775259e-01
5.786832e-01
5.796558e-01
5.803111e-01
5.805432e-01
5.803111e-01
5.796558e-01
5.786832e-01
5.775259e-01
5.763054e-01
5.751121e-01
5.740013e-01
0.000000e+00
1.000000e+00
5.740362e-01
5.751857e-01
5.764206e-01
5.776836e-01
5.788812e-01
5.798877e-01
5.805658e-01
5.808060e-01
5.805658e-01
5.798877e-01
5.788812e-01
5.776836e-01
5.764206e-01
5.751857e-01
5.740362e-01
0.000000e+00
1.000000e+00
5.740421e-01
5.751981e-01
5.764401e-01
5.777102e-01
5.789147e-01
5.799268e-01
5.806088e-01
5.808504e-01
5.806088e-01
5.799268e-01
5.789147e-01
5.777102e-01
5.764401e-01
5.751981e-01
5.740421e-01
0.000000e+00
1.000000e+00
5.740195e-01
5.751506e-01
5.763656e-01
5.776083e-01
5.787866e-01
5.797768e-01
5.804441e-01
5.806804e-01
5.804441e-01
5.797768e-01
5.787866e-01
5.776083e-01
5.763656e-01
5.751506e-01
5.740195e-01
0.000000e+00
1.000000e+00
5.739711e-01
5.750484e-01
5.762057e-01
5.773893e-01
5.785117e-01
5.794549e-01
5.800904e-01
5.803155e-01
5.800904e-01
5.794549e-01
5.785117e-01
5.773893e-01
5.762057e-01
5.750484e-01
5.739711e-01
0.000000e+00
1.000000e+00
5.739008e-01
5.749002e-01
5.759737e-01
5.770717e-01
5.781129e-01
5.789878e-01
5.795774e-01
5.797862e-01
5.795774e-01
5.789878e-01
5.781129e-01
5.770717e-01
5.759737e-01
5.749002e-01
5.739008e-01
0.000000e+00
1.000000e+00
5.738135e-01
5.747161e-01
5.756856e-01
5.766772e-01
5.776175e-01
5.784077e-01
5.789401e-01
5.791287e-01
5.789401e-01
5.784077e-01
5.776175e-01
5.766772e-01
5.756856e-01
5.747161e-01
5.738135e-01
0.000000e+00
1.000000e+00
5.737143e-01
5.745067e-01
5.753579e-01
5.762285e-01
5.770541e-01
5.777478e-01
5.782153e-01
5.783808e-01
5.782153e-01
5.777478e-01
5.770541e-01
5.762285e-01
5.753579e-01
5.745067e-01
5.737143e-01
0.000000e+00
1.000000e+00
5.731630e-01
5.733439e-01
5.735382e-01
5.737369e-01
5.739253e-01
5.740836e-01
5.741903e-01
5.742281e-01
5.741903e-01
5.740836e-01
5.739253e-01
5.737369e-01
5.735382e-01
5.733439e-01
5.731630e-01
0.000000e+00
1.000000e+00
5.732403e-01
5.735069e-01
5.737933e-01
5.740862e-01
5.743640e-01
5.745974e-01
5.747546e-01
5.748103e-01
5.747546e-01
5.745974e-01
5.743640e-01
5.740862e-01
5.737933e-01
5.735069e-01
5.732403e-01
0.000000e+00
1.000000e+00
5.733314e-01
5.736991e-01
5.740941e-01
5.744981e-01
5.748812e-01
5.752031e-01
5.754200e-01
5.754968e-01
5.754200e-01
5.752031e-01
5.748812e-01
5.744981e-01
5.740941e-01
5.736991e-01
5.733314e-01
0.000000e+00
1.000000e+00
5.734343e-01
5.739162e-01
5.744338e-01
5.749632e-01
5.754652e-01
5.758871e-01
5.761713e-01
5.762720e-01
5.761713e-01
5.758871e-01
5.754652e-01
5.749632e-01
5.744338e-01
5.739162e-01
5.734343e-01
0.000000e+00
1.000000e+00
5.735454e-01
5.741504e-01
5.748003e-01
5.754650e-01
5.760954e-01
5.766250e-01
5.769820e-01
5.771084e-01
5.769820e-01
5.766250e-01
5.760954e-01
5.754650e-01
5.748003e-01
5.741504e-01
5.735454e-01
0.000000e+00
1.000000e+00
5.736592e-01
5.743906e-01
5.751762e-01
5.759798e-01
5.767417e-01
5.773820e-01
5.778135e-01
5.779663e-01
5.778135e-01
5.773820e-01
5.767417e-01
5.759798e-01
5.751762e-01
5.743906e-01
5.736592e-01
0.000000e+00
1.000000e+00
5.737694e-01
5.746229e-01
5.755399e-01
5.764777e-01
5.773669e-01
5.781142e-01
5.786178e-01
5.787961e-01
5.786178e-01
5.781142e-01
5.773669e-01
5.764777e-01
5.755399e-01
5.746229e-01
5.737694e-01
0.000000e+00
1.000000e+00
5.738685e-01
5.748320e-01
5.758670e-01
5.769256e-01
5.779294e-01
5.787729e-01
5.793413e-01
5.795427e-01
5.793413e-01
5.787729e-01
5.779294e-01
5.769256e-01
5.758670e-01
5.748320e-01
5.738685e-01
0.000000e+00
1.000000e+00
5.739494e-01
5.750026e-01
5.761341e-01
5.772913e-01
5.783886e-01
5.793107e-01
5.799320e-01
5.801521e-01
5.799320e-01
5.793107e-01
5.783886e-01
5.772913e-01
5.761341e-01
5.750026e-01
5.739494e-01
0.000000e+00
1.000000e+00
5.740061e-01
5.751222e-01
5.763212e-01
5.775475e-01
5.787103e-01
5.796875e-01
5.803459e-01
5.805791e-01
5.803459e-01
5.796875e-01
5.787103e-01
5.775475e-01
5.763212e-01
5.751222e-01
5.740061e-01
0.000000e+00
1.000000e+00
5.740345e-01
5.751822e-01
5.764150e-01
5.776760e-01
5.788717e-01
5.798764e-01
5.805535e-01
5.807933e-01
5.805535e-01
5.798764e-01
5.788717e-01
5.776760e-01
5.764150e-01
5.751822e-01
5.740345e-01
0.000000e+00
1.000000e+00
5.740331e-01
5.751792e-01
5.764104e-01
5.776697e-01
5.788637e-01
5.798672e-01
5.805433e-01
5.807828e-01
5.805433e-01
5.798672e-01
5.788637e-01
5.776697e-01
5.764104e-01
5.751792e-01
5.740331e-01
0.000000e+00
1.000000e+00
5.740028e-01
5.751153e-01
5.763104e-01
5.775327e-01
5.786918e-01
5.796658e-01
5.803221e-01
5.805545e-01
5.803221e-01
5.796658e-01
5.786918e-01
5.775327e-01
5.763104e-01
5.751153e-01
5.740028e-01
0.000000e+00
1.000000e+00
5.739466e-01
5.749968e-01
5.761250e-01
5.772789e-01
5.783730e-01
5.792925e-01
5.799121e-01
5.801315e-01
5.799121e-01
5.792925e-01
5.783730e-01
5.772789e-01
5.761250e-01
5.749968e-01
5.739467e-01
0.000000e+00
1.000000e+00
5.738691e-01
5.748333e-01
5.758691e-01
5.769284e-01
5.779330e-01
5.787771e-01
5.793459e-01
5.795474e-01
5.793459e-01
5.787771e-01
5.779330e-01
5.769284e-01
5.758691e-01
5.748333e-01
5.738691e-01
0.000000e+00
1.000000e+00
5.737754e-01
5.746356e-01
5.755597e-01
5.765048e-01
5.774010e-01
5.781542e-01
5.786616e-01
5.788414e-01
5.786616e-01
5.781542e-01
5.774010e-01
5.765048e-01
5.755597e-01
5.746356e-01
5.737754e-01
0.000000e+00
1.000000e+00
5.736707e-01
5.744149e-01
5.752142e-01
5.760318e-01
5.768070e-01
5.774585e-01
5.778975e-01
5.780530e-01
5.778975e-01
5.774585e-01
5.768070e-01
5.760318e-01
5.752142e-01
5.744149e-01
5.736707e-01
0.000000e+00
1.000000e+00
5.731704e-01
5.733594e-01
5.735624e-01
5.737701e-01
5.739670e-01
5.741324e-01
5.742439e-01
5.742834e-01
5.742439e-01
5.741324e-01
5.739670e-01
5.737701e-01
5.735624e-01
5.733594e-01
5.731704e-01
0.000000e+00
1.000000e+00
5.732445e-01
5.735158e-01
5.738072e-01
5.741053e-01
5.743879e-01
5.746254e-01
5.747854e-01
5.748421e-01
5.747854e-01
5.746254e-01
5.743879e-01
5.741053e-01
5.738072e-01
5.735158e-01
5.732445e-01
0.000000e+00
1.000000e+00
5.733324e-01
5.737011e-01
5.740972e-01
5.745024e-01
5.748865e-01
5.752093e-01
5.754269e-01
5.755039e-01
5.754269e-01
5.752093e-01
5.748865e-01
5.745024e-01
5.740972e-01
5.737011e-01
5.733324e-01
0.000000e+00
1.000000e+00
5.734319e-01
5.739111e-01
5.744258e-01
5.749523e-01
5.754515e-01
5.758710e-01
5.761537e-01
5.762538e-01
5.761537e-01
5.758710e-01
5.754515e-01
5.749523e-01
5.744258e-01
5.739111e-01
5.734319e-01
0.000000e+00
1.000000e+00
5.735395e-01
5.741381e-01
5.747810e-01
5.754386e-01
5.760622e-01
5.765862e-01
5.769393e-01
5.770644e-01
5.769393e-01
5.765862e-01
5.760622e-01
5.754386e-01
5.747810e-01
5.741381e-01
5.735395e-01
0.000000e+00
1.000000e+00
5.736499e-01
5.743708e-01
5.751453e-01
5.759374e-01
5.766886e-01
5.773197e-01
5.777451e-01
5.778957e-01
5.777451e-01
5.773197e-01
5.766886e-01
5.759374e-01
5.751453e-01
5.743708e-01
5.736499e-01
0.000000e+00
1.000000e+00
5.737563e-01
5.745953e-01
5.754966e-01
5.764185e-01
5.772926e-01
5.780272e-01
5.785221e-01
5.786974e-01
5.785221e-01
5.780272e-01
5.772926e-01
5.764185e-01
5.754966e-01
5.745953e-01
5.737563e-01
0.000000e+00
1.000000e+00
5.738514e-01
5.747959e-01
5.758105e-01
5.768482e-01
5.778322e-01
5.786591e-01
5.792163e-01
5.794137e-01
5.792163e-01
5.786591e-01
5.778322e-01
5.768482e-01
5.758105e-01
5.747959e-01
5.738514e-01
0.000000e+00
1.000000e+00
5.739278e-01
5.749572e-01
5.760629e-01
5.771939e-01
5.782663e-01
5.791675e-01
5.797747e-01
5.799898e-01
5.797747e-01
5.791675e-01
5.782663e-01
5.771939e-01
5.760629e-01
5.749572e-01
5.739278e-01
0.000000e+00
1.000000e+00
5.739797e-01
5.750665e-01
5.762341e-01
5.774282e-01
5.785605e-01
5.795120e-01
5.801532e-01
5.803803e-01
5.801532e-01
5.795120e-01
5.785605e-01
5.774282e-01
5.762341e-01
5.750665e-01
5.739797e-01
0.000000e+00
1.000000e+00
5.740029e-01
5.751156e-01
5.763108e-01
5.775333e-01
5.786925e-01
5.796666e-01
5.803230e-01
5.805554e-01
5.803230e-01
5.796666e-01
5.786925e-01
5.775333e-01
5.763108e-01
5.751156e-01
5.740029e-01
0.000000e+00
1.000000e+00
5.739962e-01
5.751014e-01
5.762886e-01
5.775029e-01
5.786543e-01
5.796219e-01
5.802739e-01
5.805048e-01
5.802739e-01
5.796219e-01
5.786543e-01
5.775029e-01
5.762886e-01
5.751014e-01
5.739962e-01
0.000000e+00
1.000000e+00
5.739607e-01
5.750265e-01
5.761715e-01
5.773425e-01
5.784529e-01
5.793860e-01
5.800148e-01
5.802374e-01
5.800148e-01
5.793860e-01
5.784529e-01
5.773425e-01
5.761715e-01
5.750265e-01
5.739607e-01
0.000000e+00
1.000000e+00
5.738998e-01
5.748980e-01
5.759704e-01
5.770671e-01
5.781071e-01
5.789810e-01
5.795699e-01
5.797785e-01
5.795699e-01
5.789810e-01
5.781071e-01
5.770671e-01
5.759704e-01
5.748980e-01
5.738998e-01
0.000000e+00
1.000000e+00
5.738182e-01
5.747259e-01
5.757010e-01
5.766983e-01
5.776439e-01
5.784386e-01
5.789741e-01
5.791638e-01
5.789741e-01
5.784386e-01
5.776439e-01
5.766983e-01
5.757010e-01
5.747259e-01
5.738182e-01
0.000000e+00
1.000000e+00
5.737213e-01
5.745215e-01
5.753811e-01
5.762603e-01
5.770940e-01
5.777946e-01
5.782667e-01
5.784339e-01
5.782667e-01
5.777946e-01
5.770940e-01
5.762603e-01
5.753811e-01
5.745215e-01
5.737213e-01
0.000000e+00
1.000000e+00
5.736145e-01
5.742962e-01
5.750285e-01
5.757775e-01
5.764877e-01
5.770845e-01
5.774867e-01
5.776291e-01
5.774867e-01
5.770845e-01
5.764877e-01
5.757775e-01
5.750285e-01
5.742962e-01
5.736145e-01
0.000000e+00
1.000000e+00
5.731555e-01
5.733279e-01
5.735132e-01
5.737027e-01
5.738823e-01
5.740333e-01
5.741351e-01
5.741711e-01
5.741351e-01
5.740333e-01
5.738823e-01
5.737027e-01
5.735132e-01
5.733279e-01
5.731555e-01
0.000000e+00
1.000000e+00
5.732245e-01
5.734736e-01
5.737412e-01
5.740148e-01
5.742743e-01
5.744924e-01
5.746393e-01
5.746914e-01
5.746393e-01
5.744924e-01
5.742743e-01
5.740148e-01
5.737412e-01
5.734736e-01
5.732245e-01
0.000000e+00
1.000000e+00
5.733070e-01
5.736477e-01
5.740136e-01
5.743878e-01
5.747427e-01
5.750409e-01
5.752419e-01
5.753131e-01
5.752419e-01
5.750409e-01
5.747427e-01
5.743878e-01
5.740136e-01
5.736477e-01
5.733070e-01
0.000000e+00
1.000000e+00
5.734012e-01
5.738462e-01
5.743242e-01
5.748132e-01
5.752768e-01
5.756665e-01
5.759290e-01
5.760220e-01
5.759290e-01
5.756665e-01
5.752768e-01
5.748132e-01
5.743242e-01
5.738462e-01
5.734012e-01
0.000000e+00
1.000000e+00
5.735033e-01
5.740617e-01
5.746616e-01
5.752751e-01
5.758568e-01
5.763457e-01
5.766751e-01
5.767918e-01
5.766751e-01
5.763457e-01
5.758568e-01
5.752751e-01
5.746616e-01
5.740617e-01
5.735033e-01
0.000000e+00
1.000000e+00
5.736084e-01
5.742834e-01
5.750085e-01
5.757501e-01
5.764534e-01
5.770443e-01
5.774425e-01
5.775835e-01
5.774425e-01
5.770443e-01
5.764534e-01
5.757501e-01
5.750085e-01
5.742834e-01
5.736084e-01
0.000000e+00
1.000000e+00
5.737099e-01
5.744974e-01
5.753433e-01
5.762086e-01
5.770290e-01
5.777185e-01
5.781831e-01
5.783476e-01
5.781831e-01
5.777185e-01
5.770290e-01
5.762086e-01
5.753433e-01
5.744974e-01
5.737099e-01
0.000000e+00
1.000000e+00
5.738003e-01
5.746880e-01
5.756417e-01
5.766172e-01
5.775421e-01
5.783194e-01
5.788431e-01
5.790286e-01
5.788431e-01
5.783194e-01
5.775421e-01
5.766172e-01
5.756417e-01
5.746880e-01
5.738003e-01
0.000000e+00
1.000000e+00
5.738724e-01
5.748403e-01
5.758800e-01
5.769434e-01
5.779518e-01
5.787991e-01
5.793701e-01
5.795723e-01
5.793701e-01
5.787991e-01
5.779518e-01
5.769434e-01
5.758800e-01
5.748403e-01
5.738724e-01
0.000000e+00
1.000000e+00
5.739204e-01
5.749415e-01
5.760384e-01
5.771603e-01
5.782241e-01
5.791180e-01
5.797204e-01
5.799337e-01
5.797204e-01
5.791180e-01
5.782241e-01
5.771603e-01
5.760384e-01
5.749415e-01
5.739204e-01
0.000000e+00
1.000000e+00
5.739403e-01
5.749834e-01
5.761041e-01
5.772502e-01
5.783370e-01
5.792503e-01
5.798657e-01
5.800836e-01
5.798657e-01
5.792503e-01
5.783370e-01
5.772502e-01
5.761041e-01
5.749834e-01
5.739403e-01
0.000000e+00
1.000000e+00
5.739308e-01
5.749635e-01
5.760728e-01
5.772074e-01
5.782833e-01
5.791874e-01
5.797966e-01
5.800123e-01
5.797966e-01
5.791874e-01
5.782833e-01
5.772074e-01
5.760728e-01
5.749635e-01
5.739308e-01
0.000000e+00
1.000000e+00
5.738933e-01
5.748844e-01
5.759490e-01
5.770379e-01
5.780704e-01
5.789380e-01
5.795227e-01
5.797298e-01
5.795227e-01
5.789380e-01
5.780704e-01
5.770379e-01
5.759490e-01
5.748844e-01
5.738933e-01
0.000000e+00
1.000000e+00
5.738312e-01
5.747533e-01
5.757439e-01
5.767571e-01
5.777177e-01
5.785251e-01
5.790691e-01
5.792617e-01
5.790691e-01
5.785251e-01
5.777177e-01
5.767571e-01
5.757439e-01
5.747533e-01
5.738312e-01
0.000000e+00
1.000000e+00
5.737493e-01
5.745805e-01
5.754734e-01
5.763867e-01
5.772527e-01
5.779804e-01
5.784708e-01
5.786445e-01
5.784708e-01
5.779804e-01
5.772527e-01
5.763867e-01
5.754734e-01
5.745805e-01
5.737493e-01
0.000000e+00
1.000000e+00
5.736529e-01
5.743772e-01
5.751553e-01
5.759512e-01
5.767058e-01
5.773399e-01
5.777672e-01
5.779186e-01
5.777672e-01
5.773399e-01
5.767058e-01
5.759512e-01
5.751553e-01
5.743772e-01
5.736529e-01
0.000000e+00
1.000000e+00
5.735474e-01
5.741547e-01
5.748071e-01
5.754744e-01
5.761071e-01
5.766388e-01
5.769970e-01
5.771239e-01
5.769970e-01
5.766388e-01
5.761071e-01
5.754744e-01
5.748071e-01
5.741547e-01
5.735474e-01
0.000000e+00
1.000000e+00
5.731175e-01
5.732479e-01
5.733879e-01
5.735312e-01
5.736670e-01
5.737811e-01
5.738580e-01
5.738853e-01
5.738580e-01
5.737811e-01
5.736670e-01
5.735312e-01
5.733879e-01
5.732479e-01
5.731175e-01
0.000000e+00
1.000000e+00
5.731796e-01
5.733788e-01
5.735929e-01
5.738118e-01
5.740194e-01
5.741938e-01
5.743113e-01
5.743530e-01
5.743113e-01
5.741938e-01
5.740194e-01
5.738118e-01
5.735929e-01
5.733788e-01
5.731796e-01
0.000000e+00
1.000000e+00
5.732548e-01
5.735375e-01
5.738412e-01
5.741518e-01
5.744463e-01
5.746938e-01
5.748605e-01
5.749196e-01
5.748605e-01
5.746938e-01
5.744463e-01
5.741518e-01
5.738412e-01
5.735375e-01
5.732548e-01
0.000000e+00
1.000000e+00
5.733415e-01
5.737204e-01
5.741274e-01
5.745436e-01
5.749383e-01
5.752700e-01
5.754935e-01
5.755727e-01
5.754935e-01
5.752700e-01
5.749383e-01
5.745436e-01
5.741274e-01
5.737204e-01
5.733415e-01
0.000000e+00
1.000000e+00
5.734364e-01
5.739206e-01
5.744408e-01
5.749727e-01
5.754772e-01
5.759011e-01
5.761867e-01
5.762879e-01
5.761867e-01
5.759011e-01
5.754772e-01
5.749727e-01
5.744408e-01
5.739206e-01
5.734365e-01
0.000000e+00
1.000000e+00
5.735348e-01
5.741280e-01
5.747653e-01
5.754171e-01
5.760352e-01
5.765545e-01
5.769045e-01
5.770285e-01
5.769045e-01
5.765545e-01
5.760352e-01
5.754171e-01
5.747653e-01
5.741280e-01
5.735348e-01
0.000000e+00
1.000000e+00
5.736301e-01
5.743292e-01
5.750802e-01
5.758482e-01
5.765765e-01
5.771886e-01
5.776010e-01
5.777470e-01
5.776010e-01
5.771886e-01
5.765765e-01
5.758482e-01
5.750802e-01
5.743292e-01
5.736301e-01
0.000000e+00
1.000000e+00
5.737155e-01
5.745092e-01
5.753619e-01
5.762341e-01
5.770610e-01
5.777559e-01
5.782242e-01
5.783901e-01
5.782242e-01
5.777559e-01
5.770610e-01
5.762341e-01
5.753619e-01
5.745092e-01
5.737155e-01
0.000000e+00
1.000000e+00
5.737838e-01
5.746534e-01
5.755876e-01
5.765430e-01
5.774489e-01
5.782102e-01
5.787232e-01
5.789049e-01
5.787232e-01
5.782102e-01
5.774489e-01
5.765430e-01
5.755876e-01
5.746534e-01
5.737838e-01
0.000000e+00
1.000000e+00
5.738293e-01
5.747493e-01
5.757377e-01
5.767485e-01
5.777070e-01
5.785125e-01
5.790553e-01
5.792475e-01
5.790553e-01
5.785125e-01
5.777070e-01
5.767485e-01
5.757377e-01
5.747493e-01
5.738293e-01
0.000000e+00
1.000000e+00
5.738481e-01
5.747889e-01
5.757997e-01
5.768334e-01
5.778136e-01
5.786374e-01
5.791924e-01
5.793890e-01
5.791924e-01
5.786374e-01
5.778136e-01
5.768334e-01
5.757997e-01
5.747890e-01
5.738481e-01
0.000000e+00
1.000000e+00
5.738389e-01
5.747695e-01
5.757693e-01
5.767918e-01
5.777613e-01
5.785761e-01
5.791251e-01
5.793196e-01
5.791251e-01
5.785761e-01
5.777613e-01
5.767918e-01
5.757693e-01
5.747695e-01
5.738389e-01
0.000000e+00
1.000000e+00
5.738029e-01
5.746936e-01
5.756505e-01
5.766291e-01
5.775571e-01
5.783369e-01
5.788624e-01
5.790485e-01
5.788624e-01
5.783369e-01
5.775571e-01
5.766291e-01
5.756505e-01
5.746936e-01
5.738029e-01
0.000000e+00
1.000000e+00
5.737434e-01
5.745681e-01
5.754541e-01
5.763602e-01
5.772195e-01
5.779415e-01
5.784281e-01
5.786004e-01
5.784281e-01
5.779415e-01
5.772195e-01
5.763602e-01
5.754541e-01
5.745681e-01
5.737434e-01
0.000000e+00
1.000000e+00
5.736651e-01
5.744029e-01
5.751955e-01
5.760062e-01
5.767748e-01
5.774208e-01
5.778561e-01
5.780102e-01
5.778561e-01
5.774208e-01
5.767748e-01
5.760062e-01
5.751955e-01
5.744029e-01
5.736651e-01
0.000000e+00
1.000000e+00
5.735731e-01
5.742088e-01
5.748918e-01
5.755903e-01
5.762526e-01
5.768092e-01
5.771843e-01