<?xml version="1.0"?>
<VTKFile type="StructuredGrid" version="0.1">
  <StructuredGrid WholeExtent="0 16 0 16 0 16">
    <Piece Extent="0 16 0 16 0 16">
      <PointData Scalars="temperature" Vectors="velocity">
        <DataArray type="Float32" Name="temperature" format="ascii">
1.000000e+00
5.732183e-01
5.730060e-01
5.730183e-01
5.730204e-01
5.730222e-01
5.730235e-01
5.730245e-01
5.730246e-01
5.730242e-01
5.730227e-01
5.730208e-01
5.730169e-01
5.730111e-01
5.730611e-01
5.722624e-01
0.000000e+00
1.000000e+00
5.730898e-01
5.729981e-01
5.729897e-01
5.729792e-01
5.729688e-01
5.729603e-01
5.729544e-01
5.729523e-01
5.729539e-01
5.729596e-01
5.729676e-01
5.729780e-01
5.729908e-01
5.733200e-01
5.714256e-01
0.000000e+00
1.000000e+00
5.730307e-01
5.729554e-01
5.729134e-01
5.728766e-01
5.728415e-01
5.728122e-01
5.727932e-01
5.727875e-01
5.727950e-01
5.728144e-01
5.728446e-01
5.728800e-01
5.729173e-01
5.731167e-01
5.723599e-01
0.000000e+00
1.000000e+00
5.729768e-01
5.728853e-01
5.728019e-01
5.727237e-01
5.726491e-01
5.725867e-01
5.725452e-01
5.725314e-01
5.725461e-01
5.725880e-01
5.726494e-01
5.727231e-01
5.728016e-01
5.729750e-01
5.724925e-01
0.000000e+00
1.000000e+00
5.729345e-01
5.727870e-01
5.726488e-01
5.725137e-01
5.723854e-01
5.722777e-01
5.722064e-01
5.721810e-01
5.722054e-01
5.722760e-01
5.723828e-01
5.725116e-01
5.726471e-01
5.728543e-01
5.725447e-01
0.000000e+00
1.000000e+00
5.728777e-01
5.726638e-01
5.724567e-01
5.722502e-01
5.720542e-01
5.718900e-01
5.717799e-01
5.717402e-01
5.717769e-01
5.718865e-01
5.720512e-01
5.722475e-01
5.724542e-01
5.727282e-01
5.724234e-01
0.000000e+00
1.000000e+00
5.728203e-01
5.725181e-01
5.722320e-01
5.719418e-01
5.716664e-01
5.714354e-01
5.712803e-01
5.712239e-01
5.712767e-01
5.714318e-01
5.716628e-01
5.719380e-01
5.722281e-01
5.725832e-01
5.723492e-01
0.000000e+00
1.000000e+00
5.727417e-01
5.723567e-01
5.719833e-01
5.716009e-01
5.712381e-01
5.709336e-01
5.707271e-01
5.706522e-01
5.707242e-01
5.709288e-01
5.712330e-01
5.715956e-01
5.719780e-01
5.724229e-01
5.722375e-01
0.000000e+00
1.000000e+00
5.726786e-01
5.721896e-01
5.717220e-01
5.712430e-01
5.707891e-01
5.704080e-01
5.701477e-01
5.700531e-01
5.701439e-01
5.704006e-01
5.707818e-01
5.712363e-01
5.717156e-01
5.722530e-01
5.721799e-01
0.000000e+00
1.000000e+00
5.726038e-01
5.720228e-01
5.714615e-01
5.708862e-01
5.703401e-01
5.698812e-01
5.695691e-01
5.694565e-01
5.695652e-01
5.698738e-01
5.703320e-01
5.708781e-01
5.714540e-01
5.720851e-01
5.720923e-01
0.000000e+00
1.000000e+00
5.725287e-01
5.718621e-01
5.712147e-01
5.705478e-01
5.699145e-01
5.693823e-01
5.690216e-01
5.688920e-01
5.690177e-01
5.693753e-01
5.699064e-01
5.705391e-01
5.712064e-01
5.719269e-01
5.720117e-01
0.000000e+00
1.000000e+00
5.724537e-01
5.717189e-01
5.709934e-01
5.702445e-01
5.695336e-01
5.689362e-01
5.685319e-01
5.683869e-01
5.685279e-01
5.689293e-01
5.695257e-01
5.702359e-01
5.709850e-01
5.717858e-01
5.719250e-01
0.000000e+00
1.000000e+00
5.723929e-01
5.715984e-01
5.708075e-01
5.699899e-01
5.692140e-01
5.685619e-01
5.681210e-01
5.679631e-01
5.681170e-01
5.685551e-01
5.692063e-01
5.699816e-01
5.707993e-01
5.716665e-01
5.718758e-01
0.000000e+00
1.000000e+00
5.723320e-01
5.715058e-01
5.706636e-01
5.697929e-01
5.689668e-01
5.682725e-01
5.678032e-01
5.676353e-01
5.677991e-01
5.682658e-01
5.689594e-01
5.697850e-01
5.706557e-01
5.715733e-01
5.718472e-01
0.000000e+00
1.000000e+00
5.722942e-01
5.714447e-01
5.705647e-01
5.696576e-01
5.687969e-01
5.680738e-01
5.675852e-01
5.674104e-01
5.675811e-01
5.680674e-01
5.687901e-01
5.696502e-01
5.705573e-01
5.715117e-01
5.718014e-01
0.000000e+00
1.000000e+00
5.722589e-01
5.714103e-01
5.705116e-01
5.695846e-01
5.687051e-01
5.679662e-01
5.674671e-01
5.672885e-01
5.674631e-01
5.679601e-01
5.686984e-01
5.695772e-01
5.705040e-01
5.714775e-01
5.717939e-01
0.000000e+00
1.000000e+00
5.721626e-01
5.714093e-01
5.705005e-01
5.695693e-01
5.686861e-01
5.679444e-01
5.674432e-01
5.672631e-01
5.674394e-01
5.679397e-01
5.686816e-01
5.695643e-01
5.704951e-01
5.714805e-01
5.717241e-01
0.000000e+00
1.000000e+00
5.733340e-01
5.729987e-01
5.730626e-01
5.730756e-01
5.730876e-01
5.730975e-01
5.731044e-01
5.731067e-01
5.731035e-01
5.730945e-01
5.730826e-01
5.730702e-01
5.730574e-01
5.731803e-01
5.724624e-01
0.000000e+00
1.000000e+00
5.731937e-01
5.729814e-01
5.729914e-01
5.729790e-01
5.729668e-01
5.729562e-01
5.729487e-01
5.729456e-01
5.729481e-01
5.729560e-01
5.729659e-01
5.729759e-01
5.729871e-01
5.732954e-01
5.712352e-01
0.000000e+00
1.000000e+00
5.730876e-01
5.729219e-01
5.728773e-01
5.728234e-01
5.727717e-01
5.727276e-01
5.726980e-01
5.726886e-01
5.727012e-01
5.727301e-01
5.727710e-01
5.728207e-01
5.728735e-01
5.730445e-01
5.720451e-01
0.000000e+00
1.000000e+00
5.730126e-01
5.728228e-01
5.727193e-01
5.726076e-01
5.725010e-01
5.724112e-01
5.723519e-01
5.723331e-01
5.723550e-01
5.724131e-01
5.725005e-01
5.726056e-01
5.727166e-01
5.729029e-01
5.724150e-01
0.000000e+00
1.000000e+00
5.729475e-01
5.726947e-01
5.725186e-01
5.723329e-01
5.721562e-01
5.720078e-01
5.719102e-01
5.718770e-01
5.719106e-01
5.720082e-01
5.721553e-01
5.723310e-01
5.725157e-01
5.727731e-01
5.723633e-01
0.000000e+00
1.000000e+00
5.728748e-01
5.725415e-01
5.722788e-01
5.720045e-01
5.717437e-01
5.715244e-01
5.713783e-01
5.713276e-01
5.713780e-01
5.715241e-01
5.717420e-01
5.720015e-01
5.722748e-01
5.726167e-01
5.723195e-01
0.000000e+00
1.000000e+00
5.727990e-01
5.723671e-01
5.720072e-01
5.716327e-01
5.712769e-01
5.709778e-01
5.707783e-01
5.707070e-01
5.707759e-01
5.709763e-01
5.712738e-01
5.716284e-01
5.720023e-01
5.724422e-01
5.722268e-01
0.000000e+00
1.000000e+00
5.727070e-01
5.721792e-01
5.717158e-01
5.712336e-01
5.707766e-01
5.703929e-01
5.701328e-01
5.700391e-01
5.701296e-01
5.703874e-01
5.707709e-01
5.712278e-01
5.717096e-01
5.722533e-01
5.721555e-01
0.000000e+00
1.000000e+00
5.726279e-01
5.719879e-01
5.714187e-01
5.708270e-01
5.702657e-01
5.697936e-01
5.694727e-01
5.693582e-01
5.694699e-01
5.697868e-01
5.702579e-01
5.708193e-01
5.714112e-01
5.720624e-01
5.720500e-01
0.000000e+00
1.000000e+00
5.725428e-01
5.718023e-01
5.711311e-01
5.704329e-01
5.697697e-01
5.692120e-01
5.688344e-01
5.686998e-01
5.688317e-01
5.692058e-01
5.697618e-01
5.704241e-01
5.711226e-01
5.718772e-01
5.719699e-01
0.000000e+00
1.000000e+00
5.724545e-01
5.716318e-01
5.708676e-01
5.700717e-01
5.693162e-01
5.686810e-01
5.682514e-01
5.680981e-01
5.682484e-01
5.686749e-01
5.693084e-01
5.700631e-01
5.708590e-01
5.717084e-01
5.718839e-01
0.000000e+00
1.000000e+00
5.723775e-01
5.714863e-01
5.706414e-01
5.697620e-01
5.689276e-01
5.682259e-01
5.677519e-01
5.675827e-01
5.677487e-01
5.682201e-01
5.689200e-01
5.697538e-01
5.706331e-01
5.715630e-01
5.718261e-01
0.000000e+00
1.000000e+00
5.723147e-01
5.713718e-01
5.704624e-01
5.695170e-01
5.686202e-01
5.678661e-01
5.673568e-01
5.671750e-01
5.673537e-01
5.678605e-01
5.686130e-01
5.695094e-01
5.704546e-01
5.714494e-01
5.717573e-01
0.000000e+00
1.000000e+00
5.722613e-01
5.712923e-01
5.703360e-01
5.693441e-01
5.684033e-01
5.676124e-01
5.670782e-01
5.668875e-01
5.670751e-01
5.676070e-01
5.683966e-01
5.693371e-01
5.703288e-01
5.713685e-01
5.717305e-01
0.000000e+00
1.000000e+00
5.722219e-01
5.712478e-01
5.702637e-01
5.692450e-01
5.682791e-01
5.674675e-01
5.669192e-01
5.667232e-01
5.669160e-01
5.674623e-01
5.682732e-01
5.692388e-01
5.702570e-01
5.713249e-01
5.716644e-01
0.000000e+00
1.000000e+00
5.721842e-01
5.712358e-01
5.702435e-01
5.692173e-01
5.682443e-01
5.674270e-01
5.668746e-01
5.666769e-01
5.668717e-01
5.674223e-01
5.682391e-01
5.692117e-01
5.702373e-01
5.713110e-01
5.716756e-01
0.000000e+00
1.000000e+00
5.721543e-01
5.712591e-01
5.702687e-01
5.692524e-01
5.682887e-01
5.674805e-01
5.669346e-01
5.667368e-01
5.669294e-01
5.674759e-01
5.682854e-01
5.692487e-01
5.702642e-01
5.713184e-01
5.716494e-01
0.000000e+00
1.000000e+00
5.734288e-01
5.730117e-01
5.731279e-01
5.731673e-01
5.732041e-01
5.732353e-01
5.732567e-01
5.732640e-01
5.732546e-01
5.732301e-01
5.731954e-01
5.731577e-01
5.731235e-01
5.731652e-01
5.729988e-01
0.000000e+00
1.000000e+00
5.732688e-01
5.729784e-01
5.730254e-01
5.730267e-01
5.730272e-01
5.730275e-01
5.730279e-01
5.730274e-01
5.730256e-01
5.730241e-01
5.730231e-01
5.730223e-01
5.730223e-01
5.731384e-01
5.720902e-01
0.000000e+00
1.000000e+00
5.731488e-01
5.729023e-01
5.728727e-01
5.728171e-01
5.727637e-01
5.727183e-01
5.726869e-01
5.726752e-01
5.726870e-01
5.727163e-01
5.727590e-01
5.728109e-01
5.728668e-01
5.729848e-01
5.722948e-01
0.000000e+00
1.000000e+00
5.730573e-01
5.727809e-01
5.726706e-01
5.725404e-01
5.724161e-01
5.723105e-01
5.722380e-01
5.722142e-01
5.722403e-01
5.723080e-01
5.724111e-01
5.725345e-01
5.726646e-01
5.728423e-01
5.723852e-01
0.000000e+00
1.000000e+00
5.729691e-01
5.726241e-01
5.724212e-01
5.721990e-01
5.719874e-01
5.718081e-01
5.716892e-01
5.716467e-01
5.716885e-01
5.718064e-01
5.719833e-01
5.721941e-01
5.724159e-01
5.726916e-01
5.722956e-01
0.000000e+00
1.000000e+00
5.728753e-01
5.724391e-01
5.721312e-01
5.718021e-01
5.714892e-01
5.712262e-01
5.710500e-01
5.709849e-01
5.710469e-01
5.712232e-01
5.714850e-01
5.717970e-01
5.721257e-01
5.725103e-01
5.722698e-01
0.000000e+00
1.000000e+00
5.727699e-01
5.722336e-01
5.718115e-01
5.713645e-01
5.709405e-01
5.705841e-01
5.703431e-01
5.702558e-01
5.703392e-01
5.705785e-01
5.709344e-01
5.713583e-01
5.718052e-01
5.723105e-01
5.721482e-01
0.000000e+00
1.000000e+00
5.726797e-01
5.720181e-01
5.714765e-01
5.709058e-01
5.703644e-01
5.699083e-01
5.695995e-01
5.694886e-01
5.695962e-01
5.699019e-01
5.703565e-01
5.708981e-01
5.714690e-01
5.720965e-01
5.720586e-01
0.000000e+00
1.000000e+00
5.725825e-01
5.718018e-01
5.711427e-01
5.704487e-01
5.697891e-01
5.692340e-01
5.688590e-01
5.687253e-01
5.688565e-01
5.692285e-01
5.697814e-01
5.704400e-01
5.711344e-01
5.718837e-01
5.719549e-01
0.000000e+00
1.000000e+00
5.724735e-01
5.715988e-01
5.708282e-01
5.700175e-01
5.692476e-01
5.686001e-01
5.681627e-01
5.680072e-01
5.681605e-01
5.685948e-01
5.692403e-01
5.700090e-01
5.708196e-01
5.716827e-01
5.718696e-01
0.000000e+00
1.000000e+00
5.723762e-01
5.714204e-01
5.705497e-01
5.696360e-01
5.687694e-01
5.680403e-01
5.675477e-01
5.673728e-01
5.675456e-01
5.680350e-01
5.687622e-01
5.696283e-01
5.705416e-01
5.715056e-01
5.717721e-01
0.000000e+00
1.000000e+00
5.722956e-01
5.712750e-01
5.703214e-01
5.693240e-01
5.683779e-01
5.675818e-01
5.670443e-01
5.668533e-01
5.670421e-01
5.675767e-01
5.683709e-01
5.693167e-01
5.703140e-01
5.713596e-01
5.717149e-01
0.000000e+00
1.000000e+00
5.722307e-01
5.711688e-01
5.701528e-01
5.690933e-01
5.680884e-01
5.672431e-01
5.666723e-01
5.664695e-01
5.666702e-01
5.672382e-01
5.680819e-01
5.690866e-01
5.701459e-01
5.712523e-01
5.716539e-01
0.000000e+00
1.000000e+00
5.721820e-01
5.711042e-01
5.700477e-01
5.689494e-01
5.679080e-01
5.670323e-01
5.664406e-01
5.662305e-01
5.664387e-01
5.670276e-01
5.679022e-01
5.689434e-01
5.700414e-01
5.711845e-01
5.716413e-01
0.000000e+00
1.000000e+00
5.721438e-01
5.710801e-01
5.700053e-01
5.688912e-01
5.678353e-01
5.669480e-01
5.663479e-01
5.661346e-01
5.663461e-01
5.669434e-01
5.678303e-01
5.688862e-01
5.699996e-01
5.711591e-01
5.716050e-01
0.000000e+00
1.000000e+00
5.721102e-01
5.710923e-01
5.700211e-01
5.689128e-01
5.678623e-01
5.669805e-01
5.663836e-01
5.661709e-01
5.663820e-01
5.669764e-01
5.678586e-01
5.689087e-01
5.700159e-01
5.711690e-01
5.716367e-01
0.000000e+00
1.000000e+00
5.720768e-01
5.711416e-01
5.700867e-01
5.690029e-01
5.679755e-01
5.671146e-01
5.665323e-01
5.663220e-01
5.665286e-01
5.671107e-01
5.679736e-01
5.690002e-01
5.700826e-01
5.712076e-01
5.715960e-01
0.000000e+00
1.000000e+00
5.734322e-01
5.730949e-01
5.732378e-01
5.733196e-01
5.733975e-01
5.734609e-01
5.735025e-01
5.735147e-01
5.734968e-01
5.734552e-01
5.733945e-01
5.733216e-01
5.732421e-01
5.731856e-01
5.728137e-01
0.000000e+00
1.000000e+00
5.733162e-01
5.730062e-01
5.730998e-01
5.731285e-01
5.731556e-01
5.731779e-01
5.731929e-01
5.731970e-01
5.731911e-01
5.731759e-01
5.731543e-01
5.731266e-01
5.730973e-01
5.731112e-01
5.723758e-01
0.000000e+00
1.000000e+00
5.732240e-01
5.729015e-01
5.729058e-01
5.728631e-01
5.728222e-01
5.727876e-01
5.727639e-01
5.727564e-01
5.727638e-01
5.727863e-01
5.728208e-01
5.728618e-01
5.729030e-01
5.729687e-01
5.724971e-01
0.000000e+00
1.000000e+00
5.731148e-01
5.727554e-01
5.726594e-01
5.725253e-01
5.723976e-01
5.722896e-01
5.722174e-01
5.721927e-01
5.722171e-01
5.722879e-01
5.723940e-01
5.725210e-01
5.726546e-01
5.728020e-01
5.725414e-01
0.000000e+00
1.000000e+00
5.730066e-01
5.725716e-01
5.723625e-01
5.721186e-01
5.718866e-01
5.716918e-01
5.715617e-01
5.715140e-01
5.715596e-01
5.716889e-01
5.718825e-01
5.721136e-01
5.723569e-01
5.726229e-01
5.723624e-01
0.000000e+00
1.000000e+00
5.728778e-01
5.723582e-01
5.720238e-01
5.716547e-01
5.713045e-01
5.710097e-01
5.708124e-01
5.707401e-01
5.708083e-01
5.710056e-01
5.712990e-01
5.716489e-01
5.720174e-01
5.724193e-01
5.722162e-01
0.000000e+00
1.000000e+00
5.727598e-01
5.721238e-01
5.716565e-01
5.711519e-01
5.706727e-01
5.702695e-01
5.699987e-01
5.699000e-01
5.699944e-01
5.702645e-01
5.706662e-01
5.711448e-01
5.716493e-01
5.721953e-01
5.720768e-01
0.000000e+00
1.000000e+00
5.726484e-01
5.718786e-01
5.712781e-01
5.706336e-01
5.700208e-01
5.695067e-01
5.691598e-01
5.690346e-01
5.691561e-01
5.695013e-01
5.700145e-01
5.706258e-01
5.712702e-01
5.719602e-01
5.719931e-01
0.000000e+00
1.000000e+00
5.725275e-01
5.716400e-01
5.709086e-01
5.701273e-01
5.693855e-01
5.687628e-01
5.683418e-01
5.681913e-01
5.683389e-01
5.687573e-01
5.693792e-01
5.701199e-01
5.709007e-01
5.717310e-01
5.718732e-01
0.000000e+00
1.000000e+00
5.724111e-01
5.714233e-01
5.705691e-01
5.696626e-01
5.688027e-01
5.680798e-01
5.675913e-01
5.674176e-01
5.675891e-01
5.680747e-01
5.687963e-01
5.696557e-01
5.705616e-01
5.715175e-01
5.717702e-01
0.000000e+00
1.000000e+00
5.723112e-01
5.712387e-01
5.702786e-01
5.692655e-01
5.683044e-01
5.674956e-01
5.669497e-01
5.667560e-01
5.669479e-01
5.674910e-01
5.682980e-01
5.692587e-01
5.702717e-01
5.713333e-01
5.716778e-01
0.000000e+00
1.000000e+00
5.722245e-01
5.710964e-01
5.700518e-01
5.689553e-01
5.679150e-01
5.670393e-01
5.664485e-01
5.662391e-01
5.664470e-01
5.670350e-01
5.679086e-01
5.689486e-01
5.700452e-01
5.711884e-01
5.716161e-01
0.000000e+00
1.000000e+00
5.721551e-01
5.710015e-01
5.698967e-01
5.687430e-01
5.676486e-01
5.667276e-01
5.661060e-01
5.658859e-01
5.661048e-01
5.667236e-01
5.676427e-01
5.687369e-01
5.698906e-01
5.710898e-01
5.715695e-01
0.000000e+00
1.000000e+00
5.721114e-01
5.709537e-01
5.698155e-01
5.686316e-01
5.675093e-01
5.665651e-01
5.659270e-01
5.657016e-01
5.659266e-01
5.665614e-01
5.675043e-01
5.686267e-01
5.698101e-01
5.710381e-01
5.715507e-01
0.000000e+00
1.000000e+00
5.720794e-01
5.709511e-01
5.698050e-01
5.686172e-01
5.674918e-01
5.665459e-01
5.659052e-01
5.656791e-01
5.659051e-01
5.665421e-01
5.674879e-01
5.686136e-01
5.698005e-01
5.710337e-01
5.715270e-01
0.000000e+00
1.000000e+00
5.720522e-01
5.709881e-01
5.698582e-01
5.686898e-01
5.675829e-01
5.666543e-01
5.660240e-01
5.658014e-01
5.660244e-01
5.666510e-01
5.675810e-01
5.686877e-01
5.698545e-01
5.710705e-01
5.715528e-01
0.000000e+00
1.000000e+00
5.720261e-01
5.710643e-01
5.699641e-01
5.688351e-01
5.677651e-01
5.668696e-01
5.662625e-01
5.660453e-01
5.662612e-01
5.668674e-01
5.677660e-01
5.688350e-01
5.699619e-01
5.711417e-01
5.715396e-01
0.000000e+00
1.000000e+00
5.734344e-01
5.732057e-01
5.733887e-01
5.735213e-01
5.736473e-01
5.737555e-01
5.738308e-01
5.738585e-01
5.738353e-01
5.737680e-01
5.736645e-01
5.735365e-01
5.733976e-01
5.732753e-01
5.729953e-01
0.000000e+00
1.000000e+00
5.733503e-01
5.730788e-01
5.732166e-01
5.732880e-01
5.733562e-01
5.734146e-01
5.734548e-01
5.734680e-01
5.734530e-01
5.734105e-01
5.733508e-01
5.732852e-01
5.732168e-01
5.731760e-01
5.727253e-01
0.000000e+00
1.000000e+00
5.732667e-01
5.729405e-01
5.729855e-01
5.729724e-01
5.729592e-01
5.729480e-01
5.729403e-01
5.729383e-01
5.729388e-01
5.729452e-01
5.729542e-01
5.729674e-01
5.729795e-01
5.730053e-01
5.727684e-01
0.000000e+00
1.000000e+00
5.731512e-01
5.727628e-01
5.726947e-01
5.725736e-01
5.724584e-01
5.723614e-01
5.722960e-01
5.722748e-01
5.722970e-01
5.723625e-01
5.724572e-01
5.725711e-01
5.726911e-01
5.728121e-01
5.727373e-01
0.000000e+00
1.000000e+00
5.730237e-01
5.725490e-01
5.723520e-01
5.721044e-01
5.718691e-01
5.716705e-01
5.715389e-01
5.714918e-01
5.715379e-01
5.716695e-01
5.718654e-01
5.720998e-01
5.723467e-01
5.725955e-01
5.725758e-01
0.000000e+00
1.000000e+00
5.728803e-01
5.723076e-01
5.719663e-01
5.715760e-01
5.712047e-01
5.708934e-01
5.706860e-01
5.706095e-01
5.706824e-01
5.708908e-01
5.712006e-01
5.715703e-01
5.719599e-01
5.723574e-01
5.723754e-01
0.000000e+00
1.000000e+00
5.727640e-01
5.720399e-01
5.715533e-01
5.710100e-01
5.704942e-01
5.700631e-01
5.697721e-01
5.696658e-01
5.697682e-01
5.700583e-01
5.704898e-01
5.710042e-01
5.715466e-01
5.721055e-01
5.721765e-01
0.000000e+00
1.000000e+00
5.726317e-01
5.717686e-01
5.711339e-01
5.704358e-01
5.697742e-01
5.692199e-01
5.688439e-01
5.687089e-01
5.688407e-01
5.692139e-01
5.697689e-01
5.704302e-01
5.711274e-01
5.718521e-01
5.719919e-01
0.000000e+00
1.000000e+00
5.724949e-01
5.715139e-01
5.707323e-01
5.698863e-01
5.690848e-01
5.684114e-01
5.679552e-01
5.677927e-01
5.679525e-01
5.684054e-01
5.690787e-01
5.698806e-01
5.707261e-01
5.716100e-01
5.718223e-01
0.000000e+00
1.000000e+00
5.723830e-01
5.712832e-01
5.703719e-01
5.693936e-01
5.684658e-01
5.676854e-01
5.671580e-01
5.669706e-01
5.671556e-01
5.676800e-01
5.684594e-01
5.693875e-01
5.703660e-01
5.713880e-01
5.717092e-01
0.000000e+00
1.000000e+00
5.722719e-01
5.710965e-01
5.700733e-01
5.689849e-01
5.679521e-01
5.670831e-01
5.664970e-01
5.662888e-01
5.664949e-01
5.670788e-01
5.679461e-01
5.689787e-01
5.700674e-01
5.711999e-01
5.716201e-01
0.000000e+00
1.000000e+00
5.721761e-01
5.709616e-01
5.698507e-01
5.686803e-01
5.675693e-01
5.666343e-01
5.660042e-01
5.657808e-01
5.660027e-01
5.666308e-01
5.675637e-01
5.686741e-01
5.698449e-01
5.710589e-01
5.715545e-01
0.000000e+00
1.000000e+00
5.721113e-01
5.708788e-01
5.697113e-01
5.684895e-01
5.673302e-01
5.663542e-01
5.656964e-01
5.654636e-01
5.656955e-01
5.663512e-01
5.673249e-01
5.684840e-01
5.697060e-01
5.709708e-01
5.715058e-01
0.000000e+00
1.000000e+00
5.720641e-01
5.708493e-01
5.696554e-01
5.684127e-01
5.672347e-01
5.662429e-01
5.655735e-01
5.653376e-01
5.655737e-01
5.662405e-01
5.672304e-01
5.684087e-01
5.696509e-01
5.709367e-01
5.715087e-01
0.000000e+00
1.000000e+00
5.720335e-01
5.708688e-01
5.696773e-01
5.684425e-01
5.672730e-01
5.662898e-01
5.656236e-01
5.653898e-01
5.656247e-01
5.662873e-01
5.672704e-01
5.684405e-01
5.696741e-01
5.709530e-01
5.715078e-01
0.000000e+00
1.000000e+00
5.720166e-01
5.709305e-01
5.697674e-01
5.685655e-01
5.674272e-01
5.664728e-01
5.658242e-01
5.655970e-01
5.658262e-01
5.664711e-01
5.674276e-01
5.685656e-01
5.697654e-01
5.710173e-01
5.715291e-01
0.000000e+00
1.000000e+00
5.719998e-01
5.710319e-01
5.699121e-01
5.687640e-01
5.676760e-01
5.667661e-01
5.661486e-01
5.659303e-01
5.661498e-01
5.667663e-01
5.676800e-01
5.687668e-01
5.699123e-01
5.711295e-01
5.715107e-01
0.000000e+00
1.000000e+00
5.734801e-01
5.733206e-01
5.735684e-01
5.737704e-01
5.739639e-01
5.741276e-01
5.742403e-01
5.742820e-01
5.742457e-01
5.741477e-01
5.739940e-01
5.737996e-01
5.735903e-01
5.734061e-01
5.730150e-01
0.000000e+00
1.000000e+00
5.734021e-01
5.732013e-01
5.733750e-01
5.735108e-01
5.736379e-01
5.737386e-01
5.738014e-01
5.738183e-01
5.737895e-01
5.737199e-01
5.736234e-01
5.735063e-01
5.733776e-01
5.732955e-01
5.727300e-01
0.000000e+00
1.000000e+00
5.733115e-01
5.730158e-01
5.731082e-01
5.731406e-01
5.731699e-01
5.731922e-01
5.732065e-01
5.732149e-01
5.732101e-01
5.731957e-01
5.731708e-01
5.731403e-01
5.731066e-01
5.730934e-01
5.728319e-01
0.000000e+00
1.000000e+00
5.732095e-01
5.727983e-01
5.727782e-01
5.726885e-01
5.726024e-01
5.725304e-01
5.724858e-01
5.724733e-01
5.724897e-01
5.725392e-01
5.726078e-01
5.726908e-01
5.727780e-01
5.728667e-01
5.727659e-01
0.000000e+00
1.000000e+00
5.730533e-01
5.725621e-01
5.723938e-01
5.721614e-01
5.719407e-01
5.717572e-01
5.716367e-01
5.715914e-01
5.716342e-01
5.717581e-01
5.719408e-01
5.721597e-01
5.723902e-01
5.726220e-01
5.726700e-01
0.000000e+00
1.000000e+00
5.728997e-01
5.722945e-01
5.719649e-01
5.715745e-01
5.712048e-01
5.708968e-01
5.706883e-01
5.706105e-01
5.706846e-01
5.708928e-01
5.712020e-01
5.715712e-01
5.719603e-01
5.723534e-01
5.724709e-01
0.000000e+00
1.000000e+00
5.727796e-01
5.719977e-01
5.715114e-01
5.709543e-01
5.704270e-01
5.699848e-01
5.696839e-01
5.695753e-01
5.696813e-01
5.699790e-01
5.704217e-01
5.709498e-01
5.715066e-01
5.720698e-01
5.722765e-01
0.000000e+00
1.000000e+00
5.726372e-01
5.717065e-01
5.710577e-01
5.703333e-01
5.696470e-01
5.690698e-01
5.686782e-01
5.685386e-01
5.686762e-01
5.690637e-01
5.696404e-01
5.703277e-01
5.710524e-01
5.717911e-01
5.720583e-01
0.000000e+00
1.000000e+00
5.724992e-01
5.714346e-01
5.706300e-01
5.697473e-01
5.689104e-01
5.682064e-01
5.677301e-01
5.675608e-01
5.677280e-01
5.682006e-01
5.689036e-01
5.697412e-01
5.706242e-01
5.715346e-01
5.718376e-01
0.000000e+00
1.000000e+00
5.723746e-01
5.711943e-01
5.702534e-01
5.692315e-01
5.682622e-01
5.674470e-01
5.668963e-01
5.667007e-01
5.668940e-01
5.674416e-01
5.682558e-01
5.692255e-01
5.702477e-01
5.713086e-01
5.716777e-01
0.000000e+00
1.000000e+00
5.722474e-01
5.710101e-01
5.699501e-01
5.688158e-01
5.677396e-01
5.668349e-01
5.662243e-01
5.660074e-01
5.662220e-01
5.668302e-01
5.677339e-01
5.688099e-01
5.699442e-01
5.711191e-01
5.715868e-01
0.000000e+00
1.000000e+00
5.721570e-01
5.708805e-01
5.697339e-01
5.685202e-01
5.673679e-01
5.663991e-01
5.657461e-01
5.655144e-01
5.657443e-01
5.663956e-01
5.673630e-01
5.685145e-01
5.697284e-01
5.709843e-01
5.715067e-01
0.000000e+00
1.000000e+00
5.720951e-01
5.708091e-01
5.696115e-01
5.683531e-01
5.671586e-01
5.661530e-01
5.654759e-01
5.652362e-01
5.654749e-01
5.661507e-01
5.671539e-01
5.683479e-01
5.696067e-01
5.709063e-01
5.714885e-01
0.000000e+00
1.000000e+00
5.720473e-01
5.707985e-01
5.695808e-01
5.683109e-01
5.671073e-01
5.660932e-01
5.654094e-01
5.651686e-01
5.654098e-01
5.660917e-01
5.671035e-01
5.683078e-01
5.695774e-01
5.708942e-01
5.714663e-01
0.000000e+00
1.000000e+00
5.720177e-01
5.708400e-01
5.696337e-01
5.683829e-01
5.671987e-01
5.662029e-01
5.655288e-01
5.652924e-01
5.655304e-01
5.662018e-01
5.671977e-01
5.683828e-01
5.696320e-01
5.709332e-01
5.714977e-01
0.000000e+00
1.000000e+00
5.720079e-01
5.709246e-01
5.697581e-01
5.685529e-01
5.674114e-01
5.664549e-01
5.658055e-01
5.655787e-01
5.658085e-01
5.664553e-01
5.674145e-01
5.685556e-01
5.697584e-01
5.710255e-01
5.715431e-01
0.000000e+00
1.000000e+00
5.720014e-01
5.710497e-01
5.699382e-01
5.687998e-01
5.677209e-01
5.668189e-01
5.662072e-01
5.659932e-01
5.662106e-01
5.668218e-01
5.677280e-01
5.688056e-01
5.699414e-01
5.711822e-01
5.714159e-01
0.000000e+00
1.000000e+00
5.735313e-01
5.734513e-01
5.737736e-01
5.740492e-01
5.743198e-01
5.745524e-01
5.747157e-01
5.747812e-01
5.747346e-01
5.746113e-01
5.744010e-01
5.741263e-01
5.738271e-01
5.735544e-01
5.731174e-01
0.000000e+00
1.000000e+00
5.734513e-01
5.733455e-01
5.735669e-01
5.737628e-01
5.739529e-01
5.741148e-01
5.742246e-01
5.742626e-01
5.742226e-01
5.741212e-01
5.739698e-01
5.737802e-01
5.735740e-01
5.734200e-01
5.728291e-01
0.000000e+00
1.000000e+00
5.733663e-01
5.731329e-01
5.732691e-01
5.733613e-01
5.734491e-01
5.735237e-01
5.735743e-01
5.735915e-01
5.735757e-01
5.735242e-01
5.734489e-01
5.733619e-01
5.732706e-01
5.732048e-01
5.729544e-01
0.000000e+00
1.000000e+00
5.732625e-01
5.728844e-01
5.729102e-01
5.728697e-01
5.728312e-01
5.728003e-01
5.727820e-01
5.727723e-01
5.727774e-01
5.728001e-01
5.728306e-01
5.728683e-01
5.729081e-01
5.729478e-01
5.728333e-01
0.000000e+00
1.000000e+00
5.731013e-01
5.726221e-01
5.724894e-01
5.722940e-01
5.721097e-01
5.719569e-01
5.718536e-01
5.718138e-01
5.718513e-01
5.719562e-01
5.721100e-01
5.722941e-01
5.724880e-01
5.726811e-01
5.726557e-01
0.000000e+00
1.000000e+00
5.729451e-01
5.723280e-01
5.720266e-01
5.716606e-01
5.713140e-01
5.710228e-01
5.708240e-01
5.707512e-01
5.708217e-01
5.710178e-01
5.713085e-01
5.716558e-01
5.720219e-01
5.723876e-01
5.724496e-01
0.000000e+00
1.000000e+00
5.728018e-01
5.720126e-01
5.715415e-01
5.709959e-01
5.704784e-01
5.700428e-01
5.697471e-01
5.696413e-01
5.697458e-01
5.700377e-01
5.704715e-01
5.709892e-01
5.715352e-01
5.720797e-01
5.722895e-01
0.000000e+00
1.000000e+00
5.726638e-01
5.716980e-01
5.710600e-01
5.703360e-01
5.696493e-01
5.690716e-01
5.686804e-01
5.685414e-01
5.686793e-01
5.690664e-01
5.696423e-01
5.703290e-01
5.710533e-01
5.717785e-01
5.720669e-01
0.000000e+00
1.000000e+00
5.725272e-01
5.714065e-01
5.706114e-01
5.697214e-01
5.688773e-01
5.681677e-01
5.676877e-01
5.675174e-01
5.676864e-01
5.681624e-01
5.688707e-01
5.697148e-01
5.706050e-01
5.715074e-01
5.718476e-01
0.000000e+00
1.000000e+00
5.723934e-01
5.711594e-01
5.702237e-01
5.691901e-01
5.682101e-01
5.673865e-01
5.668299e-01
5.666325e-01
5.668282e-01
5.673813e-01
5.682040e-01
5.691842e-01
5.702177e-01
5.712797e-01
5.716350e-01
0.000000e+00
1.000000e+00
5.722685e-01
5.709753e-01
5.699192e-01
5.687732e-01
5.676861e-01
5.667730e-01
5.661563e-01
5.659376e-01
5.661543e-01
5.667681e-01
5.676807e-01
5.687676e-01
5.699135e-01
5.710913e-01
5.715688e-01
0.000000e+00
1.000000e+00
5.721698e-01
5.708555e-01
5.697121e-01
5.684900e-01
5.673300e-01
5.663556e-01
5.656984e-01
5.654652e-01
5.656963e-01
5.663516e-01
5.673253e-01
5.684847e-01
5.697068e-01
5.709652e-01
5.714602e-01
0.000000e+00
1.000000e+00
5.721051e-01
5.707991e-01
5.696072e-01
5.683471e-01
5.671508e-01
5.661444e-01
5.654669e-01
5.652267e-01
5.654655e-01
5.661420e-01
5.671466e-01
5.683424e-01
5.696028e-01
5.708999e-01
5.714905e-01
0.000000e+00
1.000000e+00
5.720599e-01
5.708068e-01
5.696004e-01
5.683380e-01
5.671414e-01
5.661332e-01
5.654535e-01
5.652137e-01
5.654536e-01
5.661318e-01
5.671380e-01
5.683355e-01
5.695979e-01
5.709121e-01
5.714169e-01
0.000000e+00
1.000000e+00
5.720346e-01
5.708686e-01
5.696811e-01
5.684479e-01
5.672803e-01
5.662992e-01
5.656353e-01
5.654018e-01
5.656369e-01
5.662990e-01
5.672811e-01
5.684495e-01
5.696810e-01
5.709769e-01
5.714617e-01
0.000000e+00
1.000000e+00
5.720315e-01
5.709735e-01
5.698352e-01
5.686587e-01
5.675439e-01
5.666105e-01
5.659779e-01
5.657569e-01
5.659813e-01
5.666129e-01
5.675496e-01
5.686637e-01
5.698378e-01
5.710992e-01
5.715198e-01
0.000000e+00
1.000000e+00
5.720382e-01
5.711183e-01
5.700454e-01
5.689467e-01
5.679051e-01
5.670344e-01
5.664444e-01
5.662399e-01
5.664493e-01
5.670389e-01
5.679140e-01
5.689544e-01
5.700510e-01
5.712843e-01
5.713085e-01
0.000000e+00
1.000000e+00
5.735833e-01
5.736047e-01
5.739996e-01
5.743556e-01
5.747037e-01
5.750092e-01
5.752343e-01
5.753402e-01
5.752958e-01
5.751433e-01
5.748646e-01
5.744986e-01
5.740967e-01
5.737270e-01
5.731828e-01
0.000000e+00
1.000000e+00
5.734929e-01
5.734771e-01
5.737827e-01
5.740567e-01
5.743173e-01
5.745435e-01
5.747042e-01
5.747661e-01
5.747076e-01
5.745665e-01
5.743545e-01
5.740919e-01
5.738060e-01
5.735743e-01
5.729159e-01
0.000000e+00
1.000000e+00
5.734015e-01
5.732821e-01
5.734725e-01
5.736403e-01
5.737981e-01
5.739345e-01
5.740258e-01
5.740467e-01
5.740104e-01
5.739078e-01
5.737740e-01
5.736312e-01
5.734730e-01
5.733517e-01
5.729341e-01
0.000000e+00
1.000000e+00
5.732873e-01
5.730091e-01
5.730857e-01
5.731084e-01
5.731289e-01
5.731476e-01
5.731623e-01
5.731609e-01
5.731566e-01
5.731420e-01
5.731219e-01
5.731017e-01
5.730791e-01
5.730633e-01
5.729332e-01
0.000000e+00
1.000000e+00
5.731537e-01
5.727154e-01
5.726391e-01
5.724985e-01
5.723662e-01
5.722556e-01
5.721800e-01
5.721510e-01
5.721786e-01
5.722533e-01
5.723627e-01
5.724946e-01
5.726339e-01
5.727719e-01
5.726612e-01
0.000000e+00
1.000000e+00
5.729978e-01
5.723998e-01
5.721492e-01
5.718272e-01
5.715217e-01
5.712645e-01
5.710896e-01
5.710265e-01
5.710887e-01
5.712609e-01
5.715163e-01
5.718211e-01
5.721423e-01
5.724541e-01
5.724876e-01
0.000000e+00
1.000000e+00
5.728365e-01
5.720709e-01
5.716395e-01
5.711292e-01
5.706449e-01
5.702376e-01
5.699617e-01
5.698632e-01
5.699610e-01
5.702337e-01
5.706387e-01
5.711221e-01
5.716319e-01
5.721301e-01
5.723524e-01
0.000000e+00
1.000000e+00
5.727131e-01
5.717378e-01
5.711385e-01
5.704434e-01
5.697840e-01
5.692296e-01
5.688543e-01
5.687207e-01
5.688534e-01
5.692249e-01
5.697773e-01
5.704362e-01
5.711314e-01
5.718103e-01
5.721811e-01
0.000000e+00
1.000000e+00
5.725832e-01
5.714316e-01
5.706777e-01
5.698123e-01
5.689917e-01
5.683017e-01
5.678349e-01
5.676692e-01
5.678340e-01
5.682967e-01
5.689849e-01
5.698055e-01
5.706710e-01
5.715230e-01
5.719297e-01
0.000000e+00
1.000000e+00
5.724485e-01
5.711813e-01
5.702856e-01
5.692751e-01
5.683171e-01
5.675119e-01
5.669674e-01
5.667745e-01
5.669665e-01
5.675069e-01
5.683109e-01
5.692691e-01
5.702795e-01
5.712879e-01
5.716344e-01
0.000000e+00
1.000000e+00
5.723286e-01
5.709964e-01
5.699849e-01
5.688631e-01
5.677992e-01
5.669058e-01
5.663020e-01
5.660883e-01
5.663010e-01
5.669011e-01
5.677939e-01
5.688575e-01
5.699790e-01
5.711032e-01
5.715536e-01
0.000000e+00
1.000000e+00
5.722227e-01
5.708880e-01
5.697891e-01
5.685952e-01
5.674619e-01
5.665109e-01
5.658689e-01
5.656418e-01
5.658676e-01
5.665068e-01
5.674575e-01
5.685898e-01
5.697835e-01
5.709873e-01
5.714502e-01
0.000000e+00
1.000000e+00
5.721581e-01
5.708454e-01
5.697013e-01
5.684760e-01
5.673123e-01
5.663342e-01
5.656757e-01
5.654425e-01
5.656742e-01
5.663314e-01
5.673083e-01
5.684711e-01
5.696969e-01
5.709392e-01
5.714918e-01
0.000000e+00
1.000000e+00
5.721125e-01
5.708714e-01
5.697157e-01
5.684962e-01
5.673399e-01
5.663660e-01
5.657094e-01
5.654774e-01
5.657089e-01
5.663642e-01
5.673366e-01
5.684939e-01
5.697137e-01
5.709760e-01
5.713885e-01
0.000000e+00
1.000000e+00
5.720874e-01
5.709531e-01
5.698198e-01
5.686380e-01
5.675188e-01
5.665795e-01
5.659434e-01
5.657188e-01
5.659441e-01
5.665790e-01
5.675206e-01
5.686406e-01
5.698210e-01
5.710697e-01
5.714031e-01
0.000000e+00
1.000000e+00
5.720899e-01
5.710759e-01
5.699977e-01
5.688814e-01
5.678230e-01
5.669379e-01
5.663383e-01