<?xml version="1.0"?>
<VTKFile type="StructuredGrid" version="0.1">
  <StructuredGrid WholeExtent="0 16 0 16 0 16">
    <Piece Extent="0 16 0 16 0 16">
      <PointData Scalars="temperature" Vectors="velocity">
        <DataArray type="Float32" Name="temperature" format="ascii">
1.000000e+00
5.730012e-01
5.730025e-01
5.730038e-01
5.730052e-01
5.730066e-01
5.730077e-01
5.730084e-01
5.730087e-01
5.730084e-01
5.730077e-01
5.730066e-01
5.730052e-01
5.730038e-01
5.730025e-01
5.730012e-01
0.000000e+00
1.000000e+00
5.730015e-01
5.730031e-01
5.730049e-01
5.730067e-01
5.730084e-01
5.730099e-01
5.730109e-01
5.730112e-01
5.730109e-01
5.730099e-01
5.730084e-01
5.730067e-01
5.730049e-01
5.730031e-01
5.730015e-01
0.000000e+00
1.000000e+00
5.730131e-01
5.730276e-01
5.730432e-01
5.730591e-01
5.730742e-01
5.730869e-01
5.730955e-01
5.730985e-01
5.730955e-01
5.730869e-01
5.730742e-01
5.730591e-01
5.730432e-01
5.730276e-01
5.730131e-01
0.000000e+00
1.000000e+00
5.730371e-01
5.730783e-01
5.731225e-01
5.731677e-01
5.732106e-01
5.732467e-01
5.732710e-01
5.732796e-01
5.732710e-01
5.732467e-01
5.732106e-01
5.731677e-01
5.731225e-01
5.730783e-01
5.730371e-01
0.000000e+00
1.000000e+00
5.730741e-01
5.731563e-01
5.732447e-01
5.733350e-01
5.734206e-01
5.734926e-01
5.735411e-01
5.735583e-01
5.735411e-01
5.734926e-01
5.734206e-01
5.733350e-01
5.732447e-01
5.731563e-01
5.730741e-01
0.000000e+00
1.000000e+00
5.731238e-01
5.732611e-01
5.734086e-01
5.735595e-01
5.737025e-01
5.738227e-01
5.739037e-01
5.739324e-01
5.739037e-01
5.738227e-01
5.737025e-01
5.735595e-01
5.734086e-01
5.732611e-01
5.731238e-01
0.000000e+00
1.000000e+00
5.731848e-01
5.733898e-01
5.736100e-01
5.738352e-01
5.740487e-01
5.742282e-01
5.743491e-01
5.743920e-01
5.743491e-01
5.742282e-01
5.740487e-01
5.738352e-01
5.736100e-01
5.733898e-01
5.731848e-01
0.000000e+00
1.000000e+00
5.732548e-01
5.735374e-01
5.738411e-01
5.741516e-01
5.744461e-01
5.746936e-01
5.748603e-01
5.749194e-01
5.748603e-01
5.746936e-01
5.744461e-01
5.741516e-01
5.738411e-01
5.735374e-01
5.732548e-01
0.000000e+00
1.000000e+00
5.733306e-01
5.736973e-01
5.740913e-01
5.744942e-01
5.748763e-01
5.751974e-01
5.754137e-01
5.754903e-01
5.754137e-01
5.751974e-01
5.748763e-01
5.744942e-01
5.740913e-01
5.736973e-01
5.733306e-01
0.000000e+00
1.000000e+00
5.734083e-01
5.738613e-01
5.743480e-01
5.748457e-01
5.753177e-01
5.757143e-01
5.759815e-01
5.760762e-01
5.759815e-01
5.757143e-01
5.753177e-01
5.748457e-01
5.743480e-01
5.738613e-01
5.734083e-01
0.000000e+00
1.000000e+00
5.734841e-01
5.740211e-01
5.745980e-01
5.751880e-01
5.757475e-01
5.762176e-01
5.765344e-01
5.766466e-01
5.765344e-01
5.762176e-01
5.757475e-01
5.751880e-01
5.745980e-01
5.740211e-01
5.734841e-01
0.000000e+00
1.000000e+00
5.735540e-01
5.741685e-01
5.748287e-01
5.755040e-01
5.761442e-01
5.766823e-01
5.770448e-01
5.771732e-01
5.770448e-01
5.766823e-01
5.761442e-01
5.755040e-01
5.748287e-01
5.741685e-01
5.735540e-01
0.000000e+00
1.000000e+00
5.736149e-01
5.742970e-01
5.750298e-01
5.757793e-01
5.764900e-01
5.770872e-01
5.774897e-01
5.776322e-01
5.774897e-01
5.770872e-01
5.764900e-01
5.757793e-01
5.750298e-01
5.742970e-01
5.736149e-01
0.000000e+00
1.000000e+00
5.736645e-01
5.744018e-01
5.751937e-01
5.760037e-01
5.767718e-01
5.774172e-01
5.778522e-01
5.780062e-01
5.778522e-01
5.774172e-01
5.767718e-01
5.760037e-01
5.751937e-01
5.744018e-01
5.736645e-01
0.000000e+00
1.000000e+00
5.737016e-01
5.744799e-01
5.753160e-01
5.761712e-01
5.769820e-01
5.776635e-01
5.781226e-01
5.782852e-01
5.781226e-01
5.776635e-01
5.769820e-01
5.761712e-01
5.753160e-01
5.744799e-01
5.737016e-01
0.000000e+00
1.000000e+00
5.737256e-01
5.745306e-01
5.753954e-01
5.762799e-01
5.771186e-01
5.778234e-01
5.782983e-01
5.784665e-01
5.782983e-01
5.778234e-01
5.771186e-01
5.762799e-01
5.753954e-01
5.745306e-01
5.737256e-01
0.000000e+00
1.000000e+00
5.737371e-01
5.745549e-01
5.754333e-01
5.763318e-01
5.771838e-01
5.778997e-01
5.783822e-01
5.785530e-01
5.783822e-01
5.778997e-01
5.771838e-01
5.763318e-01
5.754333e-01
5.745549e-01
5.737371e-01
0.000000e+00
1.000000e+00
5.729910e-01
5.729810e-01
5.729703e-01
5.729593e-01
5.729489e-01
5.729401e-01
5.729342e-01
5.729321e-01
5.729342e-01
5.729401e-01
5.729489e-01
5.729593e-01
5.729703e-01
5.729810e-01
5.729910e-01
0.000000e+00
1.000000e+00
5.730020e-01
5.730043e-01
5.730067e-01
5.730092e-01
5.730116e-01
5.730135e-01
5.730149e-01
5.730153e-01
5.730149e-01
5.730135e-01
5.730116e-01
5.730092e-01
5.730067e-01
5.730043e-01
5.730020e-01
0.000000e+00
1.000000e+00
5.730257e-01
5.730542e-01
5.730848e-01
5.731161e-01
5.731458e-01
5.731708e-01
5.731876e-01
5.731935e-01
5.731876e-01
5.731708e-01
5.731458e-01
5.731161e-01
5.730848e-01
5.730542e-01
5.730257e-01
0.000000e+00
1.000000e+00
5.730630e-01
5.731329e-01
5.732079e-01
5.732847e-01
5.733575e-01
5.734186e-01
5.734599e-01
5.734745e-01
5.734599e-01
5.734186e-01
5.733575e-01
5.732847e-01
5.732079e-01
5.731329e-01
5.730630e-01
0.000000e+00
1.000000e+00
5.731142e-01
5.732408e-01
5.733768e-01
5.735160e-01
5.736479e-01
5.737588e-01
5.738335e-01
5.738599e-01
5.738335e-01
5.737588e-01
5.736479e-01
5.735160e-01
5.733768e-01
5.732408e-01
5.731142e-01
0.000000e+00
1.000000e+00
5.731784e-01
5.733763e-01
5.735889e-01
5.738064e-01
5.740126e-01
5.741859e-01
5.743026e-01
5.743440e-01
5.743026e-01
5.741859e-01
5.740126e-01
5.738064e-01
5.735889e-01
5.733763e-01
5.731784e-01
0.000000e+00
1.000000e+00
5.732538e-01
5.735353e-01
5.738378e-01
5.741471e-01
5.744405e-01
5.746870e-01
5.748531e-01
5.749119e-01
5.748531e-01
5.746870e-01
5.744405e-01
5.741471e-01
5.738378e-01
5.735353e-01
5.732538e-01
0.000000e+00
1.000000e+00
5.733372e-01
5.737113e-01
5.741132e-01
5.745242e-01
5.749139e-01
5.752414e-01
5.754621e-01
5.755403e-01
5.754621e-01
5.752414e-01
5.749139e-01
5.745242e-01
5.741132e-01
5.737113e-01
5.733372e-01
0.000000e+00
1.000000e+00
5.734246e-01
5.738957e-01
5.744017e-01
5.749192e-01
5.754100e-01
5.758224e-01
5.761003e-01
5.761987e-01
5.761003e-01
5.758224e-01
5.754100e-01
5.749192e-01
5.744017e-01
5.738957e-01
5.734246e-01
0.000000e+00
1.000000e+00
5.735114e-01
5.740788e-01
5.746883e-01
5.753116e-01
5.759027e-01
5.763994e-01
5.767342e-01
5.768527e-01
5.767342e-01
5.763994e-01
5.759027e-01
5.753116e-01
5.746883e-01
5.740788e-01
5.735114e-01
0.000000e+00
1.000000e+00
5.735930e-01
5.742510e-01
5.749577e-01
5.756806e-01
5.763660e-01
5.769420e-01
5.773302e-01
5.774676e-01
5.773302e-01
5.769420e-01
5.763660e-01
5.756806e-01
5.749577e-01
5.742510e-01
5.735931e-01
0.000000e+00
1.000000e+00
5.736654e-01
5.744035e-01
5.751965e-01
5.760075e-01
5.767766e-01
5.774228e-01
5.778583e-01
5.780125e-01
5.778583e-01
5.774228e-01
5.767766e-01
5.760075e-01
5.751965e-01
5.744035e-01
5.736654e-01
0.000000e+00
1.000000e+00
5.737252e-01
5.745297e-01
5.753940e-01
5.762780e-01
5.771161e-01
5.778205e-01
5.782951e-01
5.784632e-01
5.782951e-01
5.778205e-01
5.771161e-01
5.762780e-01
5.753940e-01
5.745297e-01
5.737252e-01
0.000000e+00
1.000000e+00
5.737705e-01
5.746252e-01
5.755435e-01
5.764826e-01
5.773731e-01
5.781215e-01
5.786257e-01
5.788043e-01
5.786257e-01
5.781215e-01
5.773731e-01
5.764826e-01
5.755435e-01
5.746252e-01
5.737705e-01
0.000000e+00
1.000000e+00
5.738003e-01
5.746882e-01
5.756421e-01
5.766176e-01
5.775427e-01
5.783200e-01
5.788438e-01
5.790293e-01
5.788438e-01
5.783200e-01
5.775427e-01
5.766176e-01
5.756421e-01
5.746882e-01
5.738004e-01
0.000000e+00
1.000000e+00
5.738150e-01
5.747192e-01
5.756906e-01
5.766840e-01
5.776260e-01
5.784177e-01
5.789511e-01
5.791400e-01
5.789511e-01
5.784177e-01
5.776260e-01
5.766840e-01
5.756906e-01
5.747192e-01
5.738150e-01
0.000000e+00
1.000000e+00
5.738156e-01
5.747205e-01
5.756925e-01
5.766867e-01
5.776294e-01
5.784216e-01
5.789554e-01
5.791444e-01
5.789554e-01
5.784216e-01
5.776294e-01
5.766867e-01
5.756925e-01
5.747205e-01
5.738156e-01
0.000000e+00
1.000000e+00
5.729693e-01
5.729352e-01
5.728986e-01
5.728611e-01
5.728256e-01
5.727958e-01
5.727757e-01
5.727686e-01
5.727757e-01
5.727958e-01
5.728256e-01
5.728611e-01
5.728986e-01
5.729352e-01
5.729693e-01
0.000000e+00
1.000000e+00
5.729914e-01
5.729818e-01
5.729715e-01
5.729609e-01
5.729509e-01
5.729425e-01
5.729368e-01
5.729348e-01
5.729368e-01
5.729425e-01
5.729509e-01
5.729609e-01
5.729715e-01
5.729818e-01
5.729914e-01
0.000000e+00
1.000000e+00
5.730275e-01
5.730581e-01
5.730909e-01
5.731245e-01
5.731563e-01
5.731830e-01
5.732010e-01
5.732074e-01
5.732010e-01
5.731830e-01
5.731563e-01
5.731245e-01
5.730909e-01
5.730581e-01
5.730275e-01
0.000000e+00
1.000000e+00
5.730787e-01
5.731660e-01
5.732598e-01
5.733557e-01
5.734467e-01
5.735231e-01
5.735746e-01
5.735929e-01
5.735746e-01
5.735231e-01
5.734467e-01
5.733557e-01
5.732598e-01
5.731660e-01
5.730787e-01
0.000000e+00
1.000000e+00
5.731447e-01
5.733053e-01
5.734778e-01
5.736542e-01
5.738215e-01
5.739621e-01
5.740568e-01
5.740904e-01
5.740568e-01
5.739621e-01
5.738215e-01
5.736542e-01
5.734778e-01
5.733053e-01
5.731447e-01
0.000000e+00
1.000000e+00
5.732243e-01
5.734732e-01
5.737405e-01
5.740140e-01
5.742732e-01
5.744911e-01
5.746379e-01
5.746899e-01
5.746379e-01
5.744911e-01
5.742732e-01
5.740140e-01
5.737405e-01
5.734732e-01
5.732243e-01
0.000000e+00
1.000000e+00
5.733148e-01
5.736640e-01
5.740391e-01
5.744228e-01
5.747866e-01
5.750923e-01
5.752983e-01
5.753713e-01
5.752983e-01
5.750923e-01
5.747866e-01
5.744228e-01
5.740391e-01
5.736640e-01
5.733148e-01
0.000000e+00
1.000000e+00
5.734121e-01
5.738693e-01
5.743604e-01
5.748627e-01
5.753390e-01
5.757392e-01
5.760089e-01
5.761044e-01
5.760089e-01
5.757392e-01
5.753390e-01
5.748627e-01
5.743604e-01
5.738693e-01
5.734121e-01
0.000000e+00
1.000000e+00
5.735113e-01
5.740786e-01
5.746880e-01
5.753113e-01
5.759023e-01
5.763989e-01
5.767336e-01
5.768521e-01
5.767336e-01
5.763989e-01
5.759023e-01
5.753113e-01
5.746880e-01
5.740786e-01
5.735113e-01
0.000000e+00
1.000000e+00
5.736071e-01
5.742806e-01
5.750042e-01
5.757442e-01
5.764459e-01
5.770355e-01
5.774329e-01
5.775736e-01
5.774329e-01
5.770355e-01
5.764459e-01
5.757442e-01
5.750042e-01
5.742806e-01
5.736071e-01
0.000000e+00
1.000000e+00
5.736942e-01
5.744643e-01
5.752917e-01
5.761378e-01
5.769402e-01
5.776144e-01
5.780688e-01
5.782297e-01
5.780688e-01
5.776144e-01
5.769402e-01
5.761378e-01
5.752917e-01
5.744643e-01
5.736942e-01
0.000000e+00
1.000000e+00
5.737682e-01
5.746204e-01
5.755359e-01
5.764723e-01
5.773602e-01
5.781063e-01
5.786091e-01
5.787872e-01
5.786091e-01
5.781063e-01
5.773602e-01
5.764723e-01
5.755359e-01
5.746204e-01
5.737682e-01
0.000000e+00
1.000000e+00
5.738260e-01
5.747422e-01
5.757266e-01
5.767333e-01
5.776880e-01
5.784902e-01
5.790308e-01
5.792222e-01
5.790308e-01
5.784902e-01
5.776880e-01
5.767333e-01
5.757266e-01
5.747422e-01
5.738260e-01
0.000000e+00
1.000000e+00
5.738658e-01
5.748262e-01
5.758580e-01
5.769133e-01
5.779139e-01
5.787548e-01
5.793214e-01
5.795221e-01
5.793214e-01
5.787548e-01
5.779139e-01
5.769133e-01
5.758580e-01
5.748262e-01
5.738658e-01
0.000000e+00
1.000000e+00
5.738874e-01
5.748718e-01
5.759293e-01
5.770109e-01
5.780365e-01
5.788984e-01
5.794791e-01
5.796848e-01
5.794791e-01
5.788984e-01
5.780365e-01
5.770109e-01
5.759293e-01
5.748718e-01
5.738874e-01
0.000000e+00
1.000000e+00
5.738917e-01
5.748809e-01
5.759436e-01
5.770305e-01
5.780612e-01
5.789272e-01
5.795108e-01
5.797175e-01
5.795108e-01
5.789272e-01
5.780612e-01
5.770305e-01
5.759436e-01
5.748809e-01
5.738917e-01
0.000000e+00
1.000000e+00
5.738806e-01
5.748575e-01
5.759070e-01
5.769803e-01
5.779981e-01
5.788534e-01
5.794298e-01
5.796339e-01
5.794298e-01
5.788534e-01
5.779981e-01
5.769803e-01
5.759070e-01
5.748575e-01
5.738806e-01
0.000000e+00
1.000000e+00
5.729352e-01
5.728633e-01
5.727861e-01
5.727070e-01
5.726321e-01
5.725692e-01
5.725268e-01
5.725117e-01
5.725268e-01
5.725692e-01
5.726321e-01
5.727070e-01
5.727861e-01
5.728633e-01
5.729352e-01
0.000000e+00
1.000000e+00
5.729682e-01
5.729330e-01
5.728951e-01
5.728563e-01
5.728196e-01
5.727887e-01
5.727679e-01
5.727606e-01
5.727679e-01
5.727887e-01
5.728196e-01
5.728563e-01
5.728951e-01
5.729330e-01
5.729682e-01
0.000000e+00
1.000000e+00
5.730170e-01
5.730358e-01
5.730560e-01
5.730767e-01
5.730963e-01
5.731128e-01
5.731239e-01
5.731278e-01
5.731239e-01
5.731128e-01
5.730963e-01
5.730767e-01
5.730560e-01
5.730358e-01
5.730170e-01
0.000000e+00
1.000000e+00
5.730821e-01
5.731733e-01
5.732711e-01
5.733713e-01
5.734662e-01
5.735460e-01
5.735997e-01
5.736187e-01
5.735997e-01
5.735460e-01
5.734662e-01
5.733713e-01
5.732711e-01
5.731733e-01
5.730821e-01
0.000000e+00
1.000000e+00
5.731632e-01
5.733443e-01
5.735389e-01
5.737378e-01
5.739265e-01
5.740850e-01
5.741919e-01
5.742297e-01
5.741919e-01
5.740850e-01
5.739265e-01
5.737378e-01
5.735389e-01
5.733443e-01
5.731632e-01
0.000000e+00
1.000000e+00
5.732584e-01
5.735450e-01
5.738529e-01
5.741678e-01
5.744664e-01
5.747173e-01
5.748864e-01
5.749462e-01
5.748864e-01
5.747173e-01
5.744664e-01
5.741678e-01
5.738529e-01
5.735450e-01
5.732584e-01
0.000000e+00
1.000000e+00
5.733640e-01
5.737678e-01
5.742015e-01
5.746452e-01
5.750659e-01
5.754194e-01
5.756576e-01
5.757420e-01
5.756576e-01
5.754194e-01
5.750659e-01
5.746452e-01
5.742015e-01
5.737678e-01
5.733640e-01
0.000000e+00
1.000000e+00
5.734752e-01
5.740024e-01
5.745687e-01
5.751479e-01
5.756971e-01
5.761587e-01
5.764697e-01
5.765798e-01
5.764697e-01
5.761587e-01
5.756971e-01
5.751479e-01
5.745687e-01
5.740024e-01
5.734752e-01
0.000000e+00
1.000000e+00
5.735861e-01
5.742363e-01
5.749347e-01
5.756491e-01
5.763265e-01
5.768957e-01
5.772793e-01
5.774151e-01
5.772793e-01
5.768957e-01
5.763265e-01
5.756491e-01
5.749347e-01
5.742363e-01
5.735861e-01
0.000000e+00
1.000000e+00
5.736904e-01
5.744562e-01
5.752790e-01
5.761205e-01
5.769184e-01
5.775889e-01
5.780407e-01
5.782008e-01
5.780407e-01
5.775889e-01
5.769184e-01
5.761205e-01
5.752790e-01
5.744562e-01
5.736904e-01
0.000000e+00
1.000000e+00
5.737822e-01
5.746501e-01
5.755823e-01
5.765358e-01
5.774399e-01
5.781997e-01
5.787116e-01
5.788930e-01
5.787116e-01
5.781997e-01
5.774399e-01
5.765358e-01
5.755823e-01
5.746501e-01
5.737822e-01
0.000000e+00
1.000000e+00
5.738571e-01
5.748079e-01
5.758293e-01
5.768740e-01
5.778646e-01
5.786971e-01
5.792580e-01
5.794567e-01
5.792580e-01
5.786971e-01
5.778646e-01
5.768740e-01
5.758293e-01
5.748079e-01
5.738571e-01
0.000000e+00
1.000000e+00
5.739118e-01
5.749234e-01
5.760101e-01
5.771215e-01
5.781754e-01
5.790610e-01
5.796578e-01
5.798691e-01
5.796578e-01
5.790610e-01
5.781754e-01
5.771215e-01
5.760101e-01
5.749234e-01
5.739118e-01
0.000000e+00
1.000000e+00
5.739453e-01
5.749939e-01
5.761205e-01
5.772727e-01
5.783652e-01
5.792834e-01
5.799020e-01
5.801211e-01
5.799020e-01
5.792834e-01
5.783652e-01
5.772727e-01
5.761205e-01
5.749940e-01
5.739453e-01
0.000000e+00
1.000000e+00
5.739579e-01
5.750205e-01
5.761620e-01
5.773295e-01
5.784366e-01
5.793669e-01
5.799938e-01
5.802159e-01
5.799938e-01
5.793669e-01
5.784366e-01
5.773295e-01
5.761620e-01
5.750205e-01
5.739579e-01
0.000000e+00
1.000000e+00
5.739513e-01
5.750066e-01
5.761404e-01
5.772999e-01
5.783994e-01
5.793233e-01
5.799459e-01
5.801664e-01
5.799459e-01
5.793233e-01
5.783994e-01
5.772999e-01
5.761404e-01
5.750066e-01
5.739513e-01
0.000000e+00
1.000000e+00
5.739282e-01
5.749579e-01
5.760641e-01
5.771955e-01
5.782683e-01
5.791698e-01
5.797773e-01
5.799925e-01
5.797773e-01
5.791698e-01
5.782683e-01
5.771955e-01
5.760641e-01
5.749579e-01
5.739282e-01
0.000000e+00
1.000000e+00
5.728886e-01
5.727650e-01
5.726322e-01
5.724964e-01
5.723676e-01
5.722593e-01
5.721864e-01
5.721606e-01
5.721864e-01
5.722593e-01
5.723676e-01
5.724964e-01
5.726322e-01
5.727650e-01
5.728886e-01
0.000000e+00
1.000000e+00
5.729321e-01
5.728568e-01
5.727758e-01
5.726931e-01
5.726146e-01
5.725486e-01
5.725042e-01
5.724884e-01
5.725042e-01
5.725486e-01
5.726146e-01
5.726931e-01
5.727758e-01
5.728568e-01
5.729321e-01
0.000000e+00
1.000000e+00
5.729930e-01
5.729852e-01
5.729768e-01
5.729682e-01
5.729600e-01
5.729532e-01
5.729486e-01
5.729469e-01
5.729486e-01
5.729532e-01
5.729600e-01
5.729682e-01
5.729768e-01
5.729852e-01
5.729930e-01
0.000000e+00
1.000000e+00
5.730717e-01
5.731512e-01
5.732366e-01
5.733240e-01
5.734068e-01
5.734764e-01
5.735234e-01
5.735400e-01
5.735234e-01
5.734764e-01
5.734068e-01
5.733240e-01
5.732366e-01
5.731512e-01
5.730717e-01
0.000000e+00
1.000000e+00
5.731674e-01
5.733531e-01
5.735526e-01
5.737566e-01
5.739501e-01
5.741126e-01
5.742222e-01
5.742610e-01
5.742222e-01
5.741126e-01
5.739501e-01
5.737566e-01
5.735526e-01
5.733531e-01
5.731674e-01
0.000000e+00
1.000000e+00
5.732775e-01
5.735854e-01
5.739162e-01
5.742545e-01
5.745752e-01
5.748448e-01
5.750264e-01
5.750908e-01
5.750264e-01
5.748448e-01
5.745752e-01
5.742545e-01
5.739162e-01
5.735854e-01
5.732775e-01
0.000000e+00
1.000000e+00
5.733978e-01
5.738391e-01
5.743132e-01
5.747980e-01
5.752578e-01
5.756441e-01
5.759045e-01
5.759967e-01
5.759045e-01
5.756441e-01
5.752578e-01
5.747980e-01
5.743132e-01
5.738391e-01
5.733978e-01
0.000000e+00
1.000000e+00
5.735222e-01
5.741016e-01
5.747240e-01
5.753606e-01
5.759642e-01
5.764714e-01
5.768132e-01
5.769343e-01
5.768132e-01
5.764714e-01
5.759642e-01
5.753606e-01
5.747240e-01
5.741016e-01
5.735223e-01
0.000000e+00
1.000000e+00
5.736440e-01
5.743584e-01
5.751259e-01
5.759109e-01
5.766552e-01
5.772807e-01
5.777022e-01
5.778514e-01
5.777022e-01
5.772807e-01
5.766552e-01
5.759109e-01
5.751259e-01
5.743584e-01
5.736440e-01
0.000000e+00
1.000000e+00
5.737559e-01
5.745945e-01
5.754954e-01
5.764168e-01
5.772905e-01
5.780247e-01
5.785195e-01
5.786947e-01
5.785195e-01
5.780247e-01
5.772905e-01
5.764168e-01
5.754954e-01
5.745945e-01
5.737559e-01
0.000000e+00
1.000000e+00
5.738517e-01
5.747965e-01
5.758116e-01
5.768497e-01
5.778341e-01
5.786613e-01
5.792187e-01
5.794161e-01
5.792187e-01
5.786613e-01
5.778341e-01
5.768497e-01
5.758116e-01
5.747965e-01
5.738517e-01
0.000000e+00
1.000000e+00
5.739265e-01
5.749543e-01
5.760584e-01
5.771877e-01
5.782585e-01
5.791583e-01
5.797647e-01
5.799794e-01
5.797647e-01
5.791583e-01
5.782585e-01
5.771877e-01
5.760584e-01
5.749543e-01
5.739265e-01
0.000000e+00
1.000000e+00
5.739775e-01
5.750618e-01
5.762267e-01
5.774182e-01
5.785479e-01
5.794973e-01
5.801370e-01
5.803636e-01
5.801370e-01
5.794973e-01
5.785479e-01
5.774182e-01
5.762267e-01
5.750618e-01
5.739775e-01
0.000000e+00
1.000000e+00
5.740040e-01
5.751178e-01
5.763143e-01
5.775381e-01
5.786985e-01
5.796736e-01
5.803307e-01
5.805634e-01
5.803307e-01
5.796736e-01
5.786985e-01
5.775381e-01
5.763143e-01
5.751178e-01
5.740040e-01
0.000000e+00
1.000000e+00
5.740072e-01
5.751247e-01
5.763250e-01
5.775528e-01
5.787169e-01
5.796952e-01
5.803545e-01
5.805879e-01
5.803544e-01
5.796952e-01
5.787169e-01
5.775528e-01
5.763250e-01
5.751247e-01
5.740072e-01
0.000000e+00
1.000000e+00
5.739898e-01
5.750878e-01
5.762674e-01
5.774738e-01
5.786178e-01
5.795791e-01
5.802269e-01
5.804564e-01
5.802269e-01
5.795791e-01
5.786178e-01
5.774738e-01
5.762674e-01
5.750878e-01
5.739898e-01
0.000000e+00
1.000000e+00
5.739550e-01
5.750144e-01
5.761525e-01
5.773166e-01
5.784203e-01
5.793479e-01
5.799729e-01
5.801943e-01
5.799729e-01
5.793479e-01
5.784203e-01
5.773166e-01
5.761525e-01
5.750144e-01
5.739550e-01
0.000000e+00
1.000000e+00
5.728302e-01
5.726418e-01
5.724395e-01
5.722325e-01
5.720362e-01
5.718713e-01
5.717602e-01
5.717208e-01
5.717602e-01
5.718713e-01
5.720362e-01
5.722325e-01
5.724395e-01
5.726418e-01
5.728302e-01
0.000000e+00
1.000000e+00
5.728833e-01
5.727539e-01
5.726149e-01
5.724727e-01
5.723378e-01
5.722245e-01
5.721482e-01
5.721211e-01
5.721482e-01
5.722245e-01
5.723378e-01
5.724727e-01
5.726149e-01
5.727539e-01
5.728833e-01
0.000000e+00
1.000000e+00
5.729554e-01
5.729058e-01
5.728526e-01
5.727982e-01
5.727466e-01
5.727033e-01
5.726741e-01
5.726637e-01
5.726741e-01
5.727033e-01
5.727466e-01
5.727982e-01
5.728526e-01
5.729058e-01
5.729554e-01
0.000000e+00
1.000000e+00
5.730466e-01
5.730983e-01
5.731538e-01
5.732105e-01
5.732644e-01
5.733096e-01
5.733401e-01
5.733509e-01
5.733401e-01
5.733096e-01
5.732644e-01
5.732105e-01
5.731538e-01
5.730983e-01
5.730466e-01
0.000000e+00
1.000000e+00
5.731557e-01
5.733285e-01
5.735141e-01
5.737039e-01
5.738839e-01
5.740352e-01
5.741371e-01
5.741732e-01
5.741371e-01
5.740352e-01
5.738839e-01
5.737039e-01
5.735141e-01
5.733285e-01
5.731557e-01
0.000000e+00
1.000000e+00
5.732797e-01
5.735899e-01
5.739232e-01
5.742640e-01
5.745873e-01
5.748589e-01
5.750419e-01
5.751067e-01
5.750419e-01
5.748589e-01
5.745873e-01
5.742640e-01
5.739232e-01
5.735899e-01
5.732797e-01
0.000000e+00
1.000000e+00
5.734132e-01
5.738716e-01
5.743640e-01
5.748676e-01
5.753452e-01
5.757465e-01
5.760169e-01
5.761127e-01
5.760169e-01
5.757465e-01
5.753452e-01
5.748676e-01
5.743640e-01
5.738716e-01
5.734132e-01
0.000000e+00
1.000000e+00
5.735495e-01
5.741591e-01
5.748140e-01
5.754837e-01
5.761188e-01
5.766525e-01
5.770122e-01
5.771395e-01
5.770122e-01
5.766525e-01
5.761188e-01
5.754837e-01
5.748140e-01
5.741591e-01
5.735495e-01
0.000000e+00
1.000000e+00
5.736807e-01
5.744359e-01
5.752471e-01
5.760769e-01
5.768636e-01
5.775248e-01
5.779703e-01
5.781281e-01
5.779703e-01
5.775248e-01
5.768636e-01
5.760769e-01
5.752471e-01
5.744359e-01
5.736807e-01
0.000000e+00
1.000000e+00
5.737990e-01
5.746854e-01
5.756376e-01
5.766115e-01
5.775350e-01
5.783110e-01
5.788339e-01
5.790191e-01
5.788339e-01
5.783110e-01
5.775350e-01
5.766115e-01
5.756376e-01
5.746854e-01
5.737990e-01
0.000000e+00
1.000000e+00
5.738975e-01
5.748932e-01
5.759628e-01
5.770568e-01
5.780941e-01
5.789658e-01
5.795532e-01
5.797613e-01
5.795532e-01
5.789658e-01
5.780941e-01
5.770568e-01
5.759628e-01
5.748932e-01
5.738975e-01
0.000000e+00
1.000000e+00
5.739714e-01
5.750490e-01
5.762066e-01
5.773906e-01
5.785133e-01
5.794567e-01
5.800925e-01
5.803176e-01
5.800925e-01
5.794567e-01
5.785133e-01
5.773906e-01
5.762066e-01
5.750490e-01
5.739714e-01
0.000000e+00
1.000000e+00
5.740181e-01
5.751475e-01
5.763608e-01
5.776017e-01
5.787783e-01
5.797671e-01
5.804334e-01
5.806694e-01
5.804334e-01
5.797671e-01
5.787783e-01
5.776017e-01
5.763608e-01
5.751475e-01
5.740181e-01
0.000000e+00
1.000000e+00
5.740375e-01
5.751885e-01
5.764250e-01
5.776896e-01
5.788888e-01
5.798965e-01
5.805755e-01
5.808160e-01
5.805755e-01
5.798965e-01
5.788888e-01
5.776896e-01
5.764250e-01
5.751885e-01
5.740375e-01
0.000000e+00
1.000000e+00
5.740317e-01
5.751762e-01
5.764057e-01
5.776632e-01
5.788557e-01
5.798577e-01
5.805329e-01
5.807720e-01
5.805329e-01
5.798577e-01
5.788557e-01
5.776632e-01
5.764057e-01
5.751762e-01
5.740317e-01
0.000000e+00
1.000000e+00
5.740039e-01
5.751176e-01
5.763141e-01
5.775378e-01
5.786981e-01
5.796732e-01
5.803302e-01
5.805629e-01
5.803302e-01
5.796732e-01
5.786981e-01
5.775378e-01
5.763141e-01
5.751177e-01
5.740039e-01
0.000000e+00
1.000000e+00
5.739584e-01
5.750216e-01
5.761637e-01
5.773318e-01
5.784395e-01
5.793703e-01
5.799976e-01
5.802197e-01
5.799976e-01
5.793703e-01
5.784395e-01
5.773318e-01
5.761637e-01
5.750216e-01
5.739584e-01
0.000000e+00
1.000000e+00
5.727618e-01
5.724976e-01
5.722137e-01
5.719234e-01
5.716481e-01
5.714168e-01
5.712609e-01
5.712057e-01
5.712609e-01
5.714168e-01
5.716481e-01
5.719234e-01
5.722137e-01
5.724976e-01
5.727618e-01
0.000000e+00
1.000000e+00
5.728234e-01
5.726275e-01
5.724170e-01
5.722017e-01
5.719976e-01
5.718260e-01
5.717104e-01
5.716695e-01
5.717104e-01
5.718260e-01
5.719976e-01
5.722017e-01
5.724170e-01
5.726275e-01
5.728234e-01
0.000000e+00
1.000000e+00
5.729052e-01
5.728000e-01
5.726869e-01
5.725713e-01
5.724617e-01
5.723696e-01
5.723076e-01
5.722856e-01
5.723076e-01
5.723696e-01
5.724617e-01
5.725713e-01
5.726869e-01
5.728000e-01
5.729052e-01
0.000000e+00
1.000000e+00
5.730073e-01
5.730153e-01
5.730240e-01
5.730328e-01
5.730412e-01
5.730482e-01
5.730530e-01
5.730547e-01
5.730530e-01
5.730482e-01
5.730412e-01
5.730328e-01
5.730240e-01
5.730153e-01
5.730073e-01
0.000000e+00
1.000000e+00
5.731280e-01
5.732700e-01
5.734226e-01
5.735786e-01
5.737266e-01
5.738509e-01
5.739347e-01
5.739644e-01
5.739347e-01
5.738509e-01
5.737266e-01
5.735786e-01
5.734226e-01
5.732700e-01
5.731280e-01
0.000000e+00
1.000000e+00
5.732637e-01
5.735562e-01
5.738705e-01
5.741919e-01
5.744966e-01
5.747527e-01
5.749253e-01
5.749864e-01
5.749253e-01
5.747527e-01
5.744966e-01
5.741919e-01
5.738705e-01
5.735562e-01
5.732637e-01
0.000000e+00
1.000000e+00
5.734084e-01
5.738614e-01
5.743481e-01
5.748459e-01
5.753178e-01
5.757145e-01
5.759817e-01
5.760764e-01
5.759817e-01
5.757145e-01
5.753178e-01
5.748459e-01
5.743481e-01
5.738614e-01
5.734084e-01
0.000000e+00
1.000000e+00
5.735544e-01
5.741694e-01
5.748301e-01
5.755059e-01
5.761466e-01
5.766851e-01
5.770479e-01
5.771764e-01
5.770479e-01
5.766851e-01
5.761466e-01
5.755058e-01
5.748301e-01
5.741694e-01
5.735544e-01
0.000000e+00
1.000000e+00
5.736931e-01
5.744620e-01
5.752880e-01
5.761328e-01
5.769338e-01
5.776070e-01
5.780606e-01
5.782213e-01
5.780606e-01
5.776070e-01
5.769338e-01
5.761328e-01
5.752880e-01
5.744620e-01
5.736931e-01
0.000000e+00
1.000000e+00
5.738160e-01
5.747212e-01
5.756937e-01
5.766882e-01
5.776313e-01
5.784239e-01
5.789579e-01
5.791470e-01
5.789579e-01
5.784239e-01
5.776313e-01
5.766882e-01
5.756937e-01
5.747212e-01
5.738160e-01
0.000000e+00
1.000000e+00
5.739159e-01
5.749320e-01
5.760236e-01
5.771400e-01
5.781986e-01
5.790882e-01
5.796876e-01
5.798999e-01
5.796876e-01
5.790882e-01
5.781986e-01
5.771400e-01
5.760236e-01
5.749320e-01
5.739159e-01
0.000000e+00
1.000000e+00
5.739880e-01
5.750841e-01
5.762616e-01
5.774659e-01
5.786078e-01
5.795675e-01
5.802141e-01
5.804431e-01
5.802141e-01
5.795675e-01
5.786078e-01
5.774659e-01
5.762616e-01
5.750841e-01
5.739880e-01
0.000000e+00
1.000000e+00
5.740301e-01
5.751730e-01
5.764007e-01
5.776563e-01
5.788470e-01
5.798475e-01
5.805217e-01
5.807605e-01
5.805217e-01
5.798475e-01
5.788470e-01
5.776563e-01
5.764007e-01
5.751730e-01
5.740301e-01
0.000000e+00
1.000000e+00
5.740428e-01
5.751997e-01
5.764425e-01
5.777136e-01
5.789188e-01
5.799317e-01
5.806142e-01
5.808559e-01
5.806142e-01
5.799317e-01
5.789188e-01
5.777136e-01
5.764425e-01
5.751997e-01
5.740428e-01
0.000000e+00
1.000000e+00
5.740287e-01
5.751699e-01
5.763958e-01
5.776497e-01
5.788386e-01
5.798377e-01
5.805110e-01
5.807494e-01
5.805110e-01
5.798377e-01
5.788386e-01
5.776497e-01
5.763958e-01
5.751699e-01
5.740287e-01
0.000000e+00
1.000000e+00
5.739918e-01
5.750921e-01
5.762742e-01
5.774831e-01
5.786294e-01
5.795927e-01
5.802419e-01
5.804718e-01
5.802419e-01
5.795927e-01
5.786294e-01
5.774831e-01
5.762742e-01
5.750921e-01
5.739918e-01
0.000000e+00
1.000000e+00
5.739370e-01
5.749765e-01
5.760932e-01
5.772353e-01
5.783183e-01
5.792284e-01
5.798416e-01
5.800588e-01
5.798416e-01
5.792284e-01
5.783183e-01
5.772353e-01
5.760932e-01
5.749765e-01
5.739370e-01
0.000000e+00
1.000000e+00
5.726862e-01
5.723380e-01
5.719640e-01
5.715814e-01
5.712187e-01
5.709138e-01
5.707084e-01
5.706357e-01
5.707084e-01
5.709138e-01
5.712187e-01
5.715814e-01
5.719640e-01
5.723380e-01
5.726862e-01
0.000000e+00
1.000000e+00
5.727548e-01
5.724827e-01
5.721905e-01
5.718915e-01
5.716081e-01
5.713699e-01
5.712094e-01
5.711526e-01
5.712094e-01
5.713699e-01
5.716081e-01
5.718915e-01
5.721905e-01
5.724827e-01
5.727548e-01
0.000000e+00
1.000000e+00
5.728446e-01
5.726722e-01
5.724869e-01
5.722975e-01
5.721178e-01
5.719669e-01
5.718652e-01
5.718291e-01
5.718652e-01
5.719669e-01
5.721178e-01
5.722975e-01
5.724869e-01
5.726722e-01
5.728446e-01
0.000000e+00
1.000000e+00
5.729555e-01
5.729061e-01
5.728530e-01
5.727987e-01
5.727472e-01
5.727040e-01
5.726748e-01
5.726645e-01
5.726748e-01
5.727040e-01
5.727472e-01
5.727987e-01
5.728530e-01
5.729061e-01
5.729555e-01
0.000000e+00
1.000000e+00
5.730854e-01
5.731802e-01
5.732820e-01
5.733861e-01
5.734848e-01
5.735678e-01
5.736237e-01
5.736435e-01
5.736237e-01
5.735678e-01
5.734848e-01
5.733861e-01
5.732820e-01
5.731802e-01
5.730854e-01
0.000000e+00
1.000000e+00
5.732302e-01
5.734855e-01
5.737599e-01
5.740404e-01
5.743065e-01
5.745300e-01
5.746807e-01
5.747340e-01
5.746807e-01
5.745300e-01
5.743065e-01
5.740404e-01
5.737599e-01
5.734855e-01
5.732302e-01
0.000000e+00
1.000000e+00
5.733832e-01
5.738083e-01
5.742650e-01
5.747321e-01
5.751751e-01
5.755473e-01
5.757981e-01
5.758869e-01
5.757981e-01
5.755473e-01
5.751751e-01
5.747321e-01
5.742650e-01
5.738083e-01
5.733832e-01
0.000000e+00
1.000000e+00
5.735362e-01
5.741310e-01
5.747700e-01
5.754235e-01
5.760433e-01
5.765640e-01
5.769149e-01
5.770392e-01
5.769149e-01
5.765640e-01
5.760433e-01
5.754235e-01
5.747700e-01
5.741310e-01
5.735362e-01
0.000000e+00
1.000000e+00
5.736798e-01
5.744340e-01
5.752442e-01
5.760728e-01
5.768586e-01
5.775189e-01
5.779638e-01
5.781214e-01
5.779638e-01
5.775189e-01
5.768586e-01
5.760728e-01
5.752442e-01
5.744340e-01
5.736798e-01
0.000000e+00
1.000000e+00
5.738053e-01
5.746986e-01
5.756583e-01
5.766398e-01
5.775705e-01
5.783526e-01
5.788796e-01
5.790663e-01
5.788796e-01
5.783526e-01
5.775705e-01
5.766398e-01
5.756583e-01
5.746986e-01
5.738053e-01
0.000000e+00
1.000000e+00
5.739051e-01
5.749093e-01
5.759880e-01
5.770913e-01
5.781374e-01
5.790166e-01
5.796090e-01
5.798188e-01
5.796090e-01
5.790166e-01
5.781374e-01
5.770913e-01
5.759880e-01
5.749093e-01
5.739051e-01
0.000000e+00
1.000000e+00
5.739747e-01
5.750561e-01
5.762178e-01
5.774059e-01
5.785325e-01
5.794792e-01
5.801172e-01
5.803431e-01
5.801172e-01
5.794792e-01
5.785325e-01
5.774059e-01
5.762178e-01
5.750561e-01
5.739747e-01
0.000000e+00
1.000000e+00
5.740123e-01
5.751353e-01
5.763417e-01
5.775756e-01
5.787456e-01
5.797288e-01
5.803913e-01
5.806259e-01
5.803913e-01
5.797288e-01
5.787456e-01
5.775756e-01
5.763417e-01
5.751353e-01
5.740123e-01
0.000000e+00
1.000000e+00
5.740188e-01
5.751491e-01
5.763633e-01
5.776051e-01
5.787827e-01
5.797722e-01
5.804390e-01
5.806752e-01
5.804390e-01
5.797722e-01
5.787827e-01
5.776051e-01
5.763633e-01
5.751491e-01
5.740188e-01
0.000000e+00
1.000000e+00
5.739976e-01
5.751043e-01
5.762933e-01
5.775093e-01
5.786623e-01
5.796312e-01
5.802842e-01
5.805154e-01
5.802842e-01
5.796312e-01
5.786623e-01
5.775093e-01
5.762933e-01
5.751043e-01
5.739976e-01
0.000000e+00
1.000000e+00
5.739533e-01
5.750109e-01
5.761471e-01
5.773091e-01
5.784109e-01
5.793369e-01
5.799608e-01