<?xml version="1.0"?>
<VTKFile type="StructuredGrid" version="0.1">
  <StructuredGrid WholeExtent="0 16 0 16 0 16">
    <Piece Extent="0 16 0 16 0 16">
      <PointData Scalars="temperature" Vectors="velocity">
        <DataArray type="Float32" Name="temperature" format="ascii">
1.000000e+00
5.733378e-01
5.730229e-01
5.730530e-01
5.730670e-01
5.730802e-01
5.730912e-01
5.730985e-01
5.731010e-01
5.730982e-01
5.730908e-01
5.730796e-01
5.730663e-01
5.730508e-01
5.730920e-01
5.724537e-01
0.000000e+00
1.000000e+00
5.731322e-01
5.728082e-01
5.727234e-01
5.726137e-01
5.725095e-01
5.724219e-01
5.723628e-01
5.723417e-01
5.723622e-01
5.724206e-01
5.725077e-01
5.726118e-01
5.727149e-01
5.731320e-01
5.710897e-01
0.000000e+00
1.000000e+00
5.729146e-01
5.723559e-01
5.720071e-01
5.716322e-01
5.712767e-01
5.709779e-01
5.707765e-01
5.707048e-01
5.707751e-01
5.709753e-01
5.712757e-01
5.716360e-01
5.719993e-01
5.726989e-01
5.717917e-01
0.000000e+00
1.000000e+00
5.725819e-01
5.716410e-01
5.708767e-01
5.700845e-01
5.693334e-01
5.687024e-01
5.682772e-01
5.681266e-01
5.682773e-01
5.687043e-01
5.693439e-01
5.701071e-01
5.708851e-01
5.718215e-01
5.720009e-01
0.000000e+00
1.000000e+00
5.720946e-01
5.706568e-01
5.693300e-01
5.679672e-01
5.666752e-01
5.655899e-01
5.648595e-01
5.646024e-01
5.648654e-01
5.656037e-01
5.667058e-01
5.680151e-01
5.693648e-01
5.708005e-01
5.715209e-01
0.000000e+00
1.000000e+00
5.714632e-01
5.694224e-01
5.673935e-01
5.653159e-01
5.633465e-01
5.616931e-01
5.605816e-01
5.601925e-01
5.605966e-01
5.617230e-01
5.634015e-01
5.653932e-01
5.674540e-01
5.695585e-01
5.709395e-01
0.000000e+00
1.000000e+00
5.707294e-01
5.679755e-01
5.651254e-01
5.622103e-01
5.594475e-01
5.571290e-01
5.555719e-01
5.550289e-01
5.555988e-01
5.571785e-01
5.595293e-01
5.623193e-01
5.652126e-01
5.681173e-01
5.702365e-01
0.000000e+00
1.000000e+00
5.699257e-01
5.663734e-01
5.626162e-01
5.587747e-01
5.551343e-01
5.520802e-01
5.500305e-01
5.493181e-01
5.500712e-01
5.521533e-01
5.552426e-01
5.589180e-01
5.627288e-01
5.665231e-01
5.694710e-01
0.000000e+00
1.000000e+00
5.690967e-01
5.646920e-01
5.599827e-01
5.551688e-01
5.506074e-01
5.467816e-01
5.442153e-01
5.433253e-01
5.442700e-01
5.468817e-01
5.507412e-01
5.553461e-01
5.601189e-01
5.648551e-01
5.686640e-01
0.000000e+00
1.000000e+00
5.682719e-01
5.630161e-01
5.573569e-01
5.515736e-01
5.460945e-01
5.414998e-01
5.384188e-01
5.373514e-01
5.384860e-01
5.416261e-01
5.462500e-01
5.517850e-01
5.575127e-01
5.631877e-01
5.678675e-01
0.000000e+00
1.000000e+00
5.674862e-01
5.614300e-01
5.548722e-01
5.481722e-01
5.418254e-01
5.365037e-01
5.329358e-01
5.317000e-01
5.330137e-01
5.366499e-01
5.420019e-01
5.484138e-01
5.550431e-01
5.616119e-01
5.671097e-01
0.000000e+00
1.000000e+00
5.667863e-01
5.600104e-01
5.526494e-01
5.451302e-01
5.380079e-01
5.320361e-01
5.280325e-01
5.266454e-01
5.281188e-01
5.321951e-01
5.382032e-01
5.453984e-01
5.528312e-01
5.601970e-01
5.664410e-01
0.000000e+00
1.000000e+00
5.662009e-01
5.588194e-01
5.507850e-01
5.425793e-01
5.348069e-01
5.282903e-01
5.239207e-01
5.224061e-01
5.240127e-01
5.284568e-01
5.350152e-01
5.428684e-01
5.509761e-01
5.590174e-01
5.658799e-01
0.000000e+00
1.000000e+00
5.657505e-01
5.578986e-01
5.493437e-01
5.406075e-01
5.323329e-01
5.253949e-01
5.207420e-01
5.191280e-01
5.208364e-01
5.255643e-01
5.325478e-01
5.409078e-01
5.495432e-01
5.581067e-01
5.654532e-01
0.000000e+00
1.000000e+00
5.654465e-01
5.572684e-01
5.483562e-01
5.392566e-01
5.306380e-01
5.234111e-01
5.185634e-01
5.168802e-01
5.186574e-01
5.235793e-01
5.308554e-01
5.395548e-01
5.485628e-01
5.574899e-01
5.651561e-01
0.000000e+00
1.000000e+00
5.652728e-01
5.569269e-01
5.478210e-01
5.385247e-01
5.297197e-01
5.223359e-01
5.173820e-01
5.156601e-01
5.174731e-01
5.224995e-01
5.299324e-01
5.388115e-01
5.480293e-01
5.571723e-01
5.650116e-01
0.000000e+00
1.000000e+00
5.651851e-01
5.568456e-01
5.477040e-01
5.383664e-01
5.295238e-01
5.221098e-01
5.171365e-01
5.154090e-01
5.172310e-01
5.222801e-01
5.297431e-01
5.386602e-01
5.479281e-01
5.571266e-01
5.649748e-01
0.000000e+00
1.000000e+00
5.733564e-01
5.732267e-01
5.733902e-01
5.735251e-01
5.736530e-01
5.737603e-01
5.738321e-01
5.738569e-01
5.738300e-01
5.737566e-01
5.736481e-01
5.735235e-01
5.733880e-01
5.732447e-01
5.724962e-01
0.000000e+00
1.000000e+00
5.731431e-01
5.727917e-01
5.726964e-01
5.725764e-01
5.724626e-01
5.723668e-01
5.723020e-01
5.722787e-01
5.723009e-01
5.723650e-01
5.724610e-01
5.725848e-01
5.726990e-01
5.730205e-01
5.711348e-01
0.000000e+00
1.000000e+00
5.727467e-01
5.720839e-01
5.715792e-01
5.710464e-01
5.705410e-01
5.701162e-01
5.698298e-01
5.697281e-01
5.698293e-01
5.701163e-01
5.705455e-01
5.710713e-01
5.715950e-01
5.723207e-01
5.714408e-01
0.000000e+00
1.000000e+00
5.722501e-01
5.710884e-01
5.700123e-01
5.689001e-01
5.678455e-01
5.669594e-01
5.663628e-01
5.661523e-01
5.663662e-01
5.669681e-01
5.678665e-01
5.689388e-01
5.700456e-01
5.712517e-01
5.715726e-01
0.000000e+00
1.000000e+00
5.716812e-01
5.698078e-01
5.679986e-01
5.661440e-01
5.643858e-01
5.629096e-01
5.619168e-01
5.615690e-01
5.619296e-01
5.629343e-01
5.644318e-01
5.662044e-01
5.680542e-01
5.699472e-01
5.709597e-01
0.000000e+00
1.000000e+00
5.709209e-01
5.682696e-01
5.655863e-01
5.628414e-01
5.602400e-01
5.580567e-01
5.565901e-01
5.560784e-01
5.566142e-01
5.580990e-01
5.603117e-01
5.629308e-01
5.656644e-01
5.684118e-01
5.702937e-01
0.000000e+00
1.000000e+00
5.700462e-01
5.665258e-01
5.628552e-01
5.591020e-01
5.555457e-01
5.525621e-01
5.505596e-01
5.498626e-01
5.505965e-01
5.526243e-01
5.556430e-01
5.592263e-01
5.629595e-01
5.666753e-01
5.694751e-01
0.000000e+00
1.000000e+00
5.691091e-01
5.646512e-01
5.599207e-01
5.550840e-01
5.505017e-01
5.466589e-01
5.440812e-01
5.431864e-01
5.441341e-01
5.467468e-01
5.506243e-01
5.552480e-01
5.600514e-01
5.648143e-01
5.685914e-01
0.000000e+00
1.000000e+00
5.681750e-01
5.627394e-01
5.569275e-01
5.509853e-01
5.453568e-01
5.406381e-01
5.374744e-01
5.363782e-01
5.375433e-01
5.407576e-01
5.455009e-01
5.511900e-01
5.570824e-01
5.629178e-01
5.676815e-01
0.000000e+00
1.000000e+00
5.672518e-01
5.608893e-01
5.540316e-01
5.470202e-01
5.403802e-01
5.348145e-01
5.310842e-01
5.297923e-01
5.311669e-01
5.349654e-01
5.405449e-01
5.472631e-01
5.542075e-01
5.610837e-01
5.668050e-01
0.000000e+00
1.000000e+00
5.664083e-01
5.591980e-01
5.513850e-01
5.433973e-01
5.358335e-01
5.294941e-01
5.252453e-01
5.237741e-01
5.253392e-01
5.296671e-01
5.360210e-01
5.436755e-01
5.515769e-01
5.594100e-01
5.659993e-01
0.000000e+00
1.000000e+00
5.656947e-01
5.577499e-01
5.491181e-01
5.402948e-01
5.319401e-01
5.249377e-01
5.202442e-01
5.186186e-01
5.203461e-01
5.251236e-01
5.321474e-01
5.406036e-01
5.493241e-01
5.579831e-01
5.653107e-01
0.000000e+00
1.000000e+00
5.651349e-01
5.566061e-01
5.473265e-01
5.378432e-01
5.288634e-01
5.213366e-01
5.162908e-01
5.145421e-01
5.163970e-01
5.215286e-01
5.290834e-01
5.381725e-01
5.475425e-01
5.568655e-01
5.647797e-01
0.000000e+00
1.000000e+00
5.647418e-01
5.558007e-01
5.460640e-01
5.361161e-01
5.266957e-01
5.187989e-01
5.135039e-01
5.116673e-01
5.136110e-01
5.189919e-01
5.269249e-01
5.364504e-01
5.462872e-01
5.561112e-01
5.644369e-01
0.000000e+00
1.000000e+00
5.645106e-01
5.553417e-01
5.453433e-01
5.351307e-01
5.254591e-01
5.173505e-01
5.119121e-01
5.100241e-01
5.120176e-01
5.175405e-01
5.256965e-01
5.354508e-01
5.455658e-01
5.556633e-01
5.643112e-01
0.000000e+00
1.000000e+00
5.644284e-01
5.552132e-01
5.451406e-01
5.348548e-01
5.251132e-01
5.169452e-01
5.114660e-01
5.095625e-01
5.115695e-01
5.171316e-01
5.253520e-01
5.351552e-01
5.453608e-01
5.555161e-01
5.641834e-01
0.000000e+00
1.000000e+00
5.646561e-01
5.553737e-01
5.454101e-01
5.352266e-01
5.255824e-01
5.174954e-01
5.120695e-01
5.101828e-01
5.121677e-01
5.176735e-01
5.258119e-01
5.355199e-01
5.456534e-01
5.556293e-01
5.641234e-01
0.000000e+00
1.000000e+00
5.736225e-01
5.736735e-01
5.740931e-01
5.744894e-01
5.748651e-01
5.751805e-01
5.753925e-01
5.754663e-01
5.753886e-01
5.751736e-01
5.748571e-01
5.744894e-01
5.741138e-01
5.737097e-01
5.732356e-01
0.000000e+00
1.000000e+00
5.732549e-01
5.730091e-01
5.730384e-01
5.730449e-01
5.730508e-01
5.730556e-01
5.730582e-01
5.730580e-01
5.730547e-01
5.730493e-01
5.730451e-01
5.730585e-01
5.730488e-01
5.731007e-01
5.722458e-01
0.000000e+00
1.000000e+00
5.727458e-01
5.720411e-01
5.715080e-01
5.709499e-01
5.704206e-01
5.699756e-01
5.696755e-01
5.695689e-01
5.696752e-01
5.699764e-01
5.704302e-01
5.709946e-01
5.715358e-01
5.721649e-01
5.717581e-01
0.000000e+00
1.000000e+00
5.720501e-01
5.707542e-01
5.694884e-01
5.681831e-01
5.669452e-01
5.659051e-01
5.652049e-01
5.649585e-01
5.652112e-01
5.659183e-01
5.669795e-01
5.682377e-01
5.695375e-01
5.708602e-01
5.714284e-01
0.000000e+00
1.000000e+00
5.713001e-01
5.691647e-01
5.669936e-01
5.647664e-01
5.626551e-01
5.608826e-01
5.596913e-01
5.592750e-01
5.597095e-01
5.609142e-01
5.627180e-01
5.648374e-01
5.670591e-01
5.692755e-01
5.706189e-01
0.000000e+00
1.000000e+00
5.704502e-01
5.673105e-01
5.640848e-01
5.607849e-01
5.576580e-01
5.550347e-01
5.532738e-01
5.526611e-01
5.533068e-01
5.550871e-01
5.577512e-01
5.608862e-01
5.641737e-01
5.674404e-01
5.697857e-01
0.000000e+00
1.000000e+00
5.694635e-01
5.652605e-01
5.608727e-01
5.563881e-01
5.521397e-01
5.485769e-01
5.461868e-01
5.453565e-01
5.462339e-01
5.486494e-01
5.522588e-01
5.565255e-01
5.609904e-01
5.654086e-01
5.688397e-01
0.000000e+00
1.000000e+00
5.684160e-01
5.631082e-01
5.575029e-01
5.517743e-01
5.463485e-01
5.417995e-01
5.387489e-01
5.376903e-01
5.388114e-01
5.418966e-01
5.464900e-01
5.519531e-01
5.576448e-01
5.632738e-01
5.678435e-01
0.000000e+00
1.000000e+00
5.673523e-01
5.609636e-01
5.541465e-01
5.471791e-01
5.405820e-01
5.350524e-01
5.313455e-01
5.300603e-01
5.314240e-01
5.351814e-01
5.407440e-01
5.474031e-01
5.543101e-01
5.611421e-01
5.668388e-01
0.000000e+00
1.000000e+00
5.663660e-01
5.589431e-01
5.509872e-01
5.428547e-01
5.351561e-01
5.287045e-01
5.243800e-01
5.228812e-01
5.244725e-01
5.288660e-01
5.353387e-01
5.431225e-01
5.511748e-01
5.591384e-01
5.658914e-01
0.000000e+00
1.000000e+00
5.654814e-01
5.571571e-01
5.481962e-01
5.390348e-01
5.303634e-01
5.230969e-01
5.182260e-01
5.165380e-01
5.183296e-01
5.232835e-01
5.305666e-01
5.393426e-01
5.484093e-01
5.573681e-01
5.650517e-01
0.000000e+00
1.000000e+00
5.647528e-01
5.556964e-01
5.459122e-01
5.359090e-01
5.264406e-01
5.185061e-01
5.131871e-01
5.113432e-01
5.132980e-01
5.187089e-01
5.266603e-01
5.362451e-01
5.461514e-01
5.559285e-01
5.643611e-01
0.000000e+00
1.000000e+00
5.642113e-01
5.546201e-01
5.442267e-01
5.336021e-01
5.235447e-01
5.151159e-01
5.094646e-01
5.075045e-01
5.095792e-01
5.153263e-01
5.237782e-01
5.339483e-01
5.444855e-01
5.548866e-01
5.638382e-01
0.000000e+00
1.000000e+00
5.638731e-01
5.539532e-01
5.431792e-01
5.321683e-01
5.217438e-01
5.130061e-01
5.071468e-01
5.051131e-01
5.072621e-01
5.132177e-01
5.219923e-01
5.325032e-01
5.434398e-01
5.542787e-01
5.634639e-01
0.000000e+00
1.000000e+00
5.637315e-01
5.536876e-01
5.427600e-01
5.315948e-01
5.210226e-01
5.121599e-01
5.062157e-01
5.041516e-01
5.063304e-01
5.123688e-01
5.212866e-01
5.318974e-01
5.430031e-01
5.540310e-01
5.632772e-01
0.000000e+00
1.000000e+00
5.637545e-01
5.537939e-01
5.429212e-01
5.318163e-01
5.213000e-01
5.124832e-01
5.065691e-01
5.045148e-01
5.066820e-01
5.126876e-01
5.215637e-01
5.321026e-01
5.431802e-01
5.540805e-01
5.634031e-01
0.000000e+00
1.000000e+00
5.641271e-01
5.542145e-01
5.435918e-01
5.327373e-01
5.224580e-01
5.138391e-01
5.080565e-01
5.060462e-01
5.081627e-01
5.140327e-01
5.227100e-01
5.330332e-01
5.438560e-01
5.544217e-01
5.636476e-01
0.000000e+00
1.000000e+00
5.739916e-01
5.743791e-01
5.752027e-01
5.760090e-01
5.767736e-01
5.774158e-01
5.778479e-01
5.779994e-01
5.778430e-01
5.774066e-01
5.767637e-01
5.760197e-01
5.752593e-01
5.744571e-01
5.734477e-01
0.000000e+00
1.000000e+00
5.734954e-01
5.734854e-01
5.737889e-01
5.740724e-01
5.743411e-01
5.745665e-01
5.747177e-01
5.747693e-01
5.747113e-01
5.745550e-01
5.743304e-01
5.740899e-01
5.738228e-01
5.735690e-01
5.727838e-01
0.000000e+00
1.000000e+00
5.728839e-01
5.722590e-01
5.718498e-01
5.714180e-01
5.710084e-01
5.706639e-01
5.704313e-01
5.703479e-01
5.704285e-01
5.706601e-01
5.710160e-01
5.714802e-01
5.718880e-01
5.723504e-01
5.721923e-01
0.000000e+00
1.000000e+00
5.720533e-01
5.706844e-01
5.693762e-01
5.680307e-01
5.667547e-01
5.656828e-01
5.649615e-01
5.647077e-01
5.649682e-01
5.656978e-01
5.667963e-01
5.681154e-01
5.694445e-01
5.707611e-01
5.715932e-01
0.000000e+00
1.000000e+00
5.710745e-01
5.687864e-01
5.663996e-01
5.639528e-01
5.616331e-01
5.596857e-01
5.583774e-01
5.579211e-01
5.583995e-01
5.597248e-01
5.617063e-01
5.640489e-01
5.664910e-01
5.688696e-01
5.705829e-01
0.000000e+00
1.000000e+00
5.700446e-01
5.666135e-01
5.629968e-01
5.592936e-01
5.557847e-01
5.528418e-01
5.508679e-01
5.501830e-01
5.509080e-01
5.529055e-01
5.558913e-01
5.594151e-01
5.631058e-01
5.667209e-01
5.695009e-01
0.000000e+00
1.000000e+00
5.689802e-01
5.642579e-01
5.593044e-01
5.542402e-01
5.494442e-01
5.454239e-01
5.427287e-01
5.417947e-01
5.427849e-01
5.455072e-01
5.495810e-01
5.543987e-01
5.594332e-01
5.643910e-01
5.683565e-01
0.000000e+00
1.000000e+00
5.678474e-01
5.618337e-01
5.555036e-01
5.490385e-01
5.429175e-01
5.377871e-01
5.343474e-01
5.331542e-01
5.344162e-01
5.378886e-01
5.430791e-01
5.492393e-01
5.556485e-01
5.619861e-01
5.672274e-01
0.000000e+00
1.000000e+00
5.666971e-01
5.594665e-01
5.517974e-01
5.439661e-01
5.365525e-01
5.303391e-01
5.261731e-01
5.247279e-01
5.262566e-01
5.304686e-01
5.367385e-01
5.442145e-01
5.519604e-01
5.596363e-01
5.661166e-01
0.000000e+00
1.000000e+00
5.656391e-01
5.572903e-01
5.483935e-01
5.393094e-01
5.307115e-01
5.235055e-01
5.186736e-01
5.169972e-01
5.187703e-01
5.236655e-01
5.309182e-01
5.396057e-01
5.485859e-01
5.574825e-01
5.650936e-01
0.000000e+00
1.000000e+00
5.647553e-01
5.554277e-01
5.454824e-01
5.353276e-01
5.257171e-01
5.176620e-01
5.122603e-01
5.103857e-01
5.123670e-01
5.178489e-01
5.259390e-01
5.356628e-01
5.457095e-01
5.556404e-01
5.642077e-01
0.000000e+00
1.000000e+00
5.640128e-01
5.539694e-01
5.432096e-01
5.322175e-01
5.218145e-01
5.130949e-01
5.072470e-01
5.052169e-01
5.073611e-01
5.133021e-01
5.220482e-01
5.325714e-01
5.434746e-01
5.542065e-01
5.634996e-01
0.000000e+00
1.000000e+00
5.634818e-01
5.529760e-01
5.416604e-01
5.300955e-01
5.191493e-01
5.099740e-01
5.038202e-01
5.016831e-01
5.039393e-01
5.101936e-01
5.193972e-01
5.304377e-01
5.419563e-01
5.532335e-01
5.629845e-01
0.000000e+00
1.000000e+00
5.631921e-01
5.524632e-01
5.408552e-01
5.289906e-01
5.177594e-01
5.083448e-01
5.020303e-01
4.998373e-01
5.021521e-01
5.085695e-01
5.180280e-01
5.292985e-01
5.411510e-01
5.527428e-01
5.627328e-01
0.000000e+00
1.000000e+00
5.631301e-01
5.524046e-01
5.407588e-01
5.288569e-01
5.175888e-01
5.081429e-01
5.018074e-01
4.996073e-01
5.019296e-01
5.083669e-01
5.178733e-01
5.291377e-01
5.410360e-01
5.526797e-01
5.627076e-01
0.000000e+00
1.000000e+00
5.632895e-01
5.527538e-01
5.412975e-01
5.295936e-01
5.185116e-01
5.092213e-01
5.029899e-01
5.008262e-01
5.031107e-01
5.094405e-01
5.187877e-01
5.298906e-01
5.415891e-01
5.529945e-01
5.629137e-01
0.000000e+00
1.000000e+00
5.637641e-01
5.534351e-01
5.423714e-01
5.310669e-01
5.203627e-01
5.113884e-01
5.053686e-01
5.032776e-01
5.054839e-01
5.115976e-01
5.206281e-01
5.314011e-01
5.426447e-01
5.536369e-01
5.632688e-01
0.000000e+00
1.000000e+00
5.744814e-01
5.753431e-01
5.767174e-01
5.780832e-01
5.793785e-01
5.804669e-01
5.811998e-01
5.814581e-01
5.811956e-01
5.804590e-01
5.793741e-01
5.781253e-01
5.768265e-01
5.754526e-01
5.740014e-01
0.000000e+00
1.000000e+00
5.738736e-01
5.742336e-01
5.749641e-01
5.756820e-01
5.763627e-01
5.769345e-01
5.773189e-01
5.774528e-01
5.773115e-01
5.769203e-01
5.763491e-01
5.757074e-01
5.750459e-01
5.743416e-01
5.733318e-01
0.000000e+00
1.000000e+00
5.731174e-01
5.727588e-01
5.726360e-01
5.724940e-01
5.723594e-01
5.722459e-01
5.721689e-01
5.721400e-01
5.721637e-01
5.722369e-01
5.723639e-01
5.725610e-01
5.727009e-01
5.728611e-01
5.726680e-01
0.000000e+00
1.000000e+00
5.721928e-01
5.709108e-01
5.697297e-01
5.685153e-01
5.673637e-01
5.663963e-01
5.657456e-01
5.655165e-01
5.657503e-01
5.664094e-01
5.674117e-01
5.686240e-01
5.698153e-01
5.709942e-01
5.719059e-01
0.000000e+00
1.000000e+00
5.710395e-01
5.687188e-01
5.662904e-01
5.638044e-01
5.614475e-01
5.594690e-01
5.581407e-01
5.576784e-01
5.581640e-01
5.595146e-01
5.615325e-01
5.639233e-01
5.664067e-01
5.687972e-01
5.708213e-01
0.000000e+00
1.000000e+00
5.698139e-01
5.662446e-01
5.624180e-01
5.585001e-01
5.547874e-01
5.516741e-01
5.495873e-01
5.488648e-01
5.496318e-01
5.517487e-01
5.549081e-01
5.586414e-01
5.625450e-01
5.663328e-01
5.695578e-01
0.000000e+00
1.000000e+00
5.685985e-01
5.635953e-01
5.582717e-01
5.528239e-01
5.476659e-01
5.433441e-01
5.404492e-01
5.394478e-01
5.405113e-01
5.434376e-01
5.478223e-01
5.530078e-01
5.584153e-01
5.637087e-01
5.681909e-01
0.000000e+00
1.000000e+00
5.673992e-01
5.609139e-01
5.540647e-01
5.470694e-01
5.404492e-01
5.349025e-01
5.311851e-01
5.298958e-01
5.312568e-01
5.350069e-01
5.406339e-01
5.473038e-01
5.542266e-01
5.610492e-01
5.668490e-01
0.000000e+00
1.000000e+00
5.662436e-01
5.583498e-01
5.500380e-01
5.415629e-01
5.335415e-01
5.268183e-01
5.223091e-01
5.207419e-01
5.223909e-01
5.269415e-01
5.337476e-01
5.418480e-01
5.502196e-01
5.585060e-01
5.655772e-01
0.000000e+00
1.000000e+00
5.651624e-01
5.560481e-01
5.464242e-01
5.366201e-01
5.273398e-01
5.195603e-01
5.143419e-01
5.125283e-01
5.144377e-01
5.197137e-01
5.275643e-01
5.369535e-01
5.466327e-01
5.562201e-01
5.644723e-01
0.000000e+00
1.000000e+00
5.642842e-01
5.541375e-01
5.434269e-01
5.325227e-01
5.221995e-01
5.135442e-01
5.077376e-01
5.057193e-01
5.078438e-01
5.137241e-01
5.224340e-01
5.328899e-01
5.436726e-01
5.543140e-01
5.635641e-01
0.000000e+00
1.000000e+00
5.635599e-01
5.526986e-01
5.411944e-01
5.294688e-01
5.183672e-01
5.090586e-01
5.028131e-01
5.006421e-01
5.029279e-01
5.092614e-01
5.186109e-01
5.298439e-01
5.414907e-01
5.528913e-01
5.628775e-01
0.000000e+00
1.000000e+00
5.630059e-01
5.517917e-01
5.398030e-01
5.275605e-01
5.159704e-01
5.062525e-01
4.997329e-01
4.974672e-01
4.998547e-01
5.064732e-01
5.162321e-01
5.279075e-01
5.401445e-01
5.520164e-01
5.624603e-01
0.000000e+00
1.000000e+00
5.627496e-01
5.514363e-01
5.392532e-01
5.268022e-01
5.150155e-01
5.051339e-01
4.985051e-01
4.962022e-01
4.986309e-01
5.053651e-01
5.153008e-01
5.271037e-01
5.395890e-01
5.517048e-01
5.622931e-01
0.000000e+00
1.000000e+00
5.627862e-01
5.515851e-01
5.394831e-01
5.271132e-01
5.154030e-01
5.055866e-01
4.990023e-01
4.967158e-01
4.991294e-01
5.058215e-01
5.156964e-01
5.274085e-01
5.398029e-01
5.518548e-01
5.623655e-01
0.000000e+00
1.000000e+00
5.630427e-01
5.521728e-01
5.403930e-01
5.283565e-01
5.169612e-01
5.074091e-01
5.010028e-01
4.987792e-01
5.011294e-01
5.076409e-01
5.172387e-01
5.286984e-01
5.407068e-01
5.523989e-01
5.626711e-01
0.000000e+00
1.000000e+00
5.636267e-01
5.531076e-01
5.418570e-01
5.303627e-01
5.194799e-01
5.103570e-01
5.042387e-01
5.021154e-01
5.043611e-01
5.105796e-01
5.197512e-01
5.307428e-01
5.421072e-01
5.533248e-01
5.630491e-01
0.000000e+00
1.000000e+00
5.751192e-01
5.765456e-01
5.786103e-01
5.806752e-01
5.826338e-01
5.842800e-01
5.853894e-01
5.857822e-01
5.853890e-01
5.842812e-01
5.826563e-01
5.807747e-01
5.787624e-01
5.766902e-01
5.745629e-01
0.000000e+00
1.000000e+00
5.744101e-01
5.752427e-01
5.765507e-01
5.778550e-01
5.790921e-01
5.801317e-01
5.808315e-01
5.810776e-01
5.808252e-01
5.801190e-01
5.790851e-01
5.779125e-01
5.766949e-01
5.753902e-01
5.737899e-01
0.000000e+00
1.000000e+00
5.735202e-01
5.735443e-01
5.738694e-01
5.741831e-01
5.744808e-01
5.747309e-01
5.748987e-01
5.749561e-01
5.748913e-01
5.747166e-01
5.744798e-01
5.742516e-01
5.739827e-01
5.736816e-01
5.730578e-01
0.000000e+00
1.000000e+00
5.724626e-01
5.714479e-01
5.705709e-01
5.696669e-01
5.688100e-01
5.680905e-01
5.676063e-01
5.674355e-01
5.676088e-01
5.680995e-01
5.688642e-01
5.697967e-01
5.706788e-01
5.715598e-01
5.721333e-01
0.000000e+00
1.000000e+00
5.711958e-01
5.689902e-01
5.667134e-01
5.643851e-01
5.621779e-01
5.603252e-01
5.590811e-01
5.586483e-01
5.591033e-01
5.603721e-01
5.622802e-01
5.645228e-01
5.668578e-01
5.690963e-01
5.709862e-01
0.000000e+00
1.000000e+00
5.698011e-01
5.662481e-01
5.624187e-01
5.585019e-01
5.547898e-01
5.516769e-01
5.495912e-01
5.488705e-01
5.496380e-01
5.517565e-01
5.549320e-01
5.586559e-01
5.625695e-01
5.663469e-01
5.696588e-01
0.000000e+00
1.000000e+00
5.684195e-01
5.633402e-01
5.578715e-01
5.522741e-01
5.469742e-01
5.425346e-01
5.395626e-01
5.385357e-01
5.396278e-01
5.426337e-01
5.471565e-01
5.524697e-01
5.580296e-01
5.634525e-01
5.682013e-01
0.000000e+00
1.000000e+00
5.670858e-01
5.604273e-01
5.533104e-01
5.460349e-01
5.391521e-01
5.333877e-01
5.295260e-01
5.281863e-01
5.295978e-01
5.334961e-01
5.393648e-01
5.462889e-01
5.534810e-01
5.605563e-01
5.667318e-01
0.000000e+00
1.000000e+00
5.659205e-01
5.576927e-01
5.490092e-01
5.401592e-01
5.317852e-01
5.247665e-01
5.200579e-01
5.184178e-01
5.201336e-01
5.248870e-01
5.320140e-01
5.404706e-01
5.492001e-01
5.578402e-01
5.653089e-01
0.000000e+00
1.000000e+00
5.649786e-01
5.553148e-01
5.452340e-01
5.349979e-01
5.253053e-01
5.171768e-01
5.117221e-01
5.098229e-01
5.118124e-01
5.173243e-01
5.255457e-01
5.353543e-01
5.454471e-01
5.554506e-01
5.641145e-01
0.000000e+00
1.000000e+00
5.642915e-01
5.534104e-01
5.421924e-01
5.308352e-01
5.200790e-01
5.110583e-01
5.050055e-01
5.029000e-01
5.051099e-01
5.112349e-01
5.203300e-01
5.312234e-01
5.424412e-01
5.535070e-01
5.632062e-01
0.000000e+00
1.000000e+00
5.635954e-01
5.520151e-01
5.400296e-01
5.278747e-01
5.163624e-01
5.067079e-01
5.002296e-01
4.979763e-01
5.003438e-01
5.069093e-01
5.166233e-01
5.282680e-01
5.403308e-01
5.521193e-01
5.625542e-01
0.000000e+00
1.000000e+00
5.628244e-01
5.511739e-01
5.388056e-01
5.261980e-01
5.142586e-01
5.042467e-01
4.975292e-01
4.951936e-01
4.976518e-01
5.044697e-01
5.145405e-01
5.265644e-01
5.391491e-01
5.513603e-01
5.621888e-01
0.000000e+00
1.000000e+00
5.626060e-01
5.509621e-01
5.385064e-01
5.257840e-01
5.137391e-01
5.036403e-01
4.968653e-01
4.945113e-01
4.969934e-01
5.038777e-01
5.140396e-01
5.261176e-01
5.388527e-01
5.512082e-01
5.620767e-01
0.000000e+00
1.000000e+00
5.627047e-01
5.513053e-01
5.390476e-01
5.265207e-01
5.146627e-01
5.047223e-01
4.980549e-01
4.957396e-01
4.981844e-01
5.049647e-01
5.149582e-01
5.268663e-01
5.393902e-01
5.515474e-01
5.622624e-01
0.000000e+00
1.000000e+00
5.630728e-01
5.521134e-01
5.403039e-01
5.282359e-01
5.168123e-01
5.072371e-01
5.008161e-01
4.985883e-01
5.009456e-01
5.074773e-01
5.170880e-01
5.286196e-01
5.406102e-01
5.523443e-01
5.626971e-01
0.000000e+00
1.000000e+00
5.637005e-01
5.532780e-01
5.421221e-01
5.307248e-01
5.199352e-01
5.108917e-01
5.048279e-01
5.027255e-01
5.049546e-01
5.111243e-01
5.202095e-01
5.311267e-01
5.423684e-01
5.535446e-01
5.629678e-01
0.000000e+00
1.000000e+00
5.758827e-01
5.779452e-01
5.808215e-01
5.837033e-01
5.864370e-01
5.887352e-01
5.902852e-01
5.908365e-01
5.902930e-01
5.887574e-01
5.865112e-01
5.838605e-01
5.810085e-01
5.781208e-01
5.752702e-01
0.000000e+00
1.000000e+00
5.750947e-01
5.764768e-01
5.784992e-01
5.805235e-01
5.824439e-01
5.840583e-01
5.851464e-01
5.855315e-01
5.851449e-01
5.840557e-01
5.824693e-01
5.806468e-01
5.787007e-01
5.766624e-01
5.743965e-01
0.000000e+00
1.000000e+00
5.740945e-01
5.745902e-01
5.755165e-01
5.764390e-01
5.773142e-01
5.780499e-01
5.785450e-01
5.787184e-01
5.785377e-01
5.780342e-01
5.773117e-01
5.765216e-01
5.756995e-01
5.747679e-01
5.736236e-01
0.000000e+00
1.000000e+00
5.728842e-01
5.722843e-01
5.718835e-01
5.714641e-01
5.710672e-01
5.707349e-01
5.705118e-01
5.704327e-01
5.705114e-01
5.707369e-01
5.711178e-01
5.715979e-01
5.720255e-01
5.724258e-01
5.725387e-01
0.000000e+00
1.000000e+00
5.715248e-01
5.696032e-01
5.676740e-01
5.657009e-01
5.638311e-01
5.622624e-01
5.612090e-01
5.608420e-01
5.612289e-01
5.623067e-01
5.639524e-01
5.658565e-01
5.678458e-01
5.697410e-01
5.712074e-01
0.000000e+00
1.000000e+00
5.700189e-01
5.666393e-01
5.630287e-01
5.593390e-01
5.558428e-01
5.529107e-01
5.509453e-01
5.502664e-01
5.509924e-01
5.529897e-01
5.560049e-01
5.595043e-01
5.632116e-01
5.667633e-01
5.697841e-01
0.000000e+00
1.000000e+00
5.684884e-01
5.635258e-01
5.581567e-01
5.526651e-01
5.474644e-01
5.431074e-01
5.401917e-01
5.391850e-01
5.402596e-01
5.432083e-01
5.476663e-01
5.528633e-01
5.583342e-01
5.636474e-01
5.682829e-01
0.000000e+00
1.000000e+00
5.670249e-01
5.604324e-01
5.533198e-01
5.460453e-01
5.391636e-01
5.334012e-01
5.295421e-01
5.282030e-01
5.296147e-01
5.335140e-01
5.394003e-01
5.462973e-01
5.534988e-01
5.605608e-01
5.667627e-01
0.000000e+00
1.000000e+00
5.657331e-01
5.575561e-01
5.488126e-01
5.398900e-01
5.314492e-01
5.243749e-01
5.196292e-01
5.179747e-01
5.197014e-01
5.244996e-01
5.317056e-01
5.402001e-01
5.490072e-01
5.577080e-01
5.652508e-01
0.000000e+00
1.000000e+00
5.648616e-01
5.551221e-01
5.449301e-01
5.345850e-01
5.247876e-01
5.165698e-01
5.110528e-01
5.091295e-01
5.111387e-01
5.167174e-01
5.250519e-01
5.349369e-01
5.451374e-01
5.552507e-01
5.639776e-01
0.000000e+00
1.000000e+00
5.647332e-01
5.532688e-01
5.418879e-01
5.304140e-01
5.195466e-01
5.104330e-01
5.043159e-01
5.021875e-01
5.044205e-01
5.106131e-01
5.198242e-01
5.307975e-01
5.421128e-01
5.533054e-01
5.630842e-01
0.000000e+00
1.000000e+00
5.642237e-01
5.519499e-01
5.398160e-01
5.275762e-01
5.159845e-01
5.062642e-01
4.997415e-01
4.974727e-01
4.998567e-01
5.064708e-01
5.162740e-01
5.279706e-01
5.400717e-01
5.519806e-01
5.624643e-01
0.000000e+00
1.000000e+00
5.630634e-01
5.511898e-01
5.387633e-01
5.261398e-01
5.141842e-01
5.041587e-01
4.974321e-01
4.950934e-01
4.975551e-01
5.043854e-01
5.144892e-01
5.265133e-01
5.390586e-01
5.513350e-01
5.621721e-01
0.000000e+00
1.000000e+00
5.627504e-01
5.510975e-01
5.387000e-01
5.260530e-01
5.140784e-01
5.040380e-01
4.973019e-01
4.949612e-01
4.974291e-01
5.042768e-01
5.143873e-01
5.264158e-01
5.390218e-01
5.513268e-01
5.620727e-01
0.000000e+00
1.000000e+00
5.629350e-01
5.516128e-01
5.395228e-01
5.271733e-01
5.154840e-01
5.056851e-01
4.991130e-01
4.968312e-01
4.992420e-01
5.059291e-01
5.157770e-01
5.275628e-01
5.398434e-01
5.518459e-01
5.623518e-01
0.000000e+00
1.000000e+00
5.633313e-01
5.526075e-01
5.410795e-01
5.292982e-01
5.181468e-01
5.088006e-01
5.025341e-01
5.003612e-01
5.026638e-01
5.090432e-01
5.184206e-01
5.296994e-01
5.413667e-01
5.528761e-01
5.628873e-01
0.000000e+00
1.000000e+00
5.639865e-01
5.539643e-01
5.431969e-01
5.321947e-01
5.217798e-01
5.130514e-01
5.072005e-01
5.051741e-01
5.073284e-01
5.132884e-01
5.220541e-01
5.325981e-01
5.434436e-01
5.542778e-01
5.630318e-01
0.000000e+00
1.000000e+00
5.767083e-01
5.794864e-01
5.832607e-01
5.870435e-01
5.906323e-01
5.936502e-01
5.956869e-01
5.964142e-01
5.957073e-01
5.937048e-01
5.907672e-01
5.872432e-01
5.834744e-01
5.797019e-01
5.760024e-01
0.000000e+00
1.000000e+00
5.758494e-01
5.778854e-01
5.807251e-01
5.835716e-01
5.862723e-01
5.885434e-01
5.900755e-01
5.906203e-01
5.900820e-01
5.885630e-01
5.863591e-01
5.837656e-01
5.809641e-01
5.781075e-01
5.750761e-01
0.000000e+00
1.000000e+00
5.747607e-01
5.758498e-01
5.775022e-01
5.791586e-01
5.807303e-01
5.820517e-01
5.829422e-01
5.832565e-01
5.829380e-01
5.820420e-01
5.807536e-01
5.792964e-01
5.777594e-01
5.760748e-01
5.742127e-01
0.000000e+00
1.000000e+00
5.734501e-01
5.733822e-01
5.736088e-01
5.738270e-01
5.740349e-01
5.742107e-01
5.743297e-01
5.743710e-01
5.743263e-01
5.742048e-01
5.740739e-01
5.739503e-01
5.738061e-01
5.735640e-01
5.731022e-01
0.000000e+00
1.000000e+00
5.719883e-01
5.705309e-01
5.691294e-01
5.676939e-01
5.663341e-01
5.651943e-01
5.644301e-01
5.641643e-01
5.644469e-01
5.652316e-01
5.664653e-01
5.678643e-01
5.693277e-01
5.706983e-01
5.716696e-01
0.000000e+00
1.000000e+00
5.704248e-01
5.674020e-01
5.642245e-01
5.609777e-01
5.579018e-01
5.553227e-01
5.535938e-01
5.529968e-01
5.536405e-01
5.554026e-01
5.580794e-01
5.611533e-01
5.644457e-01
5.675597e-01
5.701601e-01
0.000000e+00
1.000000e+00
5.688081e-01
5.641442e-01
5.591226e-01
5.539902e-01
5.491292e-01
5.450558e-01
5.423293e-01
5.413891e-01
5.423989e-01
5.451571e-01
5.493415e-01
5.541859e-01
5.593272e-01
5.642776e-01
5.686520e-01
0.000000e+00
1.000000e+00
5.672597e-01
5.609373e-01
5.541055e-01
5.471207e-01
5.405116e-01
5.349767e-01
5.312703e-01
5.299868e-01
5.313452e-01
5.350928e-01
5.407608e-01
5.473536e-01
5.542974e-01
5.610592e-01
5.671217e-01
0.000000e+00
1.000000e+00
5.658699e-01
5.579790e-01
5.494809e-01
5.408009e-01
5.325902e-01
5.257085e-01
5.210930e-01
5.194863e-01
5.211663e-01
5.258394e-01
5.328670e-01
5.410821e-01
5.496752e-01
5.581127e-01
5.655683e-01
0.000000e+00
1.000000e+00
5.648514e-01
5.554960e-01
5.455529e-01
5.354353e-01
5.258546e-01
5.178196e-01
5.124247e-01
5.105437e-01
5.125093e-01
5.179716e-01
5.261435e-01
5.357571e-01
5.457526e-01
5.556233e-01
5.642114e-01
0.000000e+00
1.000000e+00
5.648542e-01
5.536793e-01
5.425483e-01
5.313171e-01
5.206787e-01
5.117584e-01
5.057706e-01
5.036864e-01
5.058740e-01
5.119416e-01
5.209807e-01
5.316679e-01
5.427529e-01
5.537097e-01
5.632918e-01
0.000000e+00
1.000000e+00
5.646673e-01
5.524651e-01
5.405867e-01
5.286314e-01
5.173081e-01
5.078128e-01
5.014418e-01
4.992262e-01
5.015561e-01
5.080209e-01
5.176189e-01
5.289922e-01
5.408098e-01
5.524614e-01
5.626908e-01
0.000000e+00
1.000000e+00
5.635230e-01
5.518194e-01
5.397053e-01
5.274300e-01
5.158040e-01
5.060544e-01
4.995126e-01
4.972383e-01
4.996324e-01
5.062777e-01
5.161186e-01
5.277859e-01
5.399612e-01
5.519110e-01
5.624551e-01
0.000000e+00
1.000000e+00
5.631693e-01
5.518453e-01
5.398536e-01
5.276329e-01
5.160625e-01
5.063612e-01
4.998527e-01
4.975914e-01
4.999763e-01
5.065955e-01
5.163678e-01
5.280084e-01
5.401455e-01
5.520449e-01
5.623758e-01
0.000000e+00
1.000000e+00
5.633595e-01
5.525041e-01
5.409136e-01
5.290754e-01
5.178713e-01
5.084802e-01
5.021823e-01
4.999966e-01
5.023082e-01
5.087195e-01
5.181579e-01
5.294736e-01
5.411948e-01
5.527374e-01
5.627036e-01
0.000000e+00
1.000000e+00
5.638100e-01
5.536482e-01
5.427102e-01
5.315289e-01
5.209458e-01
5.120769e-01
5.061316e-01