<?xml version="1.0"?>
<VTKFile type="StructuredGrid" version="0.1">
  <StructuredGrid WholeExtent="0 16 0 16 0 16">
    <Piece Extent="0 16 0 16 0 16">
      <PointData Scalars="temperature" Vectors="velocity">
        <DataArray type="Float32" Name="temperature" format="ascii">
1.000000e+00
5.726671e-01
5.722978e-01
5.719010e-01
5.714952e-01
5.711104e-01
5.707870e-01
5.705691e-01
5.704919e-01
5.705691e-01
5.707870e-01
5.711104e-01
5.714952e-01
5.719010e-01
5.722978e-01
5.726671e-01
0.000000e+00
1.000000e+00
5.734170e-01
5.738795e-01
5.743765e-01
5.748847e-01
5.753667e-01
5.757716e-01
5.760445e-01
5.761412e-01
5.760445e-01
5.757716e-01
5.753667e-01
5.748847e-01
5.743765e-01
5.738795e-01
5.734170e-01
0.000000e+00
1.000000e+00
5.743006e-01
5.757435e-01
5.772935e-01
5.788789e-01
5.803821e-01
5.816454e-01
5.824966e-01
5.827981e-01
5.824966e-01
5.816454e-01
5.803821e-01
5.788789e-01
5.772935e-01
5.757435e-01
5.743006e-01
0.000000e+00
1.000000e+00
5.753009e-01
5.778533e-01
5.805955e-01
5.833999e-01
5.860593e-01
5.882940e-01
5.897999e-01
5.903332e-01
5.897999e-01
5.882940e-01
5.860593e-01
5.833999e-01
5.805955e-01
5.778533e-01
5.753009e-01
0.000000e+00
1.000000e+00
5.763885e-01
5.801474e-01
5.841858e-01
5.883159e-01
5.922323e-01
5.955234e-01
5.977411e-01
5.985266e-01
5.977411e-01
5.955234e-01
5.922323e-01
5.883159e-01
5.841858e-01
5.801474e-01
5.763885e-01
0.000000e+00
1.000000e+00
5.775223e-01
5.825391e-01
5.879287e-01
5.934409e-01
5.986677e-01
6.030601e-01
6.060198e-01
6.070681e-01
6.060198e-01
6.030601e-01
5.986677e-01
5.934409e-01
5.879287e-01
5.825391e-01
5.775223e-01
0.000000e+00
1.000000e+00
5.786512e-01
5.849203e-01
5.916553e-01
5.985434e-01
6.050751e-01
6.105639e-01
6.142625e-01
6.155724e-01
6.142625e-01
6.105639e-01
6.050751e-01
5.985434e-01
5.916553e-01
5.849203e-01
5.786512e-01
0.000000e+00
1.000000e+00
5.797179e-01
5.871703e-01
5.951767e-01
6.033650e-01
6.111296e-01
6.176544e-01
6.220512e-01
6.236084e-01
6.220512e-01
6.176544e-01
6.111296e-01
6.033650e-01
5.951767e-01
5.871703e-01
5.797179e-01
0.000000e+00
1.000000e+00
5.806648e-01
5.891675e-01
5.983023e-01
6.076446e-01
6.165035e-01
6.239480e-01
6.289644e-01
6.307411e-01
6.289644e-01
6.239480e-01
6.165035e-01
6.076446e-01
5.983023e-01
5.891675e-01
5.806648e-01
0.000000e+00
1.000000e+00
5.814397e-01
5.908021e-01
6.008604e-01
6.111473e-01
6.209019e-01
6.290990e-01
6.346226e-01
6.365789e-01
6.346226e-01
6.290990e-01
6.209019e-01
6.111473e-01
6.008604e-01
5.908021e-01
5.814397e-01
0.000000e+00
1.000000e+00
5.820023e-01
5.919888e-01
6.027176e-01
6.136902e-01
6.240950e-01
6.328386e-01
6.387304e-01
6.408171e-01
6.387304e-01
6.328386e-01
6.240950e-01
6.136902e-01
6.027176e-01
5.919888e-01
5.820023e-01
0.000000e+00
1.000000e+00
5.823277e-01
5.926752e-01
6.037918e-01
6.151611e-01
6.259420e-01
6.350016e-01
6.411064e-01
6.432685e-01
6.411064e-01
6.350016e-01
6.259420e-01
6.151611e-01
6.037918e-01
5.926752e-01
5.823277e-01
0.000000e+00
1.000000e+00
5.824083e-01
5.928453e-01
6.040581e-01
6.155257e-01
6.263998e-01
6.355378e-01
6.416953e-01
6.438761e-01
6.416953e-01
6.355378e-01
6.263998e-01
6.155257e-01
6.040581e-01
5.928453e-01
5.824083e-01
0.000000e+00
1.000000e+00
5.822531e-01
5.925178e-01
6.035455e-01
6.148239e-01
6.255185e-01
6.345057e-01
6.405616e-01
6.427064e-01
6.405616e-01
6.345057e-01
6.255185e-01
6.148239e-01
6.035455e-01
5.925178e-01
5.822531e-01
0.000000e+00
1.000000e+00
5.818841e-01
5.917396e-01
6.023276e-01
6.131562e-01
6.234245e-01
6.320532e-01
6.378677e-01
6.399270e-01
6.378677e-01
6.320532e-01
6.234245e-01
6.131562e-01
6.023276e-01
5.917396e-01
5.818841e-01
0.000000e+00
1.000000e+00
5.813330e-01
5.905772e-01
6.005084e-01
6.106653e-01
6.202966e-01
6.283902e-01
6.338440e-01
6.357755e-01
6.338440e-01
6.283902e-01
6.202966e-01
6.106653e-01
6.005084e-01
5.905772e-01
5.813330e-01
0.000000e+00
1.000000e+00
5.806363e-01
5.891074e-01
5.982082e-01
6.075159e-01
6.163419e-01
6.237586e-01
6.287564e-01
6.305265e-01
6.287564e-01
6.237586e-01
6.163419e-01
6.075159e-01
5.982082e-01
5.891074e-01
5.806363e-01
0.000000e+00
1.000000e+00
5.733366e-01
5.737100e-01
5.741111e-01
5.745213e-01
5.749103e-01
5.752372e-01
5.754575e-01
5.755355e-01
5.754575e-01
5.752372e-01
5.749103e-01
5.745213e-01
5.741111e-01
5.737100e-01
5.733366e-01
0.000000e+00
1.000000e+00
5.741076e-01
5.753363e-01
5.766564e-01
5.780064e-01
5.792866e-01
5.803624e-01
5.810873e-01
5.813440e-01
5.810873e-01
5.803624e-01
5.792866e-01
5.780064e-01
5.766564e-01
5.753363e-01
5.741076e-01
0.000000e+00
1.000000e+00
5.750148e-01
5.772499e-01
5.796511e-01
5.821068e-01
5.844355e-01
5.863924e-01
5.877110e-01
5.881780e-01
5.877110e-01
5.863924e-01
5.844355e-01
5.821068e-01
5.796511e-01
5.772499e-01
5.750148e-01
0.000000e+00
1.000000e+00
5.760396e-01
5.794115e-01
5.830340e-01
5.867389e-01
5.902520e-01
5.932042e-01
5.951936e-01
5.958981e-01
5.951936e-01
5.932042e-01
5.902520e-01
5.867389e-01
5.830340e-01
5.794115e-01
5.760396e-01
0.000000e+00
1.000000e+00
5.771503e-01
5.817544e-01
5.867007e-01
5.917594e-01
5.965563e-01
6.005874e-01
6.033037e-01
6.042657e-01
6.033037e-01
6.005874e-01
5.965563e-01
5.917594e-01
5.867007e-01
5.817544e-01
5.771503e-01
0.000000e+00
1.000000e+00
5.783022e-01
5.841841e-01
5.905031e-01
5.969658e-01
6.030941e-01
6.082439e-01
6.117140e-01
6.129430e-01
6.117140e-01
6.082439e-01
6.030941e-01
5.969658e-01
5.905031e-01
5.841841e-01
5.783022e-01
0.000000e+00
1.000000e+00
5.794394e-01
5.865829e-01
5.942573e-01
6.021062e-01
6.095488e-01
6.158032e-01
6.200176e-01
6.215102e-01
6.200176e-01
6.158032e-01
6.095488e-01
6.021062e-01
5.942573e-01
5.865829e-01
5.794394e-01
0.000000e+00
1.000000e+00
5.804999e-01
5.888198e-01
5.977581e-01
6.068995e-01
6.155679e-01
6.228522e-01
6.277607e-01
6.294992e-01
6.277607e-01
6.228522e-01
6.155679e-01
6.068995e-01
5.977581e-01
5.888198e-01
5.804999e-01
0.000000e+00
1.000000e+00
5.814215e-01
5.907638e-01
6.008004e-01
6.110652e-01
6.207987e-01
6.289782e-01
6.344899e-01
6.364419e-01
6.344899e-01
6.289782e-01
6.207987e-01
6.110652e-01
6.008004e-01
5.907638e-01
5.814215e-01
0.000000e+00
1.000000e+00
5.821494e-01
5.922991e-01
6.032032e-01
6.143551e-01
6.249299e-01
6.338163e-01
6.398044e-01
6.419252e-01
6.398044e-01
6.338163e-01
6.249299e-01
6.143551e-01
6.032032e-01
5.922991e-01
5.821494e-01
0.000000e+00
1.000000e+00
5.826424e-01
5.933389e-01
6.048306e-01
6.165834e-01
6.277280e-01
6.370933e-01
6.434040e-01
6.456390e-01
6.434040e-01
6.370933e-01
6.277280e-01
6.165834e-01
6.048306e-01
5.933389e-01
5.826424e-01
0.000000e+00
1.000000e+00
5.828775e-01
5.938348e-01
6.056067e-01
6.176461e-01
6.290624e-01
6.386560e-01
6.451206e-01
6.474101e-01
6.451206e-01
6.386560e-01
6.290624e-01
6.176461e-01
6.056067e-01
5.938348e-01
5.828775e-01
0.000000e+00
1.000000e+00
5.828512e-01
5.937794e-01
6.055200e-01
6.175273e-01
6.289133e-01
6.384813e-01
6.449287e-01
6.472122e-01
6.449287e-01
6.384813e-01
6.289133e-01
6.175273e-01
6.055200e-01
5.937794e-01
5.828512e-01
0.000000e+00
1.000000e+00
5.825780e-01
5.932032e-01
6.046182e-01
6.162926e-01
6.273629e-01
6.366656e-01
6.429342e-01
6.451544e-01
6.429342e-01
6.366656e-01
6.273629e-01
6.162926e-01
6.046182e-01
5.932032e-01
5.825780e-01
0.000000e+00
1.000000e+00
5.820865e-01
5.921665e-01
6.029958e-01
6.140711e-01
6.245734e-01
6.333987e-01
6.393457e-01
6.414519e-01
6.393457e-01
6.333987e-01
6.245734e-01
6.140711e-01
6.029958e-01
5.921665e-01
5.820865e-01
0.000000e+00
1.000000e+00
5.814144e-01
5.907487e-01
6.007769e-01
6.110330e-01
6.207583e-01
6.289309e-01
6.344379e-01
6.363883e-01
6.344379e-01
6.289309e-01
6.207583e-01
6.110330e-01
6.007769e-01
5.907487e-01
5.814144e-01
0.000000e+00
1.000000e+00
5.806032e-01
5.890376e-01
5.980989e-01
6.073662e-01
6.161540e-01
6.235386e-01
6.285147e-01
6.302771e-01
6.285147e-01
6.235386e-01
6.161540e-01
6.073662e-01
5.980989e-01
5.890376e-01
5.806032e-01
0.000000e+00
1.000000e+00
5.739123e-01
5.749242e-01
5.760114e-01
5.771233e-01
5.781777e-01
5.790637e-01
5.796608e-01
5.798722e-01
5.796608e-01
5.790637e-01
5.781777e-01
5.771233e-01
5.760114e-01
5.749242e-01
5.739123e-01
0.000000e+00
1.000000e+00
5.746966e-01
5.765787e-01
5.786007e-01
5.806687e-01
5.826296e-01
5.842774e-01
5.853878e-01
5.857811e-01
5.853878e-01
5.842774e-01
5.826296e-01
5.806687e-01
5.786007e-01
5.765787e-01
5.746966e-01
0.000000e+00
1.000000e+00
5.756188e-01
5.785238e-01
5.816448e-01
5.848368e-01
5.878635e-01
5.904070e-01
5.921210e-01
5.927280e-01
5.921210e-01
5.904070e-01
5.878635e-01
5.848368e-01
5.816448e-01
5.785238e-01
5.756188e-01
0.000000e+00
1.000000e+00
5.766591e-01
5.807182e-01
5.850790e-01
5.895390e-01
5.937681e-01
5.973220e-01
5.997168e-01
6.005650e-01
5.997168e-01
5.973220e-01
5.937681e-01
5.895390e-01
5.850790e-01
5.807182e-01
5.766591e-01
0.000000e+00
1.000000e+00
5.777837e-01
5.830903e-01
5.887914e-01
5.946221e-01
6.001510e-01
6.047972e-01
6.079280e-01
6.090368e-01
6.079280e-01
6.047972e-01
6.001510e-01
5.946221e-01
5.887914e-01
5.830903e-01
5.777837e-01
0.000000e+00
1.000000e+00
5.789443e-01
5.855386e-01
5.926229e-01
5.998683e-01
6.067388e-01
6.125122e-01
6.164027e-01
6.177805e-01
6.164027e-01
6.125122e-01
6.067388e-01
5.998683e-01
5.926229e-01
5.855386e-01
5.789443e-01
0.000000e+00
1.000000e+00
5.800811e-01
5.879364e-01
5.963755e-01
6.050065e-01
6.131908e-01
6.200683e-01
6.247027e-01
6.263441e-01
6.247027e-01
6.200683e-01
6.131908e-01
6.050065e-01
5.963755e-01
5.879364e-01
5.800811e-01
0.000000e+00
1.000000e+00
5.811272e-01
5.901431e-01
5.998290e-01
6.097351e-01
6.191285e-01
6.270222e-01
6.323413e-01
6.342251e-01
6.323413e-01
6.270222e-01
6.191285e-01
6.097351e-01
5.998290e-01
5.901431e-01
5.811272e-01
0.000000e+00
1.000000e+00
5.820167e-01
5.920193e-01
6.027653e-01
6.137556e-01
6.241771e-01
6.329347e-01
6.388359e-01
6.409260e-01
6.388359e-01
6.329347e-01
6.241771e-01
6.137556e-01
6.027653e-01
5.920193e-01
5.820167e-01
0.000000e+00
1.000000e+00
5.826923e-01
5.934442e-01
6.049953e-01
6.168090e-01
6.280113e-01
6.374250e-01
6.437684e-01
6.460150e-01
6.437684e-01
6.374250e-01
6.280113e-01
6.168090e-01
6.049953e-01
5.934442e-01
5.826923e-01
0.000000e+00
1.000000e+00
5.831125e-01
5.943307e-01
6.063827e-01
6.187086e-01
6.303966e-01
6.402185e-01
6.468369e-01
6.491809e-01
6.468369e-01
6.402185e-01
6.303966e-01
6.187086e-01
6.063827e-01
5.943307e-01
5.831125e-01
0.000000e+00
1.000000e+00
5.832568e-01
5.946350e-01
6.068589e-01
6.193607e-01
6.312155e-01
6.411775e-01
6.478903e-01
6.502678e-01
6.478903e-01
6.411775e-01
6.312155e-01
6.193607e-01
6.068589e-01
5.946350e-01
5.832568e-01
0.000000e+00
1.000000e+00
5.831261e-01
5.943592e-01
6.064273e-01
6.187697e-01
6.304734e-01
6.403084e-01
6.469357e-01
6.492829e-01
6.469357e-01
6.403084e-01
6.304734e-01
6.187697e-01
6.064273e-01
5.943592e-01
5.831261e-01
0.000000e+00
1.000000e+00
5.827406e-01
5.935462e-01
6.051549e-01
6.170275e-01
6.282857e-01
6.377463e-01
6.441213e-01
6.463792e-01
6.441213e-01
6.377463e-01
6.282857e-01
6.170275e-01
6.051549e-01
5.935462e-01
5.827406e-01
0.000000e+00
1.000000e+00
5.821353e-01
5.922693e-01
6.031566e-01
6.142913e-01
6.248498e-01
6.337225e-01
6.397014e-01
6.418189e-01
6.397014e-01
6.337225e-01
6.248498e-01
6.142913e-01
6.031566e-01
5.922693e-01
5.821353e-01
0.000000e+00
1.000000e+00
5.813534e-01
5.906201e-01
6.005755e-01
6.107573e-01
6.204121e-01
6.285254e-01
6.339925e-01
6.359288e-01
6.339925e-01
6.285254e-01
6.204121e-01
6.107573e-01
6.005755e-01
5.906201e-01
5.813534e-01
0.000000e+00
1.000000e+00
5.804412e-01
5.886960e-01
5.975643e-01
6.066342e-01
6.152348e-01
6.224621e-01
6.273322e-01
6.290570e-01
6.273322e-01
6.224621e-01
6.152348e-01
6.066342e-01
5.975643e-01
5.886960e-01
5.804412e-01
0.000000e+00
1.000000e+00
5.743558e-01
5.758599e-01
5.774757e-01
5.791283e-01
5.806954e-01
5.820122e-01
5.828996e-01
5.832138e-01
5.828996e-01
5.820122e-01
5.806954e-01
5.791283e-01
5.774757e-01
5.758599e-01
5.743558e-01
0.000000e+00
1.000000e+00
5.751420e-01
5.775182e-01
5.800711e-01
5.826819e-01
5.851577e-01
5.872381e-01
5.886400e-01
5.891365e-01
5.886400e-01
5.872381e-01
5.851577e-01
5.826819e-01
5.800711e-01
5.775182e-01
5.751420e-01
0.000000e+00
1.000000e+00
5.760668e-01
5.794689e-01
5.831239e-01
5.868619e-01
5.904065e-01
5.933852e-01
5.953923e-01
5.961032e-01
5.953923e-01
5.933852e-01
5.904065e-01
5.868619e-01
5.831239e-01
5.794689e-01
5.760668e-01
0.000000e+00
1.000000e+00
5.771098e-01
5.816689e-01
5.865668e-01
5.915761e-01
5.963262e-01
6.003178e-01
6.030076e-01
6.039602e-01
6.030076e-01
6.003178e-01
5.963262e-01
5.915761e-01
5.865668e-01
5.816689e-01
5.771098e-01
0.000000e+00
1.000000e+00
5.782353e-01
5.840430e-01
5.902824e-01
5.966637e-01
6.027146e-01
6.077995e-01
6.112259e-01
6.124394e-01
6.112259e-01
6.077995e-01
6.027146e-01
5.966637e-01
5.902824e-01
5.840430e-01
5.782353e-01
0.000000e+00
1.000000e+00
5.793926e-01
5.864841e-01
5.941027e-01
6.018944e-01
6.092830e-01
6.154918e-01
6.196756e-01
6.211574e-01
6.196756e-01
6.154918e-01
6.092830e-01
6.018944e-01
5.941027e-01
5.864841e-01
5.793926e-01
0.000000e+00
1.000000e+00
5.805180e-01
5.888579e-01
5.978178e-01
6.069812e-01
6.156705e-01
6.229724e-01
6.278928e-01
6.296354e-01
6.278928e-01
6.229724e-01
6.156705e-01
6.069812e-01
5.978178e-01
5.888579e-01
5.805180e-01
0.000000e+00
1.000000e+00
5.815410e-01
5.910159e-01
6.011950e-01
6.116055e-01
6.214772e-01
6.297727e-01
6.353626e-01
6.373424e-01
6.353626e-01
6.297727e-01
6.214772e-01
6.116055e-01
6.011950e-01
5.910159e-01
5.815410e-01
0.000000e+00
1.000000e+00
5.823924e-01
5.928118e-01
6.040056e-01
6.154538e-01
6.263095e-01
6.354320e-01
6.415791e-01
6.437563e-01
6.415791e-01
6.354320e-01
6.263095e-01
6.154538e-01
6.040056e-01
5.928118e-01
5.823924e-01
0.000000e+00
1.000000e+00
5.830131e-01
5.941209e-01
6.060544e-01
6.182590e-01
6.298321e-01
6.395574e-01
6.461108e-01
6.484317e-01
6.461108e-01
6.395574e-01
6.298321e-01
6.182590e-01
6.060544e-01
5.941209e-01
5.830131e-01
0.000000e+00
1.000000e+00
5.833619e-01
5.948568e-01
6.072060e-01
6.198359e-01
6.318122e-01
6.418763e-01
6.486580e-01
6.510598e-01
6.486580e-01
6.418763e-01
6.318122e-01
6.198359e-01
6.072060e-01
5.948568e-01
5.833619e-01
0.000000e+00
1.000000e+00
5.834209e-01
5.949811e-01
6.074005e-01
6.201022e-01
6.321466e-01
6.422680e-01
6.490882e-01
6.515037e-01
6.490882e-01
6.422680e-01
6.321466e-01
6.201022e-01
6.074005e-01
5.949811e-01
5.834209e-01
0.000000e+00
1.000000e+00
5.831952e-01
5.945051e-01
6.066557e-01
6.190824e-01
6.308661e-01
6.407683e-01
6.474408e-01
6.498040e-01
6.474408e-01
6.407683e-01
6.308661e-01
6.190824e-01
6.066557e-01
5.945051e-01
5.831952e-01
0.000000e+00
1.000000e+00
5.827109e-01
5.934834e-01
6.050567e-01
6.168931e-01
6.281169e-01
6.375486e-01
6.439042e-01
6.461551e-01
6.439042e-01
6.375486e-01
6.281169e-01
6.168931e-01
6.050567e-01
5.934834e-01
5.827109e-01
0.000000e+00
1.000000e+00
5.820082e-01
5.920012e-01
6.027371e-01
6.137169e-01
6.241285e-01
6.328778e-01
6.387735e-01
6.408615e-01
6.387735e-01
6.328778e-01
6.241285e-01
6.137169e-01
6.027371e-01
5.920012e-01
5.820082e-01
0.000000e+00
1.000000e+00
5.811355e-01
5.901604e-01
5.998562e-01
6.097723e-01
6.191752e-01
6.270769e-01
6.324014e-01
6.342871e-01
6.324014e-01
6.270769e-01
6.191752e-01
6.097723e-01
5.998562e-01
5.901604e-01
5.811355e-01
0.000000e+00
1.000000e+00
5.801427e-01
5.880663e-01
5.965788e-01
6.052849e-01
6.135404e-01
6.204777e-01
6.251525e-01
6.268081e-01
6.251525e-01
6.204777e-01
6.135404e-01
6.052849e-01
5.965788e-01
5.880663e-01
5.801427e-01
0.000000e+00
1.000000e+00
5.746302e-01
5.764386e-01
5.783815e-01
5.803685e-01
5.822526e-01
5.838360e-01
5.849029e-01
5.852807e-01
5.849029e-01
5.838360e-01
5.822526e-01
5.803685e-01
5.783815e-01
5.764386e-01
5.746302e-01
0.000000e+00
1.000000e+00
5.754031e-01
5.780690e-01
5.809329e-01
5.838620e-01
5.866395e-01
5.889736e-01
5.905463e-01
5.911034e-01
5.905463e-01
5.889736e-01
5.866395e-01
5.838620e-01
5.809329e-01
5.780690e-01
5.754031e-01
0.000000e+00
1.000000e+00
5.763144e-01
5.799911e-01
5.839411e-01
5.879809e-01
5.918116e-01
5.950307e-01
5.971999e-01
5.979681e-01
5.971999e-01
5.950307e-01
5.918116e-01
5.879809e-01
5.839411e-01
5.799911e-01
5.763144e-01
0.000000e+00
1.000000e+00
5.773434e-01
5.821616e-01
5.873379e-01
5.926319e-01
5.976520e-01
6.018705e-01
6.047131e-01
6.057199e-01
6.047131e-01
6.018705e-01
5.976520e-01
5.926319e-01
5.873379e-01
5.821616e-01
5.773434e-01
0.000000e+00
1.000000e+00
5.784536e-01
5.845034e-01
5.910029e-01
5.976502e-01
6.039534e-01
6.092502e-01
6.128195e-01
6.140836e-01
6.128195e-01
6.092502e-01
6.039534e-01
5.976502e-01
5.910029e-01
5.845034e-01
5.784536e-01
0.000000e+00
1.000000e+00
5.795924e-01
5.869056e-01
5.947624e-01
6.027977e-01
6.104172e-01
6.168202e-01
6.211348e-01
6.226629e-01
6.211348e-01
6.168202e-01
6.104172e-01
6.027977e-01
5.947624e-01
5.869056e-01
5.795924e-01
0.000000e+00
1.000000e+00
5.806939e-01
5.892290e-01
5.983986e-01
6.077765e-01
6.166691e-01
6.241419e-01
6.291774e-01
6.309608e-01
6.291774e-01
6.241419e-01
6.166691e-01
6.077765e-01
5.983986e-01
5.892290e-01
5.806939e-01
0.000000e+00
1.000000e+00
5.816849e-01
5.913194e-01
6.016700e-01
6.122559e-01
6.222939e-01
6.307293e-01
6.364134e-01
6.384265e-01
6.364134e-01
6.307293e-01
6.222939e-01
6.122559e-01
6.016700e-01
5.913194e-01
5.816849e-01
0.000000e+00
1.000000e+00
5.824939e-01
5.930259e-01
6.043406e-01
6.159126e-01
6.268856e-01
6.361067e-01
6.423203e-01
6.445209e-01
6.423203e-01
6.361067e-01
6.268856e-01
6.159126e-01
6.043406e-01
5.930259e-01
5.824939e-01
0.000000e+00
1.000000e+00
5.830608e-01
5.942215e-01
6.062118e-01
6.184746e-01
6.301028e-01
6.398744e-01
6.464590e-01
6.487910e-01
6.464590e-01
6.398744e-01
6.301028e-01
6.184746e-01
6.062118e-01
5.942215e-01
5.830608e-01
0.000000e+00
1.000000e+00
5.833451e-01
5.948212e-01
6.071503e-01
6.197596e-01
6.317164e-01
6.417642e-01
6.485348e-01
6.509327e-01
6.485348e-01
6.417642e-01
6.317164e-01
6.197596e-01
6.071503e-01
5.948212e-01
5.833451e-01
0.000000e+00
1.000000e+00
5.833311e-01
5.947917e-01
6.071042e-01
6.196965e-01
6.316372e-01
6.416714e-01
6.484328e-01
6.508275e-01
6.484328e-01
6.416714e-01
6.316372e-01
6.196965e-01
6.071042e-01
5.947917e-01
5.833311e-01
0.000000e+00
1.000000e+00
5.830281e-01
5.941527e-01
6.061041e-01
6.183272e-01
6.299177e-01
6.396576e-01
6.462208e-01
6.485453e-01
6.462208e-01
6.396576e-01
6.299177e-01
6.183272e-01
6.061041e-01
5.941527e-01
5.830281e-01
0.000000e+00
1.000000e+00
5.824666e-01
5.929681e-01
6.042503e-01
6.157888e-01
6.267302e-01
6.359247e-01
6.421204e-01
6.443147e-01
6.421204e-01
6.359247e-01
6.267302e-01
6.157888e-01
6.042503e-01
5.929681e-01
5.824666e-01
0.000000e+00
1.000000e+00
5.816912e-01
5.913326e-01
6.016907e-01
6.122842e-01
6.223295e-01
6.307709e-01
6.364591e-01
6.384737e-01
6.364591e-01
6.307709e-01
6.223295e-01
6.122842e-01
6.016907e-01
5.913326e-01
5.816912e-01
0.000000e+00
1.000000e+00
5.807540e-01
5.893558e-01
5.985970e-01
6.080482e-01
6.170103e-01
6.245414e-01
6.296163e-01
6.314136e-01
6.296163e-01
6.245414e-01
6.170103e-01
6.080482e-01
5.985970e-01
5.893558e-01
5.807540e-01
0.000000e+00
1.000000e+00
5.797075e-01
5.871483e-01
5.951421e-01
6.033177e-01
6.110701e-01
6.175848e-01
6.219747e-01
6.235294e-01
6.219747e-01
6.175848e-01
6.110701e-01
6.033177e-01
5.951421e-01
5.871483e-01
5.797075e-01
0.000000e+00
1.000000e+00
5.747037e-01
5.765936e-01
5.786240e-01
5.807005e-01
5.826696e-01
5.843243e-01
5.854393e-01
5.858342e-01
5.854393e-01
5.843243e-01
5.826696e-01
5.807005e-01
5.786240e-01
5.765936e-01
5.747037e-01
0.000000e+00
1.000000e+00
5.754452e-01
5.781578e-01
5.810720e-01
5.840524e-01
5.868785e-01
5.892535e-01
5.908538e-01
5.914206e-01
5.908538e-01
5.892535e-01
5.868785e-01
5.840524e-01
5.810720e-01
5.781578e-01
5.754452e-01
0.000000e+00
1.000000e+00
5.763238e-01
5.800109e-01
5.839722e-01
5.880234e-01
5.918650e-01
5.950933e-01
5.972686e-01
5.980391e-01
5.972686e-01
5.950933e-01
5.918650e-01
5.880234e-01
5.839722e-01
5.800109e-01
5.763238e-01
0.000000e+00
1.000000e+00
5.773192e-01
5.821107e-01
5.872583e-01
5.925229e-01
5.975150e-01
6.017101e-01
6.045369e-01
6.055381e-01
6.045369e-01
6.017101e-01
5.975150e-01
5.925229e-01
5.872583e-01
5.821107e-01
5.773192e-01
0.000000e+00
1.000000e+00
5.783952e-01
5.843803e-01
5.908102e-01
5.973863e-01
6.036220e-01
6.088622e-01
6.123932e-01
6.136438e-01
6.123932e-01
6.088622e-01
6.036220e-01
5.973863e-01
5.908102e-01
5.843803e-01
5.783952e-01
0.000000e+00
1.000000e+00
5.794987e-01
5.867080e-01
5.944531e-01
6.023742e-01
6.098854e-01
6.161973e-01
6.204506e-01
6.219570e-01
6.204506e-01
6.161973e-01
6.098854e-01
6.023742e-01
5.944531e-01
5.867080e-01
5.794987e-01
0.000000e+00
1.000000e+00
5.805630e-01
5.889528e-01
5.979663e-01
6.071846e-01
6.159259e-01
6.232715e-01
6.282213e-01
6.299744e-01
6.282213e-01
6.232715e-01
6.159259e-01
6.071846e-01
5.979663e-01
5.889528e-01
5.805630e-01
0.000000e+00
1.000000e+00
5.815137e-01
5.909582e-01
6.011048e-01
6.114819e-01
6.213221e-01
6.295911e-01
6.351631e-01
6.371366e-01
6.351631e-01
6.295911e-01
6.213221e-01
6.114819e-01
6.011048e-01
5.909582e-01
5.815137e-01
0.000000e+00
1.000000e+00
5.822785e-01
5.925714e-01
6.036293e-01
6.149386e-01
6.256627e-01
6.346744e-01
6.407470e-01
6.428977e-01
6.407470e-01
6.346744e-01
6.256627e-01
6.149386e-01
6.036293e-01
5.925714e-01
5.822785e-01
0.000000e+00
1.000000e+00
5.827969e-01
5.936648e-01
6.053406e-01
6.172818e-01
6.286049e-01
6.381202e-01
6.445321e-01
6.468029e-01
6.445321e-01
6.381202e-01
6.286049e-01
6.172818e-01
6.053406e-01
5.936648e-01
5.827969e-01
0.000000e+00
1.000000e+00
5.830293e-01
5.941552e-01
6.061081e-01
6.183326e-01
6.299245e-01
6.396655e-01
6.462295e-01
6.485543e-01
6.462295e-01
6.396655e-01
6.299245e-01
6.183326e-01
6.061081e-01
5.941552e-01
5.830293e-01
0.000000e+00
1.000000e+00
5.829621e-01
5.940134e-01
6.058862e-01
6.180288e-01
6.295430e-01
6.392188e-01
6.457388e-01
6.480480e-01
6.457388e-01
6.392188e-01
6.295430e-01
6.180288e-01
6.058862e-01
5.940134e-01
5.829621e-01
0.000000e+00
1.000000e+00
5.826072e-01
5.932648e-01
6.047146e-01
6.164246e-01
6.275286e-01
6.368597e-01
6.431475e-01
6.453744e-01
6.431475e-01
6.368597e-01
6.275286e-01
6.164246e-01
6.047146e-01
5.932648e-01
5.826072e-01
0.000000e+00
1.000000e+00
5.819980e-01
5.919798e-01
6.027035e-01
6.136709e-01
6.240707e-01
6.328101e-01
6.386991e-01
6.407848e-01
6.386991e-01
6.328101e-01
6.240707e-01
6.136709e-01
6.027035e-01
5.919798e-01
5.819980e-01
0.000000e+00
1.000000e+00
5.811820e-01
5.902585e-01
6.000097e-01
6.099825e-01
6.194393e-01
6.273861e-01
6.327410e-01
6.346376e-01
6.327410e-01
6.273861e-01
6.194393e-01
6.099825e-01
6.000097e-01
5.902585e-01
5.811820e-01
0.000000e+00
1.000000e+00
5.802131e-01
5.882149e-01
5.968114e-01
6.056033e-01
6.139402e-01
6.209460e-01
6.256668e-01
6.273388e-01
6.256668e-01
6.209460e-01
6.139402e-01
6.056033e-01
5.968114e-01
5.882149e-01
5.802131e-01
0.000000e+00
1.000000e+00
5.791448e-01
5.859615e-01
5.932848e-01
6.007746e-01
6.078768e-01
6.138450e-01
6.178666e-01
6.192910e-01
6.178666e-01
6.138450e-01
6.078768e-01
6.007746e-01
5.932848e-01
5.859615e-01
5.791448e-01
0.000000e+00
1.000000e+00
5.745545e-01
5.762790e-01
5.781317e-01
5.800264e-01
5.818231e-01
5.833330e-01
5.843504e-01
5.847107e-01
5.843504e-01
5.833330e-01
5.818231e-01
5.800264e-01
5.781317e-01
5.762790e-01
5.745545e-01
0.000000e+00
1.000000e+00
5.752452e-01
5.777358e-01
5.804116e-01
5.831482e-01
5.857432e-01
5.879238e-01
5.893932e-01
5.899137e-01
5.893932e-01
5.879238e-01
5.857432e-01
5.831482e-01
5.804116e-01
5.777358e-01
5.752452e-01
0.000000e+00
1.000000e+00
5.760704e-01
5.794765e-01
5.831358e-01
5.868782e-01
5.904270e-01
5.934092e-01
5.954187e-01
5.961304e-01
5.954187e-01
5.934092e-01
5.904270e-01
5.868782e-01
5.831358e-01
5.794765e-01
5.760704e-01
0.000000e+00
1.000000e+00
5.770115e-01
5.814615e-01
5.862423e-01
5.911318e-01
5.957682e-01
5.996644e-01
6.022898e-01
6.032197e-01
6.022898e-01
5.996644e-01
5.957682e-01
5.911318e-01
5.862423e-01
5.814615e-01
5.770115e-01
0.000000e+00
1.000000e+00
5.780334e-01
5.836170e-01
5.896157e-01
5.957507e-01
6.015683e-01
6.064570e-01
6.097512e-01
6.109179e-01
6.097512e-01
6.064570e-01
6.015683e-01
5.957507e-01
5.896157e-01
5.836170e-01
5.780334e-01
0.000000e+00
1.000000e+00
5.790843e-01
5.858339e-01
5.930851e-01
6.005012e-01
6.075334e-01
6.134429e-01
6.174250e-01
6.188353e-01
6.174250e-01
6.134429e-01
6.075334e-01
6.005012e-01
5.930851e-01
5.858339e-01
5.790843e-01
0.000000e+00
1.000000e+00
5.800986e-01
5.879733e-01
5.964333e-01
6.050856e-01
6.132901e-01
6.201847e-01
6.248306e-01
6.264760e-01
6.248306e-01
6.201847e-01
6.132901e-01
6.050856e-01
5.964333e-01
5.879733e-01
5.800986e-01
0.000000e+00
1.000000e+00
5.810026e-01
5.898800e-01
5.994174e-01
6.091715e-01
6.184208e-01
6.261934e-01
6.314309e-01
6.332858e-01
6.314309e-01
6.261934e-01
6.184208e-01
6.091715e-01
5.994174e-01
5.898800e-01
5.810026e-01
0.000000e+00
1.000000e+00
5.817243e-01
5.914025e-01
6.018000e-01
6.124339e-01
6.225174e-01
6.309910e-01
6.367008e-01
6.387231e-01
6.367008e-01
6.309910e-01
6.225174e-01
6.124339e-01
6.018000e-01
5.914025e-01
5.817243e-01
0.000000e+00
1.000000e+00
5.822041e-01
5.924144e-01
6.033837e-01
6.146023e-01
6.252403e-01
6.341799e-01
6.402037e-01
6.423372e-01
6.402037e-01
6.341799e-01
6.252403e-01
6.146023e-01
6.033837e-01
5.924144e-01
5.822041e-01
0.000000e+00
1.000000e+00
5.824030e-01
5.928341e-01
6.040405e-01
6.155016e-01
6.263696e-01
6.355024e-01
6.416564e-01
6.438360e-01
6.416564e-01
6.355024e-01
6.263696e-01
6.155016e-01
6.040405e-01
5.928341e-01
5.824030e-01
0.000000e+00
1.000000e+00
5.823084e-01
5.926345e-01
6.037282e-01
6.150740e-01
6.258326e-01
6.348735e-01
6.409656e-01
6.431233e-01
6.409656e-01
6.348735e-01
6.258326e-01
6.150740e-01
6.037282e-01
5.926345e-01
5.823084e-01
0.000000e+00
1.000000e+00
5.819333e-01
5.918433e-01
6.024899e-01
6.133785e-01
6.237036e-01
6.323802e-01
6.382268e-01
6.402975e-01
6.382268e-01
6.323802e-01
6.237036e-01
6.133785e-01
6.024899e-01
5.918433e-01
5.819333e-01
0.000000e+00
1.000000e+00
5.813120e-01
5.905328e-01
6.004390e-01
6.105703e-01
6.201773e-01
6.282504e-01
6.336905e-01
6.356172e-01
6.336905e-01
6.282504e-01
6.201773e-01
6.105703e-01
6.004390e-01
5.905328e-01
5.813120e-01
0.000000e+00
1.000000e+00
5.804926e-01
5.888045e-01
5.977341e-01
6.068667e-01
6.155267e-01
6.228040e-01
6.277078e-01
6.294445e-01
6.277078e-01
6.228040e-01
6.155267e-01
6.068667e-01
5.977341e-01
5.888045e-01
5.804926e-01
0.000000e+00
1.000000e+00
5.795291e-01
5.867720e-01
5.945533e-01
6.025114e-01
6.100577e-01
6.163992e-01
6.206723e-01
6.221857e-01
6.206723e-01
6.163992e-01
6.100577e-01
6.025114e-01
5.945533e-01
5.867720e-01
5.795291e-01
0.000000e+00
1.000000e+00
5.784743e-01
5.845470e-01
5.910711e-01
5.977436e-01
6.040707e-01
6.093876e-01
6.129704e-01
6.142393e-01
6.129704e-01
6.093876e-01
6.040707e-01
5.977436e-01
5.910711e-01
5.845470e-01
5.784743e-01
0.000000e+00
1.000000e+00
5.741751e-01
5.754787e-01
5.768792e-01
5.783116e-01
5.796698e-01
5.808111e-01
5.815802e-01
5.818526e-01
5.815802e-01
5.808111e-01
5.796698e-01
5.783116e-01
5.768792e-01
5.754787e-01
5.741751e-01
0.000000e+00
1.000000e+00
5.747960e-01
5.767883e-01
5.789287e-01
5.811177e-01
5.831935e-01
5.849378e-01
5.861132e-01
5.865295e-01
5.861132e-01
5.849378e-01
5.831935e-01
5.811177e-01
5.789287e-01
5.767883e-01
5.747960e-01
0.000000e+00
1.000000e+00
5.755481e-01
5.783748e-01
5.814116e-01
5.845174e-01
5.874625e-01
5.899374e-01
5.916051e-01
5.921957e-01
5.916051e-01
5.899374e-01
5.874625e-01
5.845174e-01
5.814116e-01
5.783748e-01
5.755481e-01
0.000000e+00
1.000000e+00
5.764151e-01
5.802035e-01
5.842735e-01
5.884360e-01
5.923831e-01
5.957000e-01
5.979350e-01
5.987266e-01
5.979350e-01
5.957000e-01
5.923831e-01
5.884360e-01
5.842735e-01
5.802035e-01
5.764151e-01
0.000000e+00
1.000000e+00
5.773645e-01
5.822061e-01
5.874076e-01
5.927273e-01
5.977717e-01
6.020108e-01
6.048672e-01
6.058788e-01
6.048672e-01
6.020108e-01
5.977717e-01
5.927273e-01
5.874076e-01
5.822061e-01
5.773645e-01
0.000000e+00
1.000000e+00
5.783475e-01
5.842797e-01
5.906528e-01
5.971708e-01
6.033515e-01
6.085453e-01
6.120452e-01
6.132847e-01
6.120452e-01
6.085453e-01
6.033515e-01
5.971708e-01
5.906528e-01
5.842797e-01
5.783475e-01
0.000000e+00
1.000000e+00
5.793014e-01
5.862916e-01
5.938015e-01
6.014821e-01
6.087652e-01
6.148854e-01
6.190095e-01
6.204701e-01
6.190095e-01
6.148854e-01
6.087652e-01
6.014821e-01
5.938015e-01
5.862916e-01
5.793014e-01
0.000000e+00
1.000000e+00
5.801549e-01
5.880921e-01
5.966193e-01
6.053403e-01
6.136100e-01
6.205593e-01
6.252420e-01
6.269005e-01
6.252420e-01
6.205593e-01
6.136100e-01
6.053403e-01
5.966193e-01
5.880921e-01
5.801549e-01
0.000000e+00
1.000000e+00
5.808384e-01
5.895337e-01
5.988754e-01
6.084294e-01
6.174890e-01
6.251021e-01
6.302322e-01
6.320491e-01
6.302322e-01
6.251021e-01
6.174890e-01
6.084294e-01
5.988754e-01
5.895337e-01
5.808384e-01
0.000000e+00
1.000000e+00
5.812931e-01
5.904930e-01
6.003767e-01
6.104850e-01
6.200702e-01
6.281250e-01
6.335526e-01
6.354750e-01
6.335526e-01
6.281250e-01
6.200702e-01
6.104850e-01
6.003767e-01
5.904930e-01
5.812931e-01
0.000000e+00
1.000000e+00
5.814810e-01
5.908892e-01
6.009967e-01
6.113339e-01
6.211362e-01
6.293734e-01
6.349240e-01
6.368899e-01
6.349240e-01
6.293734e-01
6.211362e-01
6.113339e-01
6.009967e-01
5.908892e-01
5.814810e-01
0.000000e+00
1.000000e+00
5.813888e-01
5.906948e-01
6.006925e-01
6.109175e-01
6.206132e-01
6.287609e-01
6.342513e-01
6.361957e-01
6.342513e-01
6.287609e-01
6.206132e-01
6.109175e-01
6.006925e-01
5.906948e-01
5.813888e-01
0.000000e+00
1.000000e+00
5.810289e-01
5.899357e-01
5.995044e-01
6.092907e-01
6.185705e-01
6.263686e-01
6.316234e-01
6.334845e-01
6.316234e-01
6.263686e-01
6.185705e-01
6.092907e-01
5.995044e-01
5.899357e-01
5.810289e-01
0.000000e+00
1.000000e+00
5.804341e-01
5.886810e-01
5.975410e-01
6.066022e-01
6.151946e-01
6.224150e-01
6.272805e-01
6.290037e-01
6.272805e-01
6.224150e-01
6.151946e-01
6.066022e-01
5.975410e-01
5.886810e-01
5.804341e-01
0.000000e+00
1.000000e+00
5.796508e-01
5.870287e-01
5.949549e-01
6.030614e-01
6.107483e-01
6.172079e-01
6.215607e-01
6.231023e-01
6.215607e-01
6.172079e-01
6.107483e-01
6.030614e-01
5.949549e-01
5.870287e-01
5.796508e-01
0.000000e+00
1.000000e+00
5.787307e-01
5.850879e-01
5.919177e-01
5.989027e-01
6.055262e-01
6.110922e-01
6.148428e-01