<?xml version="1.0"?>
<VTKFile type="StructuredGrid" version="0.1">
  <StructuredGrid WholeExtent="0 16 0 16 0 16">
    <Piece Extent="0 16 0 16 0 16">
      <PointData Scalars="temperature" Vectors="velocity">
        <DataArray type="Float32" Name="temperature" format="ascii">
1.000000e+00
5.729070e-01
5.722879e-01
5.719063e-01
5.714966e-01
5.711098e-01
5.707867e-01
5.705706e-01
5.704950e-01
5.705736e-01
5.707952e-01
5.711410e-01
5.715671e-01
5.720156e-01
5.724537e-01
5.721686e-01
0.000000e+00
1.000000e+00
5.720632e-01
5.706219e-01
5.692881e-01
5.679123e-01
5.666105e-01
5.655202e-01
5.647893e-01
5.645346e-01
5.648023e-01
5.655482e-01
5.666783e-01
5.680099e-01
5.694232e-01
5.708053e-01
5.713413e-01
0.000000e+00
1.000000e+00
5.710877e-01
5.686943e-01
5.662624e-01
5.637702e-01
5.614112e-01
5.594350e-01
5.581101e-01
5.576492e-01
5.581349e-01
5.594861e-01
5.615165e-01
5.638911e-01
5.664146e-01
5.688746e-01
5.704339e-01
0.000000e+00
1.000000e+00
5.700283e-01
5.665462e-01
5.628963e-01
5.591623e-01
5.556276e-01
5.526660e-01
5.506808e-01
5.499906e-01
5.507182e-01
5.527420e-01
5.557663e-01
5.593061e-01
5.630540e-01
5.667199e-01
5.694177e-01
0.000000e+00
1.000000e+00
5.689177e-01
5.642463e-01
5.592956e-01
5.542337e-01
5.494420e-01
5.454268e-01
5.427347e-01
5.417988e-01
5.427852e-01
5.455279e-01
5.496127e-01
5.544017e-01
5.594597e-01
5.644241e-01
5.683299e-01
0.000000e+00
1.000000e+00
5.677942e-01
5.618884e-01
5.556040e-01
5.491808e-01
5.431010e-01
5.380056e-01
5.345882e-01
5.333998e-01
5.346518e-01
5.381312e-01
5.433048e-01
5.493769e-01
5.557726e-01
5.620699e-01
5.672276e-01
0.000000e+00
1.000000e+00
5.667203e-01
5.595836e-01
5.519950e-01
5.442415e-01
5.369022e-01
5.307501e-01
5.266227e-01
5.251877e-01
5.267006e-01
5.308995e-01
5.371386e-01
5.444713e-01
5.521673e-01
5.597678e-01
5.661664e-01
0.000000e+00
1.000000e+00
5.657297e-01
5.574516e-01
5.486580e-01
5.396745e-01
5.311698e-01
5.240395e-01
5.192551e-01
5.175926e-01
5.193473e-01
5.242113e-01
5.314347e-01
5.399432e-01
5.488339e-01
5.576450e-01
5.651649e-01
0.000000e+00
1.000000e+00
5.648537e-01
5.556109e-01
5.457786e-01
5.357332e-01
5.262216e-01
5.182468e-01
5.128960e-01
5.110382e-01
5.130013e-01
5.184396e-01
5.265097e-01
5.360429e-01
5.459606e-01
5.558234e-01
5.642848e-01
0.000000e+00
1.000000e+00
5.641552e-01
5.541659e-01
5.435187e-01
5.326394e-01
5.223371e-01
5.136993e-01
5.079050e-01
5.058937e-01
5.080195e-01
5.139083e-01
5.226386e-01
5.329845e-01
5.437106e-01
5.543968e-01
5.635939e-01
0.000000e+00
1.000000e+00
5.636476e-01
5.531923e-01
5.419981e-01
5.305577e-01
5.197245e-01
5.106414e-01
5.045487e-01
5.024332e-01
5.046682e-01
5.108601e-01
5.200304e-01
5.309253e-01
5.422161e-01
5.534241e-01
5.631145e-01
0.000000e+00
1.000000e+00
5.633760e-01
5.527366e-01
5.412858e-01
5.295826e-01
5.185001e-01
5.092077e-01
5.029741e-01
5.008092e-01
5.030951e-01
5.094284e-01
5.187996e-01
5.299504e-01
5.415411e-01
5.529509e-01
5.629222e-01
0.000000e+00
1.000000e+00
5.633698e-01
5.528069e-01
5.413917e-01
5.297268e-01
5.186800e-01
5.094171e-01
5.032028e-01
5.010439e-01
5.033215e-01
5.096329e-01
5.189663e-01
5.300782e-01
5.416736e-01
5.530047e-01
5.629660e-01
0.000000e+00
1.000000e+00
5.636192e-01
5.533732e-01
5.422723e-01
5.309309e-01
5.201899e-01
5.111827e-01
5.051393e-01
5.030388e-01
5.052517e-01
5.113860e-01
5.204561e-01
5.312635e-01
5.425405e-01
5.535642e-01
5.632427e-01
0.000000e+00
1.000000e+00
5.640909e-01
5.543774e-01
5.438399e-01
5.330764e-01
5.228818e-01
5.143322e-01
5.085949e-01
5.065997e-01
5.086983e-01
5.145181e-01
5.231236e-01
5.333950e-01
5.440862e-01
5.545763e-01
5.637370e-01
0.000000e+00
1.000000e+00
5.647253e-01
5.557406e-01
5.459772e-01
5.360029e-01
5.265557e-01
5.186327e-01
5.133158e-01
5.114666e-01
5.134110e-01
5.188027e-01
5.267687e-01
5.363181e-01
5.462245e-01
5.559684e-01
5.644000e-01
0.000000e+00
1.000000e+00
5.653536e-01
5.574017e-01
5.485601e-01
5.395393e-01
5.309953e-01
5.238299e-01
5.190217e-01
5.173501e-01
5.191096e-01
5.239859e-01
5.311836e-01
5.398427e-01
5.487998e-01
5.576018e-01
5.649481e-01
0.000000e+00
1.000000e+00
5.722541e-01
5.710017e-01
5.698879e-01
5.687329e-01
5.676394e-01
5.667227e-01
5.661069e-01
5.658913e-01
5.661147e-01
5.667413e-01
5.676862e-01
5.688008e-01
5.699827e-01
5.711537e-01
5.716164e-01
0.000000e+00
1.000000e+00
5.713990e-01
5.692932e-01
5.672067e-01
5.650625e-01
5.630325e-01
5.613305e-01
5.601878e-01
5.597888e-01
5.602064e-01
5.613709e-01
5.631100e-01
5.651549e-01
5.673291e-01
5.694565e-01
5.707292e-01
0.000000e+00
1.000000e+00
5.704049e-01
5.673188e-01
5.641106e-01
5.608246e-01
5.577134e-01
5.551051e-01
5.533546e-01
5.527444e-01
5.533858e-01
5.551700e-01
5.578220e-01
5.609414e-01
5.642499e-01
5.674891e-01
5.698071e-01
0.000000e+00
1.000000e+00
5.693380e-01
5.651238e-01
5.606716e-01
5.561174e-01
5.518056e-01
5.481908e-01
5.457650e-01
5.449205e-01
5.458095e-01
5.482801e-01
5.519443e-01
5.562587e-01
5.608236e-01
5.652972e-01
5.687563e-01
0.000000e+00
1.000000e+00
5.682261e-01
5.627817e-01
5.570043e-01
5.510980e-01
5.455063e-01
5.408182e-01
5.376719e-01
5.365775e-01
5.377308e-01
5.409326e-01
5.456786e-01
5.512660e-01
5.571697e-01
5.629664e-01
5.676479e-01
0.000000e+00
1.000000e+00
5.670917e-01
5.603930e-01
5.532646e-01
5.459799e-01
5.390830e-01
5.332999e-01
5.294187e-01
5.280697e-01
5.294925e-01
5.334399e-01
5.392911e-01
5.461804e-01
5.534403e-01
5.605859e-01
5.665269e-01
0.000000e+00
1.000000e+00
5.659984e-01
5.580793e-01
5.496414e-01
5.410207e-01
5.328582e-01
5.260134e-01
5.214208e-01
5.198256e-01
5.215100e-01
5.261788e-01
5.331019e-01
5.412598e-01
5.498280e-01
5.582857e-01
5.654660e-01
0.000000e+00
1.000000e+00
5.649892e-01
5.559697e-01
5.463390e-01
5.364993e-01
5.271828e-01
5.193705e-01
5.141298e-01
5.123112e-01
5.142336e-01
5.195601e-01
5.274575e-01
5.367822e-01
5.465372e-01
5.561937e-01
5.644944e-01
0.000000e+00
1.000000e+00
5.641013e-01
5.541900e-01
5.435557e-01
5.326886e-01
5.223992e-01
5.137733e-01
5.079873e-01
5.059795e-01
5.081023e-01
5.139830e-01
5.226976e-01
5.330130e-01
5.437694e-01
5.544526e-01
5.636650e-01
0.000000e+00
1.000000e+00
5.634078e-01
5.528521e-01
5.414630e-01
5.298242e-01
5.188042e-01
5.095655e-01
5.033691e-01
5.012184e-01
5.034918e-01
5.097895e-01
5.191129e-01
5.301818e-01
5.416950e-01
5.531448e-01
5.630400e-01
0.000000e+00
1.000000e+00
5.629957e-01
5.520339e-01
5.401835e-01
5.280722e-01
5.166048e-01
5.069911e-01
5.005430e-01
4.983047e-01
5.006700e-01
5.072227e-01
5.169137e-01
5.284434e-01
5.404474e-01
5.522956e-01
5.625490e-01
0.000000e+00
1.000000e+00
5.628242e-01
5.517740e-01
5.397764e-01
5.275148e-01
5.159042e-01
5.061700e-01
4.996409e-01
4.973742e-01
4.997686e-01
5.064020e-01
5.162022e-01
5.278782e-01
5.400842e-01
5.519891e-01
5.624824e-01
0.000000e+00
1.000000e+00
5.629306e-01
5.520734e-01
5.402381e-01
5.281458e-01
5.166945e-01
5.070933e-01
5.006529e-01
4.984162e-01
5.007767e-01
5.073169e-01
5.169735e-01
5.284920e-01
5.405538e-01
5.522657e-01
5.626456e-01
0.000000e+00
1.000000e+00
5.633050e-01
5.528879e-01
5.415050e-01
5.298788e-01
5.188679e-01
5.096350e-01
5.034409e-01
5.012888e-01
5.035570e-01
5.098433e-01
5.191240e-01
5.302185e-01
5.417723e-01
5.530597e-01
5.630434e-01
0.000000e+00
1.000000e+00
5.639008e-01
5.541459e-01
5.434682e-01
5.325662e-01
5.222402e-01
5.135806e-01
5.077703e-01
5.057505e-01
5.078763e-01
5.137694e-01
5.224739e-01
5.328932e-01
5.436989e-01
5.543124e-01
5.636607e-01
0.000000e+00
1.000000e+00
5.646741e-01
5.557624e-01
5.459950e-01
5.360256e-01
5.265827e-01
5.186629e-01
5.133482e-01
5.114999e-01
5.134431e-01
5.188309e-01
5.267888e-01
5.363323e-01
5.462229e-01
5.559405e-01
5.644044e-01
0.000000e+00
1.000000e+00
5.656290e-01
5.576511e-01
5.489482e-01
5.400689e-01
5.316581e-01
5.246032e-01
5.198676e-01
5.182190e-01
5.199481e-01
5.247460e-01
5.318313e-01
5.403489e-01
5.491718e-01
5.578115e-01
5.651983e-01
0.000000e+00
1.000000e+00
5.717336e-01
5.699387e-01
5.682204e-01
5.664498e-01
5.647726e-01
5.633654e-01
5.624197e-01
5.620890e-01
5.624332e-01
5.633943e-01
5.648251e-01
5.665133e-01
5.683076e-01
5.700730e-01
5.711038e-01
0.000000e+00
1.000000e+00
5.708872e-01
5.682077e-01
5.655054e-01
5.627332e-01
5.601076e-01
5.579050e-01
5.564258e-01
5.559099e-01
5.564504e-01
5.579542e-01
5.601831e-01
5.628170e-01
5.656146e-01
5.683484e-01
5.702267e-01
0.000000e+00
1.000000e+00
5.699024e-01
5.662071e-01
5.623703e-01
5.584421e-01
5.547218e-01
5.516014e-01
5.495068e-01
5.487776e-01
5.495447e-01
5.516750e-01
5.548265e-01
5.585475e-01
5.624917e-01
5.663466e-01
5.692786e-01
0.000000e+00
1.000000e+00
5.688372e-01
5.639863e-01
5.588905e-01
5.536795e-01
5.487446e-01
5.446055e-01
5.418276e-01
5.408617e-01
5.418798e-01
5.447047e-01
5.488815e-01
5.538112e-01
5.590301e-01
5.641378e-01
5.682027e-01
0.000000e+00
1.000000e+00
5.677317e-01
5.616238e-01
5.551887e-01
5.486131e-01
5.423860e-01
5.371632e-01
5.336586e-01
5.324408e-01
5.337255e-01
5.372895e-01
5.425604e-01
5.487730e-01
5.553428e-01
5.617960e-01
5.670759e-01
0.000000e+00
1.000000e+00
5.666008e-01
5.592245e-01
5.514314e-01
5.434706e-01
5.359317e-01
5.296094e-01
5.253676e-01
5.238947e-01
5.254497e-01
5.297633e-01
5.361471e-01
5.436670e-01
5.515978e-01
5.594155e-01
5.659382e-01
0.000000e+00
1.000000e+00
5.654916e-01
5.569172e-01
5.478201e-01
5.385279e-01
5.297286e-01
5.223504e-01
5.174011e-01
5.156830e-01
5.174976e-01
5.225306e-01
5.299850e-01
5.387678e-01
5.480020e-01
5.571385e-01
5.648683e-01
0.000000e+00
1.000000e+00
5.644590e-01
5.548422e-01
5.445744e-01
5.340856e-01
5.241547e-01
5.158278e-01
5.102426e-01
5.083034e-01
5.103514e-01
5.160306e-01
5.244439e-01
5.343722e-01
5.447714e-01
5.550925e-01
5.639267e-01
0.000000e+00
1.000000e+00
5.636357e-01
5.531362e-01
5.419078e-01
5.304351e-01
5.195730e-01
5.104664e-01
5.043580e-01
5.022370e-01
5.044768e-01
5.106872e-01
5.198845e-01
5.307615e-01
5.421205e-01
5.534663e-01
5.631571e-01
0.000000e+00
1.000000e+00
5.630285e-01
5.519121e-01
5.399964e-01
5.278180e-01
5.162882e-01
5.066223e-01
5.001388e-01
4.978876e-01
5.002649e-01
5.068565e-01
5.166105e-01
5.281756e-01
5.402283e-01
5.522994e-01
5.625712e-01
0.000000e+00
1.000000e+00
5.626657e-01
5.512502e-01
5.389625e-01
5.264011e-01
5.145086e-01
5.045390e-01
4.978521e-01
4.955302e-01
4.979823e-01
5.047800e-01
5.148297e-01
5.267644e-01
5.392396e-01
5.515870e-01
5.621255e-01
0.000000e+00
1.000000e+00
5.625734e-01
5.511835e-01
5.388567e-01
5.262549e-01
5.143230e-01
5.043203e-01
4.976113e-01
4.952815e-01
4.977410e-01
5.045591e-01
5.146295e-01
5.266055e-01
5.391661e-01
5.514474e-01
5.621515e-01
0.000000e+00
1.000000e+00
5.627721e-01
5.517011e-01
5.396589e-01
5.273516e-01
5.156972e-01
5.059263e-01
4.993724e-01
4.970958e-01
4.994970e-01
5.061533e-01
5.159804e-01
5.276889e-01
5.399621e-01
5.519219e-01
5.624348e-01
0.000000e+00
1.000000e+00
5.632561e-01
5.527472e-01
5.412862e-01
5.295780e-01
5.184896e-01
5.091921e-01
5.029549e-01
5.007876e-01
5.030706e-01
5.094005e-01
5.187476e-01
5.299070e-01
5.415627e-01
5.529098e-01
5.629623e-01
0.000000e+00
1.000000e+00
5.639582e-01
5.542356e-01
5.436097e-01
5.327587e-01
5.224810e-01
5.138622e-01
5.080794e-01
5.060692e-01
5.081843e-01
5.140491e-01
5.227173e-01
5.330674e-01
5.438593e-01
5.543945e-01
5.636754e-01
0.000000e+00
1.000000e+00
5.648299e-01
5.560729e-01
5.464794e-01
5.366880e-01
5.274131e-01
5.196342e-01
5.144140e-01
5.125985e-01
5.145070e-01
5.197982e-01
5.276201e-01
5.369747e-01
5.467227e-01
5.562151e-01
5.645537e-01
0.000000e+00
1.000000e+00
5.658728e-01
5.581548e-01
5.497381e-01
5.411502e-01
5.330155e-01
5.261926e-01
5.216137e-01
5.200209e-01
5.216957e-01
5.263382e-01
5.331968e-01
5.414281e-01
5.499714e-01
5.582577e-01
5.658301e-01
0.000000e+00
1.000000e+00
5.713662e-01
5.691771e-01
5.670271e-01
5.648164e-01
5.627221e-01
5.609647e-01
5.597837e-01
5.593707e-01
5.598000e-01
5.609979e-01
5.627720e-01
5.648720e-01
5.670965e-01
5.692898e-01
5.707240e-01
0.000000e+00
1.000000e+00
5.705514e-01
5.674515e-01
5.643185e-01
5.611087e-01
5.580682e-01
5.555176e-01
5.538049e-01
5.532073e-01
5.538317e-01
5.555696e-01
5.581391e-01
5.611834e-01
5.644075e-01
5.675759e-01
5.698494e-01
0.000000e+00
1.000000e+00
5.695962e-01
5.654554e-01
5.611878e-01
5.568234e-01
5.526895e-01
5.492222e-01
5.468952e-01
5.460851e-01
5.469358e-01
5.492992e-01
5.527896e-01
5.569200e-01
5.612930e-01
5.655896e-01
5.689248e-01
0.000000e+00
1.000000e+00
5.685483e-01
5.632402e-01
5.577117e-01
5.520657e-01
5.467182e-01
5.422334e-01
5.392242e-01
5.381780e-01
5.392795e-01
5.423376e-01
5.468529e-01
5.521895e-01
5.578366e-01
5.633936e-01
5.678471e-01
0.000000e+00
1.000000e+00
5.674630e-01
5.608887e-01
5.540183e-01
5.470106e-01
5.403739e-01
5.348084e-01
5.310749e-01
5.297775e-01
5.311451e-01
5.349415e-01
5.405499e-01
5.471653e-01
5.541609e-01
5.610682e-01
5.667189e-01
0.000000e+00
1.000000e+00
5.663467e-01
5.585082e-01
5.502823e-01
5.418983e-01
5.339586e-01
5.273008e-01
5.228346e-01
5.212831e-01
5.229195e-01
5.274619e-01
5.341784e-01
5.420932e-01
5.504418e-01
5.587095e-01
5.655757e-01
0.000000e+00
1.000000e+00
5.652820e-01
5.562329e-01
5.467178e-01
5.370213e-01
5.278388e-01
5.201391e-01
5.149738e-01
5.131797e-01
5.150727e-01
5.203256e-01
5.281003e-01
5.372606e-01
5.468970e-01
5.564707e-01
5.644944e-01
0.000000e+00
1.000000e+00
5.643250e-01
5.542086e-01
5.435565e-01
5.326952e-01
5.224106e-01
5.137870e-01
5.080018e-01
5.059924e-01
5.081128e-01
5.139958e-01
5.227060e-01
5.329813e-01
5.437538e-01
5.544800e-01
5.635498e-01
0.000000e+00
1.000000e+00
5.634939e-01
5.525781e-01
5.410203e-01
5.292232e-01
5.180538e-01
5.086890e-01
5.024069e-01
5.002247e-01
5.025275e-01
5.089159e-01
5.183734e-01
5.295498e-01
5.412380e-01
5.529242e-01
5.627866e-01
0.000000e+00
1.000000e+00
5.628743e-01
5.514653e-01
5.392925e-01
5.268561e-01
5.150826e-01
5.052122e-01
4.985913e-01
4.962916e-01
4.987190e-01
5.054524e-01
5.154151e-01
5.272152e-01
5.395314e-01
5.518423e-01
5.622042e-01
0.000000e+00
1.000000e+00
5.625538e-01
5.509512e-01
5.384929e-01
5.257583e-01
5.137027e-01
5.035968e-01
4.968182e-01
4.944640e-01
4.969495e-01
5.038424e-01
5.140345e-01
5.261211e-01
5.387729e-01
5.512516e-01
5.619474e-01
0.000000e+00
1.000000e+00
5.625413e-01
5.510596e-01
5.386624e-01
5.259878e-01
5.139877e-01
5.039283e-01
4.971812e-01
4.948379e-01
4.973111e-01
5.041692e-01
5.143034e-01
5.263323e-01
5.389622e-01
5.512990e-01
5.621241e-01
0.000000e+00
1.000000e+00
5.628230e-01
5.517677e-01
5.397648e-01
5.274956e-01
5.158774e-01
5.061372e-01
4.996039e-01
4.973343e-01
4.997275e-01
5.063634e-01
5.161677e-01
5.278181e-01
5.400679e-01
5.519754e-01
5.625336e-01
0.000000e+00
1.000000e+00
5.633896e-01
5.530102e-01
5.416999e-01
5.301437e-01
5.191992e-01
5.100224e-01
5.038665e-01
5.017272e-01
5.039802e-01
5.102279e-01
5.194617e-01
5.304505e-01
5.419858e-01
5.531584e-01
5.631873e-01
0.000000e+00
1.000000e+00
5.641796e-01
5.546897e-01
5.443217e-01
5.337330e-01
5.237035e-01
5.152927e-01
5.096496e-01
5.076882e-01
5.097522e-01
5.154752e-01
5.239397e-01
5.340219e-01
5.445786e-01
5.548259e-01
5.639971e-01
0.000000e+00
1.000000e+00
5.651355e-01
5.567023e-01
5.474649e-01
5.380366e-01
5.291056e-01
5.216148e-01
5.165881e-01
5.148403e-01
5.166784e-01
5.217736e-01
5.293065e-01
5.383139e-01
5.477092e-01
5.568080e-01
5.651015e-01
0.000000e+00
1.000000e+00
5.662552e-01
5.589358e-01
5.509608e-01
5.428236e-01
5.351155e-01
5.286506e-01
5.243119e-01
5.228031e-01
5.243908e-01
5.287906e-01
5.352884e-01
5.430974e-01
5.511890e-01
5.590295e-01
5.666082e-01
0.000000e+00
1.000000e+00
5.711929e-01
5.687955e-01
5.664273e-01
5.639943e-01
5.616891e-01
5.597544e-01
5.584538e-01
5.579983e-01
5.584695e-01
5.597856e-01
5.617315e-01
5.640396e-01
5.664807e-01
5.688860e-01
5.705456e-01
0.000000e+00
1.000000e+00
5.704160e-01
5.671106e-01
5.637766e-01
5.603664e-01
5.571360e-01
5.544259e-01
5.526055e-01
5.519696e-01
5.526316e-01
5.544759e-01
5.572001e-01
5.604314e-01
5.638510e-01
5.672360e-01
5.696468e-01
0.000000e+00
1.000000e+00
5.695212e-01
5.651593e-01
5.607042e-01
5.561613e-01
5.518584e-01
5.482496e-01
5.458271e-01
5.449829e-01
5.458670e-01
5.483250e-01
5.519529e-01
5.562502e-01
5.607991e-01
5.652967e-01
5.687793e-01
0.000000e+00
1.000000e+00
5.685624e-01
5.629921e-01
5.572869e-01
5.514845e-01
5.459890e-01
5.413804e-01
5.382878e-01
5.372117e-01
5.383426e-01
5.414840e-01
5.461197e-01
5.516016e-01
5.574042e-01
5.631297e-01
5.677261e-01
0.000000e+00
1.000000e+00
5.675883e-01
5.606911e-01
5.536559e-01
5.465152e-01
5.397524e-01
5.340812e-01
5.302764e-01
5.289536e-01
5.303465e-01
5.342146e-01
5.399256e-01
5.466632e-01
5.537918e-01
5.608338e-01
5.666010e-01
0.000000e+00
1.000000e+00
5.665605e-01
5.583591e-01
5.499906e-01
5.415000e-01
5.334586e-01
5.267154e-01
5.221916e-01
5.206197e-01
5.222767e-01
5.268775e-01
5.336769e-01
5.416878e-01
5.501464e-01
5.585054e-01
5.654960e-01
0.000000e+00
1.000000e+00
5.654467e-01
5.561275e-01
5.465115e-01
5.367400e-01
5.274860e-01
5.197261e-01
5.145202e-01
5.127117e-01
5.146193e-01
5.199141e-01
5.277481e-01
5.369716e-01
5.466878e-01
5.562935e-01
5.644788e-01
0.000000e+00
1.000000e+00
5.643943e-01
5.541590e-01
5.434589e-01
5.325627e-01
5.222449e-01
5.135933e-01
5.077892e-01
5.057731e-01
5.079003e-01
5.138038e-01
5.225435e-01
5.328417e-01
5.436533e-01
5.543415e-01
5.635949e-01
0.000000e+00
1.000000e+00
5.635437e-01
5.526101e-01
5.410621e-01
5.292810e-01
5.181270e-01
5.087752e-01
5.025015e-01
5.003223e-01
5.026219e-01
5.090031e-01
5.184518e-01
5.296019e-01
5.412749e-01
5.528278e-01
5.628701e-01
0.000000e+00
1.000000e+00
5.629617e-01
5.516050e-01
5.395071e-01
5.271497e-01
5.154514e-01
5.056443e-01
4.990657e-01
4.967807e-01
4.991925e-01
5.058840e-01
5.157903e-01
5.275042e-01
5.397345e-01
5.518438e-01
5.624087e-01
0.000000e+00
1.000000e+00
5.626987e-01
5.512193e-01
5.389106e-01
5.263295e-01
5.144195e-01
5.044356e-01
4.977390e-01
4.954132e-01
4.978683e-01
5.046786e-01
5.147580e-01
5.266880e-01
5.391731e-01
5.514203e-01
5.623097e-01
0.000000e+00
1.000000e+00
5.627535e-01
5.514707e-01
5.393049e-01
5.268666e-01
5.150902e-01
5.052183e-01
4.985969e-01
4.962972e-01
4.987238e-01
5.054539e-01
5.154117e-01
5.272019e-01
5.396032e-01
5.516454e-01
5.624993e-01
0.000000e+00
1.000000e+00
5.631084e-01
5.523274e-01
5.406412e-01
5.286946e-01
5.173817e-01
5.078973e-01
5.015356e-01
4.993255e-01
5.016553e-01
5.081163e-01
5.176733e-01
5.290083e-01
5.409347e-01
5.524797e-01
5.629252e-01
0.000000e+00
1.000000e+00
5.637351e-01
5.537148e-01
5.428048e-01
5.316559e-01
5.210968e-01
5.122430e-01
5.063034e-01
5.042393e-01
5.064128e-01
5.124402e-01
5.213508e-01
5.319656e-01
5.430729e-01
5.538460e-01
5.636492e-01
0.000000e+00
1.000000e+00
5.645861e-01
5.555293e-01
5.456368e-01
5.355330e-01
5.259625e-01
5.179364e-01
5.125514e-01
5.106795e-01
5.126489e-01
5.181098e-01
5.261797e-01
5.358284e-01
5.458883e-01
5.556552e-01
5.645125e-01
0.000000e+00
1.000000e+00
5.656018e-01
5.576581e-01
5.489613e-01
5.400847e-01
5.316760e-01
5.246231e-01
5.198900e-01
5.182443e-01
5.199748e-01
5.247720e-01
5.318545e-01
5.403607e-01
5.491994e-01
5.577636e-01
5.657002e-01
0.000000e+00
1.000000e+00
5.667637e-01
5.599838e-01
5.526019e-01
5.450697e-01
5.379347e-01
5.319500e-01
5.279337e-01
5.265371e-01
5.280069e-01
5.320804e-01
5.380891e-01
5.453336e-01
5.528183e-01
5.601109e-01
5.668989e-01
0.000000e+00
1.000000e+00
5.713272e-01
5.688570e-01
5.665103e-01
5.641083e-01
5.618321e-01
5.599215e-01
5.586368e-01
5.581863e-01
5.586504e-01
5.599488e-01
5.618683e-01
5.641469e-01
5.665560e-01
5.688975e-01
5.707188e-01
0.000000e+00
1.000000e+00
5.706217e-01
5.672534e-01
5.639803e-01
5.606455e-01
5.574864e-01
5.548359e-01
5.530553e-01
5.524329e-01
5.530797e-01
5.548825e-01
5.575451e-01
5.607042e-01
5.640464e-01
5.673623e-01
5.696419e-01
0.000000e+00
1.000000e+00
5.697605e-01
5.653812e-01
5.610310e-01
5.566089e-01
5.524204e-01
5.489074e-01
5.465493e-01
5.457273e-01
5.465876e-01
5.489799e-01
5.525099e-01
5.566933e-01
5.611231e-01
5.654937e-01
5.689647e-01
0.000000e+00
1.000000e+00
5.687653e-01
5.632854e-01
5.577377e-01
5.521016e-01
5.467637e-01
5.422874e-01
5.392838e-01
5.382388e-01
5.393374e-01
5.423888e-01
5.468899e-01
5.522137e-01
5.578531e-01
5.633838e-01
5.679453e-01
0.000000e+00
1.000000e+00
5.676663e-01
5.610470e-01
5.542301e-01
5.473009e-01
5.407388e-01
5.352362e-01
5.315448e-01
5.302619e-01
5.316140e-01
5.353680e-01
5.409081e-01
5.474432e-01
5.543663e-01
5.611586e-01
5.668855e-01
0.000000e+00
1.000000e+00
5.665312e-01
5.587794e-01
5.506882e-01
5.424540e-01
5.346564e-01
5.281182e-01
5.237323e-01
5.222089e-01
5.238165e-01
5.282791e-01
5.348722e-01
5.426335e-01
5.508430e-01
5.588953e-01
5.658902e-01
0.000000e+00
1.000000e+00
5.654463e-01
5.566274e-01
5.473350e-01
5.378657e-01
5.288992e-01
5.213810e-01
5.163377e-01
5.145865e-01
5.164356e-01
5.215675e-01
5.291606e-01
5.380861e-01
5.475072e-01
5.567576e-01
5.649105e-01
0.000000e+00
1.000000e+00
5.645248e-01
5.547528e-01
5.444144e-01
5.338680e-01
5.238828e-01
5.155109e-01
5.098951e-01
5.079451e-01
5.100044e-01
5.157187e-01
5.241820e-01
5.341320e-01
5.446002e-01
5.548910e-01
5.640280e-01
0.000000e+00
1.000000e+00
5.638017e-01
5.533030e-01
5.421571e-01
5.307770e-01
5.200035e-01
5.109714e-01
5.049128e-01
5.028089e-01
5.050305e-01
5.111944e-01
5.203292e-01
5.310790e-01
5.423546e-01
5.534703e-01
5.633165e-01
0.000000e+00
1.000000e+00
5.633208e-01
5.523977e-01
5.407490e-01
5.288475e-01
5.175807e-01
5.081356e-01
5.018004e-01
4.996003e-01
5.019232e-01
5.083674e-01
5.179192e-01
5.291756e-01
5.409594e-01
5.525710e-01
5.629387e-01
0.000000e+00
1.000000e+00
5.631233e-01
5.521103e-01
5.403040e-01
5.282358e-01
5.168105e-01
5.072330e-01
5.008092e-01
4.985782e-01
5.009330e-01
5.074650e-01
5.171476e-01
5.285667e-01
5.405435e-01
5.522661e-01
5.628701e-01
0.000000e+00
1.000000e+00
5.632341e-01
5.524590e-01
5.408493e-01
5.289800e-01
5.177416e-01
5.083204e-01
5.020013e-01
4.998065e-01
5.021217e-01
5.085433e-01
5.180581e-01
5.293020e-01
5.411119e-01
5.526016e-01
5.630217e-01
0.000000e+00
1.000000e+00
5.636435e-01
5.534061e-01
5.423280e-01
5.310028e-01
5.202780e-01
5.112863e-01
5.052547e-01
5.031591e-01
5.053674e-01
5.114919e-01
5.205560e-01
5.313285e-01
5.425850e-01
5.535432e-01
5.634774e-01
0.000000e+00
1.000000e+00
5.643052e-01
5.548713e-01
5.446158e-01
5.341347e-01
5.242075e-01
5.158831e-01
5.102983e-01
5.083572e-01
5.104002e-01
5.160666e-01
5.244380e-01
5.344600e-01
5.448585e-01
5.550066e-01
5.642191e-01
0.000000e+00
1.000000e+00
5.651779e-01
5.567487e-01
5.475471e-01
5.381480e-01
5.292444e-01
5.217772e-01
5.167666e-01
5.150243e-01
5.168562e-01
5.219361e-01
5.294328e-01
5.384452e-01
5.477820e-01
5.568852e-01
5.650821e-01
0.000000e+00
1.000000e+00
5.662105e-01
5.589222e-01
5.509409e-01
5.427945e-01
5.350769e-01
5.286033e-01
5.242587e-01
5.227474e-01
5.243353e-01
5.287379e-01
5.352304e-01
5.430541e-01
5.511651e-01
5.590496e-01
5.662485e-01
0.000000e+00
1.000000e+00
5.673876e-01
5.612717e-01
5.546183e-01
5.478297e-01
5.413986e-01
5.360040e-01
5.323834e-01
5.311242e-01
5.324486e-01
5.361205e-01
5.415334e-01
5.480732e-01
5.548250e-01
5.614195e-01
5.671641e-01
0.000000e+00
1.000000e+00
5.715706e-01
5.693819e-01
5.673371e-01
5.652402e-01
5.632532e-01
5.615853e-01
5.604634e-01
5.600692e-01
5.604734e-01
5.616066e-01
5.632843e-01
5.652758e-01
5.673891e-01
5.693758e-01
5.712277e-01
0.000000e+00
1.000000e+00
5.708327e-01
5.678903e-01
5.649936e-01
5.620320e-01
5.592267e-01
5.568734e-01
5.552926e-01
5.547399e-01
5.553140e-01
5.569155e-01
5.592818e-01
5.620874e-01
5.650604e-01
5.679796e-01
5.698202e-01
0.000000e+00
1.000000e+00
5.699475e-01
5.661307e-01
5.622343e-01
5.582556e-01
5.544873e-01
5.513275e-01
5.492071e-01
5.484686e-01
5.492432e-01
5.513968e-01
5.545749e-01
5.583389e-01
5.623330e-01
5.662394e-01
5.694424e-01
0.000000e+00
1.000000e+00
5.689838e-01
5.641509e-01
5.591327e-01
5.540106e-01
5.491595e-01
5.450917e-01
5.423635e-01
5.414156e-01
5.424156e-01
5.451901e-01
5.492831e-01
5.541200e-01
5.592548e-01
5.642499e-01
5.684418e-01
0.000000e+00
1.000000e+00
5.679852e-01
5.620304e-01
5.558120e-01
5.494654e-01
5.434554e-01
5.384151e-01
5.350351e-01
5.338622e-01
5.351028e-01
5.385431e-01
5.436196e-01
5.496022e-01
5.559552e-01
5.621497e-01
5.674239e-01
0.000000e+00
1.000000e+00
5.669597e-01
5.598800e-01
5.524473e-01
5.448605e-01
5.376764e-01
5.316515e-01
5.276113e-01
5.262098e-01
5.276933e-01
5.318075e-01
5.378850e-01
5.450279e-01
5.526069e-01
5.600036e-01
5.664693e-01
0.000000e+00
1.000000e+00
5.659657e-01
5.578399e-01
5.492578e-01
5.404950e-01
5.321978e-01
5.252401e-01
5.205746e-01
5.189562e-01
5.206692e-01
5.254204e-01
5.324511e-01
5.406967e-01
5.494310e-01
5.579781e-01
5.654521e-01
0.000000e+00
1.000000e+00
5.650783e-01
5.560647e-01
5.464836e-01
5.366968e-01
5.274309e-01
5.196627e-01
5.144530e-01
5.126455e-01
5.145578e-01
5.198616e-01
5.277222e-01
5.369355e-01
5.466680e-01
5.562179e-01
5.645882e-01
0.000000e+00
1.000000e+00
5.643809e-01
5.547014e-01
5.443538e-01
5.337805e-01
5.237700e-01
5.153785e-01
5.097505e-01
5.077973e-01
5.098625e-01
5.155898e-01
5.240875e-01
5.340491e-01
5.445472e-01
5.548745e-01
5.639304e-01
0.000000e+00
1.000000e+00
5.639726e-01
5.538683e-01
5.430520e-01
5.319972e-01
5.215310e-01
5.127573e-01
5.068728e-01
5.048302e-01
5.069883e-01
5.129738e-01
5.218595e-01
5.322847e-01
5.432605e-01
5.540433e-01
5.636136e-01
0.000000e+00
1.000000e+00
5.638371e-01
5.536361e-01
5.426900e-01
5.315004e-01
5.209056e-01
5.120239e-01
5.060668e-01
5.039984e-01
5.061819e-01
5.122379e-01
5.212290e-01
5.317959e-01
5.429130e-01
5.538052e-01
5.635538e-01
0.000000e+00
1.000000e+00
5.639872e-01
5.540222e-01
5.432932e-01
5.323247e-01
5.219381e-01
5.132302e-01
5.073893e-01
5.053604e-01
5.074998e-01
5.134338e-01
5.222345e-01
5.326360e-01
5.435202e-01
5.541840e-01
5.637254e-01
0.000000e+00
1.000000e+00
5.644142e-01
5.549882e-01
5.448026e-01
5.343901e-01
5.245285e-01
5.162597e-01
5.107127e-01
5.087850e-01
5.108151e-01
5.164459e-01
5.247809e-01
5.347142e-01
5.450251e-01
5.551416e-01
5.642039e-01
0.000000e+00
1.000000e+00
5.650782e-01
5.564539e-01
5.470927e-01
5.375250e-01
5.284623e-01
5.208621e-01
5.157626e-01
5.139894e-01
5.158538e-01
5.210260e-01
5.286662e-01
5.378384e-01
5.473053e-01
5.565995e-01
5.649344e-01
0.000000e+00
1.000000e+00
5.659402e-01
5.583138e-01
5.499973e-01
5.415018e-01
5.334535e-01
5.267029e-01
5.221727e-01
5.205965e-01
5.222515e-01
5.268428e-01
5.336178e-01
5.417771e-01
5.502062e-01
5.584637e-01
5.658063e-01
0.000000e+00
1.000000e+00
5.669591e-01
5.604525e-01
5.533368e-01
5.460736e-01
5.391924e-01
5.334197e-01
5.295449e-01
5.281962e-01
5.296109e-01
5.335363e-01
5.393257e-01
5.463069e-01
5.535407e-01
5.606011e-01
5.668131e-01
0.000000e+00
1.000000e+00
5.681188e-01
5.627507e-01
5.569344e-01
5.509996e-01
5.453770e-01
5.406603e-01
5.374939e-01
5.363923e-01
5.375494e-01
5.407598e-01
5.454934e-01
5.512207e-01
5.571310e-01
5.628970e-01
5.673580e-01
0.000000e+00
1.000000e+00
5.719948e-01
5.703817e-01
5.689177e-01
5.674043e-01
5.659707e-01
5.647674e-01
5.639580e-01
5.636730e-01
5.639636e-01
5.647814e-01
5.659975e-01
5.674372e-01
5.689871e-01
5.703843e-01
5.719742e-01
0.000000e+00
1.000000e+00
5.713241e-01
5.690477e-01
5.668208e-01
5.645336e-01
5.623675e-01
5.605510e-01
5.593313e-01
5.589053e-01
5.593493e-01
5.605877e-01
5.624221e-01
5.645893e-01
5.669051e-01
5.691371e-01
5.701382e-01
0.000000e+00
1.000000e+00
5.705435e-01
5.674518e-01
5.643162e-01
5.611057e-01
5.580652e-01
5.555159e-01
5.538056e-01
5.532110e-01
5.538382e-01
5.555794e-01
5.581536e-01
5.611928e-01
5.644342e-01
5.675675e-01
5.700745e-01
0.000000e+00
1.000000e+00
5.696433e-01
5.656349e-01
5.614691e-01
5.572086e-01
5.531743e-01
5.497915e-01
5.475222e-01
5.467348e-01
5.475693e-01
5.498816e-01
5.532952e-01
5.573204e-01
5.616114e-01
5.657482e-01
5.690331e-01
0.000000e+00
1.000000e+00
5.686886e-01
5.636693e-01
5.583913e-01
5.529961e-01
5.478884e-01
5.436050e-01
5.407312e-01
5.397342e-01
5.407920e-01
5.437214e-01
5.480455e-01
5.531323e-01
5.585552e-01
5.638120e-01
5.681144e-01
0.000000e+00
1.000000e+00
5.677220e-01
5.616620e-01
5.552486e-01
5.486950e-01
5.424913e-01
5.372886e-01
5.337976e-01
5.325860e-01
5.338705e-01
5.374291e-01
5.426877e-01
5.488564e-01
5.554289e-01
5.618123e-01
5.672437e-01
0.000000e+00
1.000000e+00
5.668117e-01
5.597474e-01
5.522509e-01
5.445918e-01
5.373413e-01
5.312607e-01
5.271809e-01
5.257650e-01
5.272650e-01
5.314223e-01
5.375765e-01
5.447774e-01
5.524398e-01
5.599022e-01
5.662466e-01
0.000000e+00
1.000000e+00
5.660148e-01
5.580723e-01
5.496292e-01
5.410021e-01
5.328337e-01
5.259845e-01
5.213892e-01
5.197958e-01
5.214837e-01
5.261629e-01
5.331027e-01
5.412127e-01
5.498239e-01
5.582372e-01
5.654222e-01
0.000000e+00
1.000000e+00
5.653779e-01
5.567780e-01
5.476043e-01
5.382284e-01
5.293501e-01
5.219069e-01
5.169147e-01
5.151833e-01
5.170159e-01
5.220968e-01
5.296438e-01
5.384603e-01
5.478079e-01
5.569542e-01
5.647949e-01
0.000000e+00
1.000000e+00
5.649576e-01
5.559804e-01
5.463559e-01
5.365183e-01
5.272033e-01
5.193934e-01
5.141557e-01
5.123381e-01
5.142593e-01
5.195867e-01
5.275063e-01
5.367673e-01
5.465678e-01
5.561608e-01
5.644578e-01
0.000000e+00
1.000000e+00
5.648309e-01
5.557511e-01
5.459970e-01
5.360260e-01
5.265835e-01
5.186670e-01
5.133570e-01
5.115132e-01
5.134591e-01
5.188558e-01
5.268773e-01
5.362918e-01
5.462046e-01
5.559342e-01
5.643426e-01
0.000000e+00
1.000000e+00
5.649903e-01
5.561070e-01
5.465536e-01
5.367875e-01
5.275381e-01
5.197826e-01
5.145798e-01
5.127722e-01
5.146768e-01
5.199601e-01
5.278020e-01
5.370757e-01
5.467546e-01
5.562948e-01
5.644747e-01
0.000000e+00
1.000000e+00
5.653965e-01
5.570143e-01
5.479726e-01
5.387296e-01
5.299747e-01
5.226327e-01
5.177065e-01
5.159937e-01
5.177951e-01
5.227933e-01
5.301968e-01
5.390228e-01
5.481681e-01
5.571960e-01
5.649719e-01
0.000000e+00
1.000000e+00
5.660260e-01
5.583984e-01
5.501353e-01
5.416901e-01
5.336898e-01
5.269796e-01
5.224764e-01
5.209094e-01
5.225541e-01
5.271192e-01
5.338686e-01
5.419668e-01
5.503211e-01
5.585625e-01
5.657113e-01
0.000000e+00
1.000000e+00
5.668492e-01
5.601576e-01
5.528829e-01
5.454513e-01
5.384106e-01
5.325042e-01
5.285395e-01
5.271590e-01
5.286053e-01
5.326215e-01
5.385535e-01
5.456926e-01
5.530665e-01
5.603202e-01
5.665787e-01
0.000000e+00
1.000000e+00
5.678189e-01
5.621799e-01
5.560425e-01
5.497769e-01
5.438403e-01
5.388595e-01
5.355153e-01