<?xml version="1.0"?>
<VTKFile type="StructuredGrid" version="0.1">
  <StructuredGrid WholeExtent="0 16 0 16 0 16">
    <Piece Extent="0 16 0 16 0 16">
      <PointData Scalars="temperature" Vectors="velocity">
        <DataArray type="Float32" Name="temperature" format="ascii">
1.000000e+00
5.721568e-01
5.715128e-01
5.706532e-01
5.697842e-01
5.689603e-01
5.682683e-01
5.678030e-01
5.676399e-01
5.678050e-01
5.682731e-01
5.689659e-01
5.697893e-01
5.706570e-01
5.715890e-01
5.718929e-01
0.000000e+00
1.000000e+00
5.722496e-01
5.717024e-01
5.709409e-01
5.701782e-01
5.694549e-01
5.688474e-01
5.684393e-01
5.682965e-01
5.684412e-01
5.688523e-01
5.694609e-01
5.701830e-01
5.709443e-01
5.718302e-01
5.718617e-01
0.000000e+00
1.000000e+00
5.723589e-01
5.719106e-01
5.712638e-01
5.706204e-01
5.700102e-01
5.694978e-01
5.691536e-01
5.690336e-01
5.691560e-01
5.695023e-01
5.700162e-01
5.706256e-01
5.712676e-01
5.721299e-01
5.717760e-01
0.000000e+00
1.000000e+00
5.724832e-01
5.721352e-01
5.716139e-01
5.710996e-01
5.706119e-01
5.702023e-01
5.699272e-01
5.698315e-01
5.699302e-01
5.702060e-01
5.706172e-01
5.711045e-01
5.716172e-01
5.723724e-01
5.717069e-01
0.000000e+00
1.000000e+00
5.726257e-01
5.723653e-01
5.719786e-01
5.715989e-01
5.712388e-01
5.709363e-01
5.707331e-01
5.706627e-01
5.707364e-01
5.709393e-01
5.712428e-01
5.716028e-01
5.719809e-01
5.725463e-01
5.718465e-01
0.000000e+00
1.000000e+00
5.727752e-01
5.725932e-01
5.723425e-01
5.720973e-01
5.718646e-01
5.716691e-01
5.715377e-01
5.714923e-01
5.715406e-01
5.716715e-01
5.718670e-01
5.720998e-01
5.723439e-01
5.727115e-01
5.721236e-01
0.000000e+00
1.000000e+00
5.729312e-01
5.728077e-01
5.726885e-01
5.725711e-01
5.724595e-01
5.723658e-01
5.723028e-01
5.722811e-01
5.723044e-01
5.723669e-01
5.724604e-01
5.725721e-01
5.726889e-01
5.728766e-01
5.723971e-01
0.000000e+00
1.000000e+00
5.730931e-01
5.729940e-01
5.729990e-01
5.729959e-01
5.729928e-01
5.729902e-01
5.729886e-01
5.729885e-01
5.729900e-01
5.729918e-01
5.729939e-01
5.729958e-01
5.729978e-01
5.730412e-01
5.725879e-01
0.000000e+00
1.000000e+00
5.731900e-01
5.731479e-01
5.732569e-01
5.733484e-01
5.734352e-01
5.735085e-01
5.735583e-01
5.735764e-01
5.735589e-01
5.735102e-01
5.734341e-01
5.733475e-01
5.732572e-01
5.731925e-01
5.728244e-01
0.000000e+00
1.000000e+00
5.732294e-01
5.732648e-01
5.734459e-01
5.736077e-01
5.737621e-01
5.738926e-01
5.739815e-01
5.740139e-01
5.739829e-01
5.738992e-01
5.737629e-01
5.736069e-01
5.734494e-01
5.732966e-01
5.730495e-01
0.000000e+00
1.000000e+00
5.732671e-01
5.733356e-01
5.735585e-01
5.737620e-01
5.739564e-01
5.741219e-01
5.742361e-01
5.742799e-01
5.742445e-01
5.741397e-01
5.739812e-01
5.737863e-01
5.735768e-01
5.733696e-01
5.731816e-01
0.000000e+00
1.000000e+00
5.732796e-01
5.733635e-01
5.735989e-01
5.738163e-01
5.740239e-01
5.742016e-01
5.743249e-01
5.743734e-01
5.743366e-01
5.742262e-01
5.740571e-01
5.738481e-01
5.736212e-01
5.733953e-01
5.732292e-01
0.000000e+00
1.000000e+00
5.732635e-01
5.733441e-01
5.735688e-01
5.737763e-01
5.739735e-01
5.741407e-01
5.742559e-01
5.743002e-01
5.742646e-01
5.741595e-01
5.739987e-01
5.738004e-01
5.735865e-01
5.733803e-01
5.731870e-01
0.000000e+00
1.000000e+00
5.732327e-01
5.732863e-01
5.734752e-01
5.736483e-01
5.738123e-01
5.739501e-01
5.740435e-01
5.740771e-01
5.740462e-01
5.739567e-01
5.738207e-01
5.736565e-01
5.734819e-01
5.733232e-01
5.730620e-01
0.000000e+00
1.000000e+00
5.731761e-01
5.731962e-01
5.733240e-01
5.734408e-01
5.735514e-01
5.736439e-01
5.737063e-01
5.737282e-01
5.737059e-01
5.736430e-01
5.735494e-01
5.734385e-01
5.733222e-01
5.732308e-01
5.729453e-01
0.000000e+00
1.000000e+00
5.730911e-01
5.730726e-01
5.731259e-01
5.731696e-01
5.732115e-01
5.732459e-01
5.732698e-01
5.732782e-01
5.732696e-01
5.732455e-01
5.732097e-01
5.731678e-01
5.731243e-01
5.731055e-01
5.728862e-01
0.000000e+00
1.000000e+00
5.730041e-01
5.729288e-01
5.728972e-01
5.728564e-01
5.728180e-01
5.727852e-01
5.727638e-01
5.727555e-01
5.727627e-01
5.727842e-01
5.728164e-01
5.728550e-01
5.728956e-01
5.729626e-01
5.728077e-01
0.000000e+00
1.000000e+00
5.721207e-01
5.713411e-01
5.703933e-01
5.694286e-01
5.685140e-01
5.677459e-01
5.672294e-01
5.670476e-01
5.672311e-01
5.677508e-01
5.685201e-01
5.694342e-01
5.703981e-01
5.714872e-01
5.717046e-01
0.000000e+00
1.000000e+00
5.721794e-01
5.715157e-01
5.706648e-01
5.698001e-01
5.689802e-01
5.682918e-01
5.678292e-01
5.676663e-01
5.678303e-01
5.682970e-01
5.689870e-01
5.698057e-01
5.706691e-01
5.718055e-01
5.713782e-01
0.000000e+00
1.000000e+00
5.722797e-01
5.717165e-01
5.709762e-01
5.702266e-01
5.695159e-01
5.689191e-01
5.685182e-01
5.683775e-01
5.685194e-01
5.689242e-01
5.695230e-01
5.702328e-01
5.709807e-01
5.720417e-01
5.713497e-01
0.000000e+00
1.000000e+00
5.723876e-01
5.719398e-01
5.713205e-01
5.706980e-01
5.701077e-01
5.696121e-01
5.692792e-01
5.691629e-01
5.692806e-01
5.696165e-01
5.701144e-01
5.707040e-01
5.713245e-01
5.721877e-01
5.714667e-01
0.000000e+00
1.000000e+00
5.725162e-01
5.721757e-01
5.716854e-01
5.711975e-01
5.707350e-01
5.703465e-01
5.700855e-01
5.699948e-01
5.700875e-01
5.703500e-01
5.707407e-01
5.712025e-01
5.716882e-01
5.723055e-01
5.718513e-01
0.000000e+00
1.000000e+00
5.726604e-01
5.724102e-01
5.720551e-01
5.717036e-01
5.713704e-01
5.710905e-01
5.709024e-01
5.708374e-01
5.709049e-01
5.710933e-01
5.713748e-01
5.717071e-01
5.720566e-01
5.724647e-01
5.722332e-01
0.000000e+00
1.000000e+00
5.728093e-01
5.726335e-01
5.724110e-01
5.721910e-01
5.719825e-01
5.718072e-01
5.716894e-01
5.716489e-01
5.716916e-01
5.718091e-01
5.719851e-01
5.721929e-01
5.724117e-01
5.726573e-01
5.725997e-01
0.000000e+00
1.000000e+00
5.729730e-01
5.728329e-01
5.727340e-01
5.726333e-01
5.725378e-01
5.724576e-01
5.724038e-01
5.723854e-01
5.724050e-01
5.724588e-01
5.725389e-01
5.726336e-01
5.727334e-01
5.728529e-01
5.727125e-01
0.000000e+00
1.000000e+00
5.731383e-01
5.729883e-01
5.730059e-01
5.730055e-01
5.730051e-01
5.730048e-01
5.730048e-01
5.730049e-01
5.730049e-01
5.730049e-01
5.730060e-01
5.730075e-01
5.730068e-01
5.730068e-01
5.727861e-01
0.000000e+00
1.000000e+00
5.731802e-01
5.731113e-01
5.732114e-01
5.732868e-01
5.733580e-01
5.734177e-01
5.734582e-01
5.734727e-01
5.734581e-01
5.734189e-01
5.733610e-01
5.732901e-01
5.732129e-01
5.731252e-01
5.731019e-01
0.000000e+00
1.000000e+00
5.731890e-01
5.732071e-01
5.733414e-01
5.734650e-01
5.735813e-01
5.736783e-01
5.737432e-01
5.737655e-01
5.737406e-01
5.736735e-01
5.735810e-01
5.734698e-01
5.733496e-01
5.732161e-01
5.731609e-01
0.000000e+00
1.000000e+00
5.732091e-01
5.732476e-01
5.733899e-01
5.735313e-01
5.736662e-01
5.737786e-01
5.738531e-01
5.738790e-01
5.738510e-01
5.737745e-01
5.736674e-01
5.735394e-01
5.733997e-01
5.732537e-01
5.731271e-01
0.000000e+00
1.000000e+00
5.732020e-01
5.732260e-01
5.733661e-01
5.734977e-01
5.736221e-01
5.737260e-01
5.737954e-01
5.738195e-01
5.737934e-01
5.737230e-01
5.736239e-01
5.735043e-01
5.733716e-01
5.732418e-01
5.731358e-01
0.000000e+00
1.000000e+00
5.731684e-01
5.731577e-01
5.732708e-01
5.733685e-01
5.734606e-01
5.735372e-01
5.735883e-01
5.736051e-01
5.735860e-01
5.735347e-01
5.734614e-01
5.733728e-01
5.732735e-01
5.731937e-01
5.730381e-01
0.000000e+00
1.000000e+00
5.730964e-01
5.730638e-01
5.731190e-01
5.731604e-01
5.731994e-01
5.732317e-01
5.732537e-01
5.732615e-01
5.732537e-01
5.732320e-01
5.731999e-01
5.731612e-01
5.731188e-01
5.731038e-01
5.728644e-01
0.000000e+00
1.000000e+00
5.730126e-01
5.729431e-01
5.729221e-01
5.728907e-01
5.728609e-01
5.728354e-01
5.728192e-01
5.728132e-01
5.728190e-01
5.728356e-01
5.728603e-01
5.728899e-01
5.729210e-01
5.729731e-01
5.727837e-01
0.000000e+00
1.000000e+00
5.729421e-01
5.727996e-01
5.726947e-01
5.725794e-01
5.724700e-01
5.723778e-01
5.723157e-01
5.722929e-01
5.723145e-01
5.723762e-01
5.724680e-01
5.725774e-01
5.726927e-01
5.728271e-01
5.727486e-01
0.000000e+00
1.000000e+00
5.720586e-01
5.712047e-01
5.701777e-01
5.691336e-01
5.681438e-01
5.673124e-01
5.667533e-01
5.665559e-01
5.667550e-01
5.673177e-01
5.681501e-01
5.691388e-01
5.701819e-01
5.713509e-01
5.716937e-01
0.000000e+00
1.000000e+00
5.721052e-01
5.713669e-01
5.704317e-01
5.694808e-01
5.685794e-01
5.678224e-01
5.673137e-01
5.671336e-01
5.673149e-01
5.678279e-01
5.685864e-01
5.694865e-01
5.704359e-01
5.716191e-01
5.715687e-01
0.000000e+00
1.000000e+00
5.722069e-01
5.715576e-01
5.707300e-01
5.698895e-01
5.690926e-01
5.684234e-01
5.679740e-01
5.678151e-01
5.679751e-01
5.684291e-01
5.691002e-01
5.698959e-01
5.707347e-01
5.718183e-01
5.715211e-01
0.000000e+00
1.000000e+00
5.723014e-01
5.717758e-01
5.710668e-01
5.703507e-01
5.696717e-01
5.691015e-01
5.687187e-01
5.685838e-01
5.687196e-01
5.691071e-01
5.696792e-01
5.703569e-01
5.710709e-01
5.719629e-01
5.715613e-01
0.000000e+00
1.000000e+00
5.724240e-01
5.720111e-01
5.714303e-01
5.708482e-01
5.702963e-01
5.698329e-01
5.695218e-01
5.694128e-01
5.695229e-01
5.698380e-01
5.703029e-01
5.708531e-01
5.714328e-01
5.720986e-01
5.719051e-01
0.000000e+00
1.000000e+00
5.725663e-01
5.722498e-01
5.718041e-01
5.713600e-01
5.709388e-01
5.705852e-01
5.703477e-01
5.702653e-01
5.703494e-01
5.705894e-01
5.709438e-01
5.713632e-01
5.718054e-01
5.722843e-01
5.722302e-01
0.000000e+00
1.000000e+00
5.727139e-01
5.724818e-01
5.721688e-01
5.718594e-01
5.715659e-01
5.713194e-01
5.711538e-01
5.710968e-01
5.711558e-01
5.713224e-01
5.715691e-01
5.718613e-01
5.721696e-01
5.724984e-01
5.725178e-01
0.000000e+00
1.000000e+00
5.728710e-01
5.726910e-01
5.725036e-01
5.723178e-01
5.721416e-01
5.719936e-01
5.718941e-01
5.718598e-01
5.718954e-01
5.719952e-01
5.721434e-01
5.723189e-01
5.725040e-01
5.727097e-01
5.726523e-01
0.000000e+00
1.000000e+00
5.730449e-01
5.728579e-01
5.727888e-01
5.727082e-01
5.726318e-01
5.725676e-01
5.725244e-01
5.725093e-01
5.725249e-01
5.725684e-01
5.726327e-01
5.727091e-01
5.727890e-01
5.728723e-01
5.727235e-01
0.000000e+00
1.000000e+00
5.731734e-01
5.729785e-01
5.730081e-01
5.730083e-01
5.730084e-01
5.730085e-01
5.730085e-01
5.730084e-01
5.730082e-01
5.730077e-01
5.730073e-01
5.730072e-01
5.730069e-01
5.729953e-01
5.729467e-01
0.000000e+00
1.000000e+00
5.731796e-01
5.730698e-01
5.731489e-01
5.732007e-01
5.732500e-01
5.732915e-01
5.733197e-01
5.733297e-01
5.733194e-01
5.732904e-01
5.732479e-01
5.731978e-01
5.731475e-01
5.730923e-01
5.731377e-01
0.000000e+00
1.000000e+00
5.731594e-01
5.731164e-01
5.732083e-01
5.732830e-01
5.733531e-01
5.734109e-01
5.734497e-01
5.734629e-01
5.734480e-01
5.734071e-01
5.733470e-01
5.732764e-01
5.732073e-01
5.731349e-01
5.730632e-01
0.000000e+00
1.000000e+00
5.731564e-01
5.731089e-01
5.731891e-01
5.732563e-01
5.733196e-01
5.733720e-01
5.734069e-01
5.734186e-01
5.734052e-01
5.733682e-01
5.733144e-01
5.732526e-01
5.731887e-01
5.731235e-01
5.731025e-01
0.000000e+00
1.000000e+00
5.731043e-01
5.730502e-01
5.730987e-01
5.731324e-01
5.731641e-01
5.731904e-01
5.732077e-01
5.732134e-01
5.732069e-01
5.731885e-01
5.731616e-01
5.731309e-01
5.730979e-01
5.730812e-01
5.730207e-01
0.000000e+00
1.000000e+00
5.730293e-01
5.729580e-01
5.729487e-01
5.729271e-01
5.729065e-01
5.728896e-01
5.728778e-01
5.728736e-01
5.728777e-01
5.728891e-01
5.729062e-01
5.729266e-01
5.729478e-01
5.729920e-01
5.728161e-01
0.000000e+00
1.000000e+00
5.729599e-01
5.728361e-01
5.727537e-01
5.726600e-01
5.725710e-01
5.724965e-01
5.724464e-01
5.724284e-01
5.724456e-01
5.724955e-01
5.725698e-01
5.726585e-01
5.727519e-01
5.728621e-01
5.727140e-01
0.000000e+00
1.000000e+00
5.728996e-01
5.726916e-01
5.725274e-01
5.723503e-01
5.721821e-01
5.720407e-01
5.719450e-01
5.719110e-01
5.719442e-01
5.720392e-01
5.721802e-01
5.723482e-01
5.725253e-01
5.727176e-01
5.727037e-01
0.000000e+00
1.000000e+00
5.720047e-01
5.711024e-01
5.700192e-01
5.689167e-01
5.678714e-01
5.669934e-01
5.664027e-01
5.661943e-01
5.664044e-01
5.669987e-01
5.678773e-01
5.689209e-01
5.700227e-01
5.712339e-01
5.716510e-01
0.000000e+00
1.000000e+00
5.720549e-01
5.712524e-01
5.702554e-01
5.692395e-01
5.682764e-01
5.674676e-01
5.669238e-01
5.667312e-01
5.669251e-01
5.674730e-01
5.682828e-01
5.692442e-01
5.702586e-01
5.714507e-01
5.715768e-01
0.000000e+00
1.000000e+00
5.721502e-01
5.714353e-01
5.705404e-01
5.696298e-01
5.687665e-01
5.680416e-01
5.675547e-01
5.673816e-01
5.675559e-01
5.680474e-01
5.687738e-01
5.696358e-01
5.705449e-01
5.716307e-01
5.715869e-01
0.000000e+00
1.000000e+00
5.722510e-01
5.716457e-01
5.708691e-01
5.700799e-01
5.693316e-01
5.687034e-01
5.682815e-01
5.681314e-01
5.682826e-01
5.687093e-01
5.693391e-01
5.700857e-01
5.708730e-01
5.717833e-01
5.716517e-01
0.000000e+00
1.000000e+00
5.723653e-01
5.718784e-01
5.712300e-01
5.705740e-01
5.699520e-01
5.694298e-01
5.690791e-01
5.689551e-01
5.690803e-01
5.694356e-01
5.699587e-01
5.705784e-01
5.712324e-01
5.719396e-01
5.719794e-01
0.000000e+00
1.000000e+00
5.724955e-01
5.721224e-01
5.716068e-01
5.710899e-01
5.705998e-01
5.701881e-01
5.699118e-01
5.698151e-01
5.699133e-01
5.701933e-01
5.706045e-01
5.710926e-01
5.716080e-01
5.721467e-01
5.722746e-01
0.000000e+00
1.000000e+00
5.726411e-01
5.723617e-01
5.719793e-01
5.716000e-01
5.712401e-01
5.709378e-01
5.707349e-01
5.706647e-01
5.707366e-01
5.709416e-01
5.712430e-01
5.716016e-01
5.719802e-01
5.723773e-01
5.725329e-01
0.000000e+00
1.000000e+00
5.727979e-01
5.725780e-01
5.723252e-01
5.720735e-01
5.718348e-01
5.716343e-01
5.714995e-01
5.714528e-01
5.715005e-01
5.716361e-01
5.718364e-01
5.720746e-01
5.723258e-01
5.726005e-01
5.725901e-01
0.000000e+00
1.000000e+00
5.729529e-01
5.727577e-01
5.726229e-01
5.724811e-01
5.723466e-01
5.722337e-01
5.721577e-01
5.721310e-01
5.721582e-01
5.722345e-01
5.723477e-01
5.724820e-01
5.726232e-01
5.727722e-01
5.726530e-01
0.000000e+00
1.000000e+00
5.731137e-01
5.728842e-01
5.728542e-01
5.727979e-01
5.727444e-01
5.726994e-01
5.726690e-01
5.726582e-01
5.726689e-01
5.726990e-01
5.727442e-01
5.727982e-01
5.728544e-01
5.728996e-01
5.729090e-01
0.000000e+00
1.000000e+00
5.731984e-01
5.729650e-01
5.730074e-01
5.730075e-01
5.730071e-01
5.730066e-01
5.730060e-01
5.730054e-01
5.730048e-01
5.730043e-01
5.730040e-01
5.730041e-01
5.730044e-01
5.730018e-01
5.730466e-01
0.000000e+00
1.000000e+00
5.731641e-01
5.730097e-01
5.730759e-01
5.731011e-01
5.731245e-01
5.731441e-01
5.731571e-01
5.731612e-01
5.731558e-01
5.731419e-01
5.731215e-01
5.730968e-01
5.730731e-01
5.730437e-01
5.730592e-01
0.000000e+00
1.000000e+00
5.731005e-01
5.730145e-01
5.730618e-01
5.730821e-01
5.731013e-01
5.731171e-01
5.731273e-01
5.731300e-01
5.731255e-01
5.731145e-01
5.730983e-01
5.730792e-01
5.730604e-01
5.730397e-01
5.730765e-01
0.000000e+00
1.000000e+00
5.730506e-01
5.729694e-01
5.729748e-01
5.729628e-01
5.729511e-01
5.729415e-01
5.729353e-01
5.729326e-01
5.729349e-01
5.729416e-01
5.729511e-01
5.729625e-01
5.729745e-01
5.729994e-01
5.730240e-01
0.000000e+00
1.000000e+00
5.729937e-01
5.728799e-01
5.728272e-01
5.727606e-01
5.726974e-01
5.726439e-01
5.726085e-01
5.725962e-01
5.726087e-01
5.726441e-01
5.726967e-01
5.727597e-01
5.728259e-01
5.729076e-01
5.727675e-01
0.000000e+00
1.000000e+00
5.729311e-01
5.727580e-01
5.726332e-01
5.724950e-01
5.723638e-01
5.722535e-01
5.721793e-01
5.721531e-01
5.721785e-01
5.722523e-01
5.723621e-01
5.724931e-01
5.726312e-01
5.727810e-01
5.726993e-01
0.000000e+00
1.000000e+00
5.728682e-01
5.726137e-01
5.724077e-01
5.721864e-01
5.719762e-01
5.718004e-01
5.716801e-01
5.716381e-01
5.716793e-01
5.717979e-01
5.719742e-01
5.721841e-01
5.724055e-01
5.726406e-01
5.726592e-01
0.000000e+00
1.000000e+00
5.719831e-01
5.710427e-01
5.699287e-01
5.687927e-01
5.677157e-01
5.668111e-01
5.662024e-01
5.659877e-01
5.662040e-01
5.668163e-01
5.677225e-01
5.687976e-01
5.699322e-01
5.711524e-01
5.716568e-01
0.000000e+00
1.000000e+00
5.720288e-01
5.711826e-01
5.701487e-01
5.690934e-01
5.680930e-01
5.672528e-01
5.666877e-01
5.664879e-01
5.666888e-01
5.672579e-01
5.680993e-01
5.690976e-01
5.701513e-01
5.713197e-01
5.716889e-01
0.000000e+00
1.000000e+00
5.721174e-01
5.713588e-01
5.704214e-01
5.694668e-01
5.685619e-01
5.678020e-01
5.672913e-01
5.671100e-01
5.672926e-01
5.678074e-01
5.685681e-01
5.694714e-01
5.704247e-01
5.714871e-01
5.717670e-01
0.000000e+00
1.000000e+00
5.722214e-01
5.715639e-01
5.707425e-01
5.699064e-01
5.691138e-01
5.684483e-01
5.680013e-01
5.678419e-01
5.680023e-01
5.684540e-01
5.691204e-01
5.699116e-01
5.707462e-01
5.716598e-01
5.717834e-01
0.000000e+00
1.000000e+00
5.723325e-01
5.717942e-01
5.711008e-01
5.703971e-01
5.697299e-01
5.691696e-01
5.687936e-01
5.686592e-01
5.687948e-01
5.691758e-01
5.697362e-01
5.704011e-01
5.711032e-01
5.718393e-01
5.720812e-01
0.000000e+00
1.000000e+00
5.724584e-01
5.720392e-01
5.714802e-01
5.709165e-01
5.703821e-01
5.699332e-01
5.696319e-01
5.695253e-01
5.696339e-01
5.699386e-01
5.703864e-01
5.709190e-01
5.714814e-01
5.720672e-01
5.722892e-01
0.000000e+00
1.000000e+00
5.726020e-01
5.722830e-01
5.718597e-01
5.714362e-01
5.710345e-01
5.706970e-01
5.704703e-01
5.703916e-01
5.704722e-01
5.707007e-01
5.710370e-01
5.714377e-01
5.718606e-01
5.723107e-01
5.724499e-01
0.000000e+00
1.000000e+00
5.727541e-01
5.725080e-01
5.722157e-01
5.719236e-01
5.716465e-01
5.714136e-01
5.712573e-01
5.712030e-01
5.712581e-01
5.714156e-01
5.716479e-01
5.719247e-01
5.722164e-01
5.725400e-01
5.725020e-01
0.000000e+00
1.000000e+00
5.729088e-01
5.726968e-01
5.725250e-01
5.723469e-01
5.721780e-01
5.720363e-01
5.719412e-01
5.719077e-01
5.719416e-01
5.720373e-01
5.721791e-01
5.723478e-01
5.725252e-01
5.727191e-01
5.725539e-01
0.000000e+00
1.000000e+00
5.730468e-01
5.728353e-01
5.727676e-01
5.726793e-01
5.725956e-01
5.725253e-01
5.724780e-01
5.724612e-01
5.724779e-01
5.725249e-01
5.725955e-01
5.726798e-01
5.727681e-01
5.728487e-01
5.728383e-01
0.000000e+00
1.000000e+00
5.731493e-01
5.729243e-01
5.729302e-01
5.729021e-01
5.728754e-01
5.728528e-01
5.728373e-01
5.728316e-01
5.728362e-01
5.728506e-01
5.728727e-01
5.729000e-01
5.729284e-01
5.729520e-01
5.729879e-01
0.000000e+00
1.000000e+00
5.731707e-01
5.729673e-01
5.730063e-01
5.730062e-01
5.730061e-01
5.730061e-01
5.730060e-01
5.730053e-01
5.730042e-01
5.730032e-01
5.730033e-01
5.730043e-01
5.730049e-01
5.729999e-01
5.730469e-01
0.000000e+00
1.000000e+00
5.730940e-01
5.729742e-01
5.729982e-01
5.729948e-01
5.729916e-01
5.729891e-01
5.729875e-01
5.729861e-01
5.729858e-01
5.729873e-01
5.729903e-01
5.729936e-01
5.729963e-01
5.729943e-01
5.730802e-01
0.000000e+00
1.000000e+00
5.730384e-01
5.729309e-01
5.729140e-01
5.728796e-01
5.728469e-01
5.728193e-01
5.728012e-01
5.727945e-01
5.728005e-01
5.728191e-01
5.728465e-01
5.728790e-01
5.729133e-01
5.729590e-01
5.730305e-01
0.000000e+00
1.000000e+00
5.729854e-01
5.728410e-01
5.727673e-01
5.726785e-01
5.725943e-01
5.725234e-01
5.724761e-01
5.724598e-01
5.724762e-01
5.725231e-01
5.725934e-01
5.726774e-01
5.727659e-01
5.728663e-01
5.727885e-01
0.000000e+00
1.000000e+00
5.729205e-01
5.727184e-01
5.725734e-01
5.724131e-01
5.722608e-01
5.721326e-01
5.720468e-01
5.720158e-01
5.720462e-01
5.721315e-01
5.722589e-01
5.724109e-01
5.725711e-01
5.727391e-01
5.727024e-01
0.000000e+00
1.000000e+00
5.728563e-01
5.725734e-01
5.723472e-01
5.721035e-01
5.718721e-01
5.716778e-01
5.715470e-01
5.714993e-01
5.715457e-01
5.716758e-01
5.718699e-01
5.721011e-01
5.723449e-01
5.726010e-01
5.726351e-01
0.000000e+00
1.000000e+00
5.719752e-01
5.710337e-01
5.699147e-01
5.687735e-01
5.676916e-01
5.667829e-01
5.661712e-01
5.659555e-01
5.661729e-01
5.667868e-01
5.676979e-01
5.687793e-01
5.699186e-01
5.711136e-01
5.717357e-01
0.000000e+00
1.000000e+00
5.720148e-01
5.711655e-01
5.701215e-01
5.690564e-01
5.680465e-01
5.671983e-01
5.666276e-01
5.664264e-01
5.666288e-01
5.672023e-01
5.680526e-01
5.690615e-01
5.701248e-01
5.712470e-01
5.718287e-01
0.000000e+00
1.000000e+00
5.721061e-01
5.713359e-01
5.703844e-01
5.694163e-01
5.684985e-01
5.677277e-01
5.672093e-01
5.670262e-01
5.672106e-01
5.677326e-01
5.685043e-01
5.694203e-01
5.703870e-01
5.714069e-01
5.719174e-01
0.000000e+00
1.000000e+00
5.722047e-01
5.715381e-01
5.706996e-01
5.698477e-01
5.690401e-01
5.683618e-01
5.679061e-01
5.677443e-01
5.679071e-01
5.683670e-01
5.690455e-01
5.698516e-01
5.707024e-01
5.716040e-01
5.719484e-01
0.000000e+00
1.000000e+00
5.723230e-01
5.717669e-01
5.710563e-01
5.703361e-01
5.696533e-01
5.690799e-01
5.686949e-01
5.685576e-01
5.686959e-01
5.690856e-01
5.696591e-01
5.703403e-01
5.710591e-01
5.718119e-01
5.721107e-01
0.000000e+00
1.000000e+00
5.724560e-01
5.720114e-01
5.714385e-01
5.708593e-01
5.703103e-01
5.698491e-01
5.695396e-01
5.694295e-01
5.695414e-01
5.698547e-01
5.703148e-01
5.708620e-01
5.714400e-01
5.720524e-01
5.722285e-01
0.000000e+00
1.000000e+00
5.725947e-01
5.722595e-01
5.718245e-01
5.713879e-01
5.709739e-01
5.706262e-01
5.703925e-01
5.703110e-01
5.703945e-01
5.706297e-01
5.709763e-01
5.713894e-01
5.718255e-01
5.723019e-01
5.723625e-01
0.000000e+00
1.000000e+00
5.727474e-01
5.724920e-01
5.721897e-01
5.718880e-01
5.716018e-01
5.713613e-01
5.711995e-01
5.711439e-01
5.712004e-01
5.713629e-01
5.716030e-01
5.718889e-01
5.721903e-01
5.725364e-01
5.724197e-01
0.000000e+00
1.000000e+00
5.729052e-01
5.726876e-01
5.725094e-01
5.723255e-01
5.721511e-01
5.720045e-01
5.719062e-01
5.718722e-01
5.719070e-01
5.720055e-01
5.721519e-01
5.723261e-01
5.725093e-01
5.727217e-01
5.724775e-01
0.000000e+00
1.000000e+00
5.730429e-01
5.728322e-01
5.727620e-01
5.726714e-01
5.725855e-01
5.725136e-01
5.724656e-01
5.724490e-01
5.724661e-01
5.725137e-01
5.725855e-01
5.726720e-01
5.727623e-01
5.728523e-01
5.727645e-01
0.000000e+00
1.000000e+00
5.731260e-01
5.729308e-01
5.729330e-01
5.729058e-01
5.728802e-01
5.728588e-01
5.728446e-01
5.728397e-01
5.728444e-01
5.728579e-01
5.728784e-01
5.729044e-01
5.729317e-01
5.729539e-01
5.729290e-01
0.000000e+00
1.000000e+00
5.731325e-01
5.729842e-01
5.730165e-01
5.730200e-01
5.730232e-01
5.730263e-01
5.730291e-01
5.730302e-01
5.730286e-01
5.730247e-01
5.730205e-01
5.730178e-01
5.730150e-01
5.730075e-01
5.730283e-01
0.000000e+00
1.000000e+00
5.730827e-01
5.729906e-01
5.730130e-01
5.730143e-01
5.730152e-01
5.730162e-01
5.730177e-01
5.730177e-01
5.730158e-01
5.730138e-01
5.730124e-01
5.730108e-01
5.730110e-01
5.730039e-01
5.730879e-01
0.000000e+00
1.000000e+00
5.730362e-01
5.729426e-01
5.729291e-01
5.729000e-01
5.728720e-01
5.728482e-01
5.728324e-01
5.728260e-01
5.728308e-01
5.728462e-01
5.728695e-01
5.728972e-01
5.729272e-01
5.729650e-01
5.730676e-01
0.000000e+00
1.000000e+00
5.729931e-01
5.728502e-01
5.727805e-01
5.726966e-01
5.726167e-01
5.725497e-01
5.725047e-01
5.724890e-01
5.725047e-01
5.725488e-01
5.726153e-01
5.726949e-01
5.727786e-01
5.728721e-01
5.728170e-01
0.000000e+00
1.000000e+00
5.729286e-01
5.727257e-01
5.725843e-01
5.724279e-01
5.722794e-01
5.721544e-01
5.720709e-01
5.720405e-01
5.720701e-01
5.721534e-01
5.722774e-01
5.724255e-01
5.725817e-01
5.727406e-01
5.727862e-01
0.000000e+00
1.000000e+00
5.728684e-01
5.725771e-01
5.723554e-01
5.721147e-01
5.718862e-01
5.716941e-01
5.715656e-01
5.715182e-01
5.715638e-01
5.716924e-01
5.718837e-01
5.721120e-01
5.723528e-01
5.726021e-01
5.726719e-01
0.000000e+00
1.000000e+00
5.719785e-01
5.710788e-01
5.699816e-01
5.688649e-01
5.678064e-01
5.669172e-01
5.663188e-01
5.661076e-01
5.663207e-01
5.669204e-01
5.678108e-01
5.688699e-01
5.699853e-01
5.711272e-01
5.718737e-01
0.000000e+00
1.000000e+00
5.720273e-01
5.712042e-01
5.701796e-01
5.691360e-01
5.681465e-01
5.673154e-01
5.667561e-01
5.665588e-01
5.667577e-01
5.673182e-01
5.681505e-01
5.691401e-01
5.701827e-01
5.712486e-01
5.719806e-01
0.000000e+00
1.000000e+00
5.721150e-01
5.713710e-01
5.704364e-01
5.694876e-01
5.685879e-01
5.678323e-01
5.673239e-01
5.671447e-01
5.673254e-01
5.678359e-01
5.685932e-01
5.694920e-01
5.704392e-01
5.714052e-01
5.720461e-01
0.000000e+00
1.000000e+00
5.722244e-01
5.715700e-01
5.707483e-01
5.699145e-01
5.691239e-01
5.684600e-01
5.680134e-01
5.678558e-01
5.680147e-01
5.684644e-01
5.691293e-01
5.699182e-01
5.707506e-01
5.716104e-01
5.720992e-01
0.000000e+00
1.000000e+00
5.723390e-01
5.717992e-01
5.711051e-01
5.704030e-01
5.697373e-01
5.691782e-01
5.688024e-01
5.686695e-01
5.688033e-01
5.691831e-01
5.697425e-01
5.704067e-01
5.711077e-01
5.718522e-01
5.721303e-01
0.000000e+00
1.000000e+00
5.724746e-01
5.720475e-01
5.714908e-01
5.709309e-01
5.704001e-01
5.699542e-01
5.696547e-01
5.695489e-01
5.696557e-01
5.699594e-01
5.704051e-01
5.709344e-01
5.714929e-01
5.721054e-01
5.721718e-01
0.000000e+00
1.000000e+00
5.726219e-01
5.722979e-01
5.718831e-01
5.714681e-01
5.710746e-01
5.707440e-01
5.705218e-01
5.704444e-01
5.705225e-01
5.707481e-01
5.710777e-01
5.714697e-01
5.718840e-01
5.723556e-01
5.723075e-01
0.000000e+00
1.000000e+00
5.727772e-01
5.725340e-01
5.722564e-01
5.719794e-01
5.717166e-01
5.714958e-01
5.713472e-01
5.712959e-01
5.713483e-01
5.714982e-01
5.717176e-01
5.719799e-01
5.722566e-01
5.725952e-01
5.723794e-01
0.000000e+00
1.000000e+00
5.729338e-01
5.727351e-01
5.725850e-01
5.724291e-01
5.722812e-01
5.721568e-01
5.720731e-01
5.720443e-01
5.720753e-01
5.721582e-01
5.722814e-01
5.724295e-01
5.725847e-01
5.727861e-01
5.724561e-01
0.000000e+00
1.000000e+00
5.730714e-01
5.728860e-01
5.728460e-01
5.727862e-01
5.727294e-01
5.726818e-01
5.726503e-01
5.726406e-01
5.726537e-01
5.726850e-01
5.727306e-01
5.727874e-01
5.728469e-01
5.729145e-01
5.727009e-01
0.000000e+00
1.000000e+00
5.731237e-01
5.729941e-01
5.730224e-01
5.730282e-01
5.730336e-01
5.730384e-01
5.730419e-01
5.730438e-01
5.730433e-01
5.730400e-01
5.730341e-01
5.730290e-01
5.730235e-01
5.730141e-01
5.729126e-01
0.000000e+00
1.000000e+00
5.731102e-01
5.730589e-01
5.731057e-01
5.731411e-01
5.731764e-01
5.732064e-01
5.732272e-01
5.732361e-01
5.732304e-01
5.732111e-01
5.731826e-01
5.731490e-01
5.731117e-01
5.730721e-01
5.730032e-01
0.000000e+00
1.000000e+00
5.731031e-01
5.730616e-01
5.731013e-01
5.731379e-01
5.731730e-01
5.732020e-01
5.732218e-01
5.732286e-01
5.732221e-01
5.732028e-01
5.731757e-01
5.731432e-01
5.731080e-01
5.730687e-01
5.730781e-01
0.000000e+00
1.000000e+00
5.730625e-01
5.730043e-01
5.730215e-01
5.730263e-01
5.730311e-01
5.730353e-01
5.730375e-01
5.730375e-01
5.730374e-01
5.730354e-01
5.730317e-01
5.730276e-01
5.730227e-01
5.730189e-01
5.731192e-01
0.000000e+00
1.000000e+00
5.730033e-01
5.729109e-01
5.728753e-01
5.728257e-01
5.727780e-01
5.727374e-01
5.727093e-01
5.726977e-01
5.727071e-01
5.727345e-01
5.727741e-01
5.728213e-01
5.728708e-01
5.729274e-01
5.729049e-01
0.000000e+00
1.000000e+00
5.729517e-01
5.727831e-01
5.726727e-01
5.725489e-01
5.724312e-01
5.723322e-01
5.722656e-01
5.722420e-01
5.722648e-01
5.723307e-01
5.724288e-01
5.725459e-01
5.726694e-01
5.727937e-01
5.728720e-01
0.000000e+00
1.000000e+00
5.728961e-01
5.726307e-01
5.724382e-01
5.722281e-01
5.720286e-01
5.718608e-01
5.717481e-01
5.717082e-01
5.717470e-01
5.718592e-01
5.720262e-01
5.722252e-01
5.724353e-01
5.726515e-01
5.727853e-01
0.000000e+00
1.000000e+00
5.719960e-01
5.711749e-01
5.701282e-01
5.690656e-01
5.680583e-01
5.672122e-01
5.666428e-01
5.664419e-01
5.666448e-01
5.672157e-01
5.680622e-01
5.690695e-01
5.701314e-01
5.712217e-01
5.719107e-01
0.000000e+00
1.000000e+00
5.720606e-01
5.712985e-01
5.703227e-01
5.693319e-01
5.683925e-01
5.676035e-01
5.670724e-01
5.668850e-01
5.670742e-01
5.676062e-01
5.683954e-01
5.693345e-01
5.703246e-01
5.713253e-01
5.720355e-01
0.000000e+00
1.000000e+00
5.721480e-01
5.714640e-01
5.705777e-01
5.696810e-01
5.688308e-01
5.681167e-01
5.676361e-01
5.674667e-01
5.676378e-01
5.681193e-01
5.688341e-01
5.696842e-01
5.705800e-01
5.714849e-01
5.721123e-01
0.000000e+00
1.000000e+00
5.722635e-01
5.716630e-01
5.708897e-01
5.701081e-01
5.693670e-01
5.687446e-01
5.683257e-01
5.681782e-01
5.683270e-01
5.687475e-01
5.693715e-01
5.701121e-01
5.708921e-01
5.716880e-01
5.722028e-01
0.000000e+00
1.000000e+00
5.723857e-01
5.718931e-01
5.712488e-01
5.705998e-01
5.699843e-01
5.694674e-01
5.691196e-01
5.689972e-01
5.691207e-01
5.694710e-01
5.699896e-01
5.706038e-01
5.712512e-01
5.719458e-01
5.721976e-01
0.000000e+00
1.000000e+00
5.725262e-01
5.721442e-01
5.716388e-01
5.711336e-01
5.706546e-01
5.702522e-01
5.699816e-01
5.698866e-01
5.699823e-01
5.702563e-01
5.706599e-01
5.711374e-01
5.716411e-01
5.722267e-01
5.721973e-01
0.000000e+00
1.000000e+00
5.726821e-01
5.723960e-01
5.720372e-01
5.716790e-01
5.713394e-01
5.710541e-01
5.708622e-01
5.707953e-01
5.708626e-01
5.710574e-01
5.713435e-01
5.716813e-01
5.720382e-01
5.724837e-01
5.722980e-01
0.000000e+00
1.000000e+00
5.728369e-01
5.726351e-01
5.724175e-01
5.722000e-01
5.719936e-01
5.718202e-01
5.717036e-01
5.716629e-01
5.717045e-01
5.718228e-01
5.719959e-01
5.722005e-01
5.724174e-01
5.727282e-01
5.723808e-01
0.000000e+00
1.000000e+00
5.730002e-01
5.728399e-01
5.727530e-01
5.726593e-01
5.725703e-01
5.724955e-01
5.724451e-01
5.724272e-01
5.724461e-01
5.724982e-01
5.725724e-01
5.726604e-01
5.727546e-01
5.729196e-01
5.723891e-01
0.000000e+00
1.000000e+00
5.731194e-01
5.729998e-01
5.730197e-01
5.730251e-01
5.730296e-01
5.730331e-01
5.730351e-01
5.730355e-01
5.730355e-01
5.730347e-01
5.730302e-01
5.730249e-01
5.730204e-01
5.730403e-01
5.725948e-01
0.000000e+00
1.000000e+00
5.731331e-01
5.731236e-01
5.732000e-01
5.732723e-01
5.733408e-01
5.733983e-01
5.734367e-01
5.734497e-01
5.734352e-01
5.733964e-01
5.733403e-01
5.732729e-01
5.732018e-01
5.731399e-01
5.729582e-01
0.000000e+00
1.000000e+00
5.731484e-01
5.731946e-01
5.732953e-01
5.733978e-01
5.734954e-01
5.735778e-01
5.736326e-01
5.736518e-01
5.736303e-01
5.735733e-01
5.734941e-01
5.733952e-01
5.732866e-01
5.731951e-01
5.729714e-01
0.000000e+00
1.000000e+00
5.731633e-01
5.731899e-01
5.732902e-01
5.733925e-01
5.734886e-01
5.735693e-01
5.736231e-01
5.736413e-01
5.736204e-01
5.735640e-01
5.734883e-01
5.733930e-01
5.732827e-01
5.731831e-01
5.730756e-01
0.000000e+00
1.000000e+00
5.731473e-01
5.731271e-01
5.731963e-01
5.732664e-01
5.733335e-01
5.733906e-01
5.734294e-01
5.734427e-01
5.734292e-01
5.733905e-01
5.733359e-01
5.732720e-01
5.731992e-01
5.731283e-01
5.731308e-01
0.000000e+00
1.000000e+00
5.730726e-01
5.730217e-01
5.730432e-01
5.730568e-01
5.730698e-01
5.730804e-01
5.730872e-01
5.730885e-01
5.730857e-01
5.730793e-01
5.730698e-01
5.730579e-01
5.730434e-01
5.730270e-01
5.730055e-01
0.000000e+00
1.000000e+00
5.729874e-01
5.728897e-01
5.728413e-01
5.727788e-01
5.727192e-01
5.726689e-01
5.726346e-01