<?xml version="1.0"?>
<VTKFile type="StructuredGrid" version="0.1">
  <StructuredGrid WholeExtent="0 16 0 16 0 16">
    <Piece Extent="0 16 0 16 0 16">
      <PointData Scalars="temperature" Vectors="velocity">
        <DataArray type="Float32" Name="temperature" format="ascii">
1.000000e+00
5.730748e-01
5.730243e-01
5.730414e-01
5.730556e-01
5.730689e-01
5.730802e-01
5.730877e-01
5.730904e-01
5.730879e-01
5.730805e-01
5.730694e-01
5.730564e-01
5.730419e-01
5.730456e-01
5.728275e-01
0.000000e+00
1.000000e+00
5.730601e-01
5.730169e-01
5.730298e-01
5.730395e-01
5.730487e-01
5.730563e-01
5.730615e-01
5.730632e-01
5.730614e-01
5.730563e-01
5.730488e-01
5.730416e-01
5.730324e-01
5.730367e-01
5.727983e-01
0.000000e+00
1.000000e+00
5.729479e-01
5.727727e-01
5.726452e-01
5.725131e-01
5.723878e-01
5.722826e-01
5.722116e-01
5.721863e-01
5.722113e-01
5.722821e-01
5.723873e-01
5.725175e-01
5.726517e-01
5.728000e-01
5.727702e-01
0.000000e+00
1.000000e+00
5.726947e-01
5.722666e-01
5.718513e-01
5.714260e-01
5.710228e-01
5.706839e-01
5.704555e-01
5.703746e-01
5.704553e-01
5.706839e-01
5.710228e-01
5.714365e-01
5.718654e-01
5.722861e-01
5.725683e-01
0.000000e+00
1.000000e+00
5.723081e-01
5.714889e-01
5.706318e-01
5.697562e-01
5.689260e-01
5.682284e-01
5.677585e-01
5.675922e-01
5.677592e-01
5.682306e-01
5.689292e-01
5.697772e-01
5.706569e-01
5.715162e-01
5.721539e-01
0.000000e+00
1.000000e+00
5.717957e-01
5.704476e-01
5.689995e-01
5.675213e-01
5.661197e-01
5.649422e-01
5.641492e-01
5.638692e-01
5.641520e-01
5.649486e-01
5.661282e-01
5.675542e-01
5.690371e-01
5.704875e-01
5.716257e-01
0.000000e+00
1.000000e+00
5.711749e-01
5.691719e-01
5.670004e-01
5.647842e-01
5.626830e-01
5.609180e-01
5.597297e-01
5.593106e-01
5.597354e-01
5.609299e-01
5.626983e-01
5.648288e-01
5.670491e-01
5.692195e-01
5.710185e-01
0.000000e+00
1.000000e+00
5.704686e-01
5.677120e-01
5.647138e-01
5.616536e-01
5.587524e-01
5.563156e-01
5.546754e-01
5.540974e-01
5.546845e-01
5.563336e-01
5.587751e-01
5.617094e-01
5.647730e-01
5.677652e-01
5.703336e-01
0.000000e+00
1.000000e+00
5.697091e-01
5.661370e-01
5.622475e-01
5.582769e-01
5.545128e-01
5.513516e-01
5.492243e-01
5.484753e-01
5.492375e-01
5.513765e-01
5.545435e-01
5.583443e-01
5.623158e-01
5.661947e-01
5.695893e-01
0.000000e+00
1.000000e+00
5.689344e-01
5.645280e-01
5.597281e-01
5.548277e-01
5.501823e-01
5.462813e-01
5.436562e-01
5.427327e-01
5.436738e-01
5.463133e-01
5.502210e-01
5.549058e-01
5.598047e-01
5.645907e-01
5.688279e-01
0.000000e+00
1.000000e+00
5.681847e-01
5.629695e-01
5.572881e-01
5.514872e-01
5.459884e-01
5.413708e-01
5.382639e-01
5.371711e-01
5.382855e-01
5.414096e-01
5.460342e-01
5.515757e-01
5.573712e-01
5.630350e-01
5.680922e-01
0.000000e+00
1.000000e+00
5.674970e-01
5.615407e-01
5.550511e-01
5.484247e-01
5.421436e-01
5.368691e-01
5.333203e-01
5.320724e-01
5.333455e-01
5.369138e-01
5.421954e-01
5.485214e-01
5.551397e-01
5.616090e-01
5.674175e-01
0.000000e+00
1.000000e+00
5.669031e-01
5.603070e-01
5.531197e-01
5.457806e-01
5.388241e-01
5.329825e-01
5.290524e-01
5.276704e-01
5.290800e-01
5.330319e-01
5.388809e-01
5.458844e-01
5.532116e-01
5.603764e-01
5.668342e-01
0.000000e+00
1.000000e+00
5.664280e-01
5.593150e-01
5.515673e-01
5.436554e-01
5.361561e-01
5.298589e-01
5.256220e-01
5.241316e-01
5.256509e-01
5.299113e-01
5.362167e-01
5.437629e-01
5.516616e-01
5.593879e-01
5.663695e-01
0.000000e+00
1.000000e+00
5.660856e-01
5.585910e-01
5.504350e-01
5.421054e-01
5.342099e-01
5.275798e-01
5.231188e-01
5.215494e-01
5.231489e-01
5.276342e-01
5.342738e-01
5.422141e-01
5.505285e-01
5.586657e-01
5.660225e-01
0.000000e+00
1.000000e+00
5.658691e-01
5.581413e-01
5.497317e-01
5.411425e-01
5.330012e-01
5.261646e-01
5.215647e-01
5.199463e-01
5.215954e-01
5.262204e-01
5.330698e-01
5.412487e-01
5.498260e-01
5.582242e-01
5.658265e-01
0.000000e+00
1.000000e+00
5.657616e-01
5.579515e-01
5.494398e-01
5.407435e-01
5.325012e-01
5.255805e-01
5.209246e-01
5.192875e-01
5.209583e-01
5.256417e-01
5.325803e-01
5.408469e-01
5.495443e-01
5.580853e-01
5.655462e-01
0.000000e+00
1.000000e+00
5.730465e-01
5.730300e-01
5.730537e-01
5.730721e-01
5.730895e-01
5.731041e-01
5.731139e-01
5.731174e-01
5.731140e-01
5.731043e-01
5.730899e-01
5.730723e-01
5.730526e-01
5.730278e-01
5.729996e-01
0.000000e+00
1.000000e+00
5.729282e-01
5.727943e-01
5.726826e-01
5.725639e-01
5.724514e-01
5.723567e-01
5.722930e-01
5.722704e-01
5.722930e-01
5.723567e-01
5.724518e-01
5.725659e-01
5.726835e-01
5.727984e-01
5.727103e-01
0.000000e+00
1.000000e+00
5.726784e-01
5.722952e-01
5.718979e-01
5.714894e-01
5.711020e-01
5.707764e-01
5.705569e-01
5.704791e-01
5.705565e-01
5.707758e-01
5.711024e-01
5.714958e-01
5.719035e-01
5.723170e-01
5.725930e-01
0.000000e+00
1.000000e+00
5.722966e-01
5.715119e-01
5.706678e-01
5.698052e-01
5.689871e-01
5.682995e-01
5.678362e-01
5.676720e-01
5.678361e-01
5.683002e-01
5.689900e-01
5.698188e-01
5.706813e-01
5.715325e-01
5.722084e-01
0.000000e+00
1.000000e+00
5.717752e-01
5.704403e-01
5.689873e-01
5.675041e-01
5.660977e-01
5.649159e-01
5.641198e-01
5.638382e-01
5.641213e-01
5.649202e-01
5.661057e-01
5.675262e-01
5.690086e-01
5.704660e-01
5.716709e-01
0.000000e+00
1.000000e+00
5.711243e-01
5.690988e-01
5.668850e-01
5.646257e-01
5.624834e-01
5.606837e-01
5.594716e-01
5.590437e-01
5.594761e-01
5.606933e-01
5.624982e-01
5.646579e-01
5.669164e-01
5.691336e-01
5.710159e-01
0.000000e+00
1.000000e+00
5.703656e-01
5.675304e-01
5.644281e-01
5.612619e-01
5.582599e-01
5.557381e-01
5.540404e-01
5.534419e-01
5.540488e-01
5.557543e-01
5.582824e-01
5.613054e-01
5.644705e-01
5.675724e-01
5.702616e-01
0.000000e+00
1.000000e+00
5.695314e-01
5.658020e-01
5.617212e-01
5.575558e-01
5.536067e-01
5.502898e-01
5.480573e-01
5.472709e-01
5.480700e-01
5.503134e-01
5.536378e-01
5.576111e-01
5.617743e-01
5.658506e-01
5.694433e-01
0.000000e+00
1.000000e+00
5.686639e-01
5.639994e-01
5.588987e-01
5.536914e-01
5.487549e-01
5.446089e-01
5.418188e-01
5.408368e-01
5.418363e-01
5.446403e-01
5.487946e-01
5.537592e-01
5.589618e-01
5.640524e-01
5.685866e-01
0.000000e+00
1.000000e+00
5.678085e-01
5.622190e-01
5.561112e-01
5.498751e-01
5.439636e-01
5.389991e-01
5.356586e-01
5.344833e-01
5.356806e-01
5.390382e-01
5.440118e-01
5.499546e-01
5.561836e-01
5.622770e-01
5.677443e-01
0.000000e+00
1.000000e+00
5.670099e-01
5.605571e-01
5.535093e-01
5.463131e-01
5.394916e-01
5.337632e-01
5.299090e-01
5.285533e-01
5.299352e-01
5.338093e-01
5.395472e-01
5.464040e-01
5.535892e-01
5.606162e-01
5.669582e-01
0.000000e+00
1.000000e+00
5.663097e-01
5.590988e-01
5.512264e-01
5.431878e-01
5.355680e-01
5.291694e-01
5.248644e-01
5.233503e-01
5.248940e-01
5.292217e-01
5.356296e-01
5.432880e-01
5.513133e-01
5.591600e-01
5.662666e-01
0.000000e+00
1.000000e+00
5.657388e-01
5.579096e-01
5.493648e-01
5.406394e-01
5.323687e-01
5.254237e-01
5.207511e-01
5.191079e-01
5.207834e-01
5.254808e-01
5.324348e-01
5.407471e-01
5.494566e-01
5.579701e-01
5.657015e-01
0.000000e+00
1.000000e+00
5.653168e-01
5.570304e-01
5.479887e-01
5.387556e-01
5.300039e-01
5.226551e-01
5.177107e-01
5.159716e-01
5.177443e-01
5.227151e-01
5.300734e-01
5.388666e-01
5.480839e-01
5.570915e-01
5.652877e-01
0.000000e+00
1.000000e+00
5.650557e-01
5.564761e-01
5.471225e-01
5.375700e-01
5.285153e-01
5.209119e-01
5.157960e-01
5.139965e-01
5.158305e-01
5.209736e-01
5.285879e-01
5.376813e-01
5.472159e-01
5.565377e-01
5.650251e-01
0.000000e+00
1.000000e+00
5.649412e-01
5.562406e-01
5.467545e-01
5.370664e-01
5.278834e-01
5.201722e-01
5.149839e-01
5.131587e-01
5.150188e-01
5.202352e-01
5.279608e-01
5.371728e-01
5.468442e-01
5.563191e-01
5.649165e-01
0.000000e+00
1.000000e+00
5.650195e-01
5.562943e-01
5.468498e-01
5.371973e-01
5.280483e-01
5.203658e-01
5.151967e-01
5.133781e-01
5.152312e-01
5.204286e-01
5.281302e-01
5.372946e-01
5.469536e-01
5.565016e-01
5.646034e-01
0.000000e+00
1.000000e+00
5.731771e-01
5.732747e-01
5.734377e-01
5.735976e-01
5.737492e-01
5.738767e-01
5.739626e-01
5.739930e-01
5.739625e-01
5.738763e-01
5.737481e-01
5.735961e-01
5.734385e-01
5.732802e-01
5.732483e-01
0.000000e+00
1.000000e+00
5.729473e-01
5.728025e-01
5.726952e-01
5.725810e-01
5.724726e-01
5.723816e-01
5.723202e-01
5.722985e-01
5.723200e-01
5.723808e-01
5.724723e-01
5.725822e-01
5.726974e-01
5.728060e-01
5.729856e-01
0.000000e+00
1.000000e+00
5.725659e-01
5.720363e-01
5.714929e-01
5.709346e-01
5.704051e-01
5.699602e-01
5.696604e-01
5.695543e-01
5.696604e-01
5.699604e-01
5.704079e-01
5.709424e-01
5.714986e-01
5.720439e-01
5.725748e-01
0.000000e+00
1.000000e+00
5.720357e-01
5.709596e-01
5.698047e-01
5.686230e-01
5.675025e-01
5.665610e-01
5.659268e-01
5.657026e-01
5.659282e-01
5.665649e-01
5.675109e-01
5.686405e-01
5.698195e-01
5.709739e-01
5.719959e-01
0.000000e+00
1.000000e+00
5.713621e-01
5.695770e-01
5.676380e-01
5.656565e-01
5.637777e-01
5.621992e-01
5.611361e-01
5.607609e-01
5.611402e-01
5.622085e-01
5.637925e-01
5.656830e-01
5.676609e-01
5.696005e-01
5.713056e-01
0.000000e+00
1.000000e+00
5.705586e-01
5.679188e-01
5.650405e-01
5.621000e-01
5.593121e-01
5.569702e-01
5.553935e-01
5.548376e-01
5.554013e-01
5.569862e-01
5.593350e-01
5.621365e-01
5.650729e-01
5.679513e-01
5.704960e-01
0.000000e+00
1.000000e+00
5.696532e-01
5.660435e-01
5.621037e-01
5.580791e-01
5.542635e-01
5.510586e-01
5.489016e-01
5.481418e-01
5.489141e-01
5.510824e-01
5.542958e-01
5.581277e-01
5.621464e-01
5.660841e-01
5.695937e-01
0.000000e+00
1.000000e+00
5.686865e-01
5.640362e-01
5.589607e-01
5.537759e-01
5.488607e-01
5.447326e-01
5.419548e-01
5.409770e-01
5.419724e-01
5.447648e-01
5.489028e-01
5.538378e-01
5.590135e-01
5.640844e-01
5.686327e-01
0.000000e+00
1.000000e+00
5.677086e-01
5.620017e-01
5.557754e-01
5.494149e-01
5.433854e-01
5.383219e-01
5.349150e-01
5.337165e-01
5.349378e-01
5.383627e-01
5.434372e-01
5.494909e-01
5.558374e-01
5.620546e-01
5.676622e-01
0.000000e+00
1.000000e+00
5.667727e-01
5.600531e-01
5.527247e-01
5.452383e-01
5.381418e-01
5.321826e-01
5.281734e-01
5.267633e-01
5.282010e-01
5.322315e-01
5.382025e-01
5.453279e-01
5.527959e-01
5.601100e-01
5.667361e-01
0.000000e+00
1.000000e+00
5.659303e-01
5.582985e-01
5.499777e-01
5.414777e-01
5.334205e-01
5.266550e-01
5.221035e-01
5.205028e-01
5.221353e-01
5.267111e-01
5.334886e-01
5.415803e-01
5.500581e-01
5.583566e-01
5.659033e-01
0.000000e+00
1.000000e+00
5.652244e-01
5.568283e-01
5.476759e-01
5.383266e-01
5.294647e-01
5.220235e-01
5.170175e-01
5.152571e-01
5.170524e-01
5.220855e-01
5.295385e-01
5.384391e-01
5.477660e-01
5.568879e-01
5.652032e-01
0.000000e+00
1.000000e+00
5.646852e-01
5.557060e-01
5.459186e-01
5.359211e-01
5.264449e-01
5.184879e-01
5.131348e-01
5.112522e-01
5.131720e-01
5.185544e-01
5.265227e-01
5.360397e-01
5.460173e-01
5.557636e-01
5.646691e-01
0.000000e+00
1.000000e+00
5.643283e-01
5.549640e-01
5.447566e-01
5.343305e-01
5.244481e-01
5.161501e-01
5.105676e-01
5.086041e-01
5.106058e-01
5.162193e-01
5.245289e-01
5.344502e-01
5.448612e-01
5.550206e-01
5.643140e-01
0.000000e+00
1.000000e+00
5.641621e-01
5.546036e-01
5.441938e-01
5.335602e-01
5.234810e-01
5.150174e-01
5.093233e-01
5.073206e-01
5.093622e-01
5.150879e-01
5.235647e-01
5.336786e-01
5.442945e-01
5.546603e-01
5.641473e-01
0.000000e+00
1.000000e+00
5.641614e-01
5.546043e-01
5.441946e-01
5.335615e-01
5.234829e-01
5.150197e-01
5.093256e-01
5.073228e-01
5.093645e-01
5.150902e-01
5.235697e-01
5.336731e-01
5.442923e-01
5.546881e-01
5.641360e-01
0.000000e+00
1.000000e+00
5.643671e-01
5.549198e-01
5.446984e-01
5.342518e-01
5.243500e-01
5.160355e-01
5.104412e-01
5.084733e-01
5.104790e-01
5.161046e-01
5.244392e-01
5.343550e-01
5.448087e-01
5.551515e-01
5.639264e-01
0.000000e+00
1.000000e+00
5.734353e-01
5.737817e-01
5.742310e-01
5.746838e-01
5.751133e-01
5.754742e-01
5.757173e-01
5.758030e-01
5.757160e-01
5.754719e-01
5.751109e-01
5.746825e-01
5.742371e-01
5.737954e-01
5.733241e-01
0.000000e+00
1.000000e+00
5.730864e-01
5.730725e-01
5.731171e-01
5.731586e-01
5.731980e-01
5.732312e-01
5.732536e-01
5.732613e-01
5.732526e-01
5.732289e-01
5.731964e-01
5.731602e-01
5.731263e-01
5.730832e-01
5.730516e-01
0.000000e+00
1.000000e+00
5.725819e-01
5.720374e-01
5.714938e-01
5.709361e-01
5.704073e-01
5.699631e-01
5.696638e-01
5.695578e-01
5.696636e-01
5.699630e-01
5.704116e-01
5.709447e-01
5.715052e-01
5.720437e-01
5.725478e-01
0.000000e+00
1.000000e+00
5.719074e-01
5.706640e-01
5.693424e-01
5.679904e-01
5.667085e-01
5.656315e-01
5.649063e-01
5.646502e-01
5.649088e-01
5.656378e-01
5.667218e-01
5.680096e-01
5.693604e-01
5.706824e-01
5.718042e-01
0.000000e+00
1.000000e+00
5.710799e-01
5.689657e-01
5.666829e-01
5.643489e-01
5.621360e-01
5.602771e-01
5.590257e-01
5.585846e-01
5.590323e-01
5.602913e-01
5.621575e-01
5.643804e-01
5.667113e-01
5.689963e-01
5.709719e-01
0.000000e+00
1.000000e+00
5.701205e-01
5.669858e-01
5.635830e-01
5.601045e-01
5.568067e-01
5.540368e-01
5.521726e-01
5.515161e-01
5.521839e-01
5.540595e-01
5.568369e-01
5.601463e-01
5.636199e-01
5.670234e-01
5.700197e-01
0.000000e+00
1.000000e+00
5.690660e-01
5.648002e-01
5.601615e-01
5.554198e-01
5.509247e-01
5.471496e-01
5.446094e-01
5.437155e-01
5.446261e-01
5.471817e-01
5.509656e-01
5.554741e-01
5.602071e-01
5.648454e-01
5.689759e-01
0.000000e+00
1.000000e+00
5.679658e-01
5.625140e-01
5.565827e-01
5.505198e-01
5.447726e-01
5.399465e-01
5.366995e-01
5.355575e-01
5.367220e-01
5.399883e-01
5.448256e-01
5.505892e-01
5.566372e-01
5.625671e-01
5.678911e-01
0.000000e+00
1.000000e+00
5.668793e-01
5.602522e-01
5.530420e-01
5.456722e-01
5.386865e-01
5.328207e-01
5.288747e-01
5.274871e-01
5.289028e-01
5.328719e-01
5.387506e-01
5.457578e-01
5.531046e-01
5.603085e-01
5.668173e-01
0.000000e+00
1.000000e+00
5.658679e-01
5.581452e-01
5.497434e-01
5.411563e-01
5.330170e-01
5.261829e-01
5.215856e-01
5.199692e-01
5.216187e-01
5.262424e-01
5.330907e-01
5.412580e-01
5.498160e-01
5.582065e-01
5.658187e-01
0.000000e+00
1.000000e+00
5.649877e-01
5.563125e-01
5.468741e-01
5.372284e-01
5.280858e-01
5.204095e-01
5.152457e-01
5.134301e-01
5.152828e-01
5.204758e-01
5.281669e-01
5.373445e-01
5.469571e-01
5.563766e-01
5.649447e-01
0.000000e+00
1.000000e+00
5.642841e-01
5.548487e-01
5.445819e-01
5.340905e-01
5.241466e-01
5.157974e-01
5.101808e-01
5.082060e-01
5.102208e-01
5.158690e-01
5.242330e-01
5.342160e-01
5.446765e-01
5.549139e-01
5.642447e-01
0.000000e+00
1.000000e+00
5.637848e-01
5.538131e-01
5.429596e-01
5.318698e-01
5.213589e-01
5.125335e-01
5.065963e-01
5.045085e-01
5.066381e-01
5.126091e-01
5.214491e-01
5.319981e-01
5.430672e-01
5.538752e-01
5.637518e-01
0.000000e+00
1.000000e+00
5.635012e-01
5.532269e-01
5.420409e-01
5.306125e-01
5.197805e-01
5.106857e-01
5.045673e-01
5.024154e-01
5.046098e-01
5.107637e-01
5.198739e-01
5.307368e-01
5.421599e-01
5.532871e-01
5.634715e-01
0.000000e+00
1.000000e+00
5.634356e-01
5.530765e-01
5.418064e-01
5.302915e-01
5.193773e-01
5.102131e-01
5.040480e-01
5.018799e-01
5.040911e-01
5.102920e-01
5.194731e-01
5.304118e-01
5.419204e-01
5.531366e-01
5.634117e-01
0.000000e+00
1.000000e+00
5.635546e-01
5.533245e-01
5.421935e-01
5.308216e-01
5.200428e-01
5.109922e-01
5.049032e-01
5.027619e-01
5.049459e-01
5.110701e-01
5.201395e-01
5.309349e-01
5.423028e-01
5.534152e-01
5.635141e-01
0.000000e+00
1.000000e+00
5.638869e-01
5.539070e-01
5.431141e-01
5.320827e-01
5.216269e-01
5.128473e-01
5.069406e-01
5.048632e-01
5.069818e-01
5.129232e-01
5.217229e-01
5.321915e-01
5.432350e-01
5.541341e-01
5.634562e-01
0.000000e+00
1.000000e+00
5.738135e-01
5.745602e-01
5.754507e-01
5.763542e-01
5.772110e-01
5.779310e-01
5.784160e-01
5.785874e-01
5.784152e-01
5.779302e-01
5.772125e-01
5.763581e-01
5.754672e-01
5.745879e-01
5.736040e-01
0.000000e+00
1.000000e+00
5.733540e-01
5.736251e-01
5.739811e-01
5.743419e-01
5.746842e-01
5.749717e-01
5.751652e-01
5.752331e-01
5.751629e-01
5.749677e-01
5.746817e-01
5.743456e-01
5.739993e-01
5.736496e-01
5.732480e-01
0.000000e+00
1.000000e+00
5.727193e-01
5.723303e-01
5.719513e-01
5.715626e-01
5.711941e-01
5.708845e-01
5.706759e-01
5.706018e-01
5.706750e-01
5.708831e-01
5.711982e-01
5.715731e-01
5.719739e-01
5.723477e-01
5.726297e-01
0.000000e+00
1.000000e+00
5.719178e-01
5.706692e-01
5.693498e-01
5.680007e-01
5.667216e-01
5.656472e-01
5.649239e-01
5.646687e-01
5.649269e-01
5.656544e-01
5.667383e-01
5.680216e-01
5.693753e-01
5.706962e-01
5.717687e-01
0.000000e+00
1.000000e+00
5.709453e-01
5.686641e-01
5.662110e-01
5.637030e-01
5.613254e-01
5.593285e-01
5.579846e-01
5.575113e-01
5.579931e-01
5.593466e-01
5.613537e-01
5.637377e-01
5.662457e-01
5.687052e-01
5.708206e-01
0.000000e+00
1.000000e+00
5.698387e-01
5.663720e-01
5.626239e-01
5.587914e-01
5.551584e-01
5.521074e-01
5.500547e-01
5.493325e-01
5.500692e-01
5.521363e-01
5.551968e-01
5.588398e-01
5.626674e-01
5.664196e-01
5.697296e-01
0.000000e+00
1.000000e+00
5.686424e-01
5.638869e-01
5.587350e-01
5.534668e-01
5.484730e-01
5.442798e-01
5.414589e-01
5.404671e-01
5.414796e-01
5.443198e-01
5.485224e-01
5.535283e-01
5.587867e-01
5.639409e-01
5.685386e-01
0.000000e+00
1.000000e+00
5.674157e-01
5.613345e-01
5.547409e-01
5.479983e-01
5.416073e-01
5.362413e-01
5.326318e-01
5.313630e-01
5.326588e-01
5.362925e-01
5.416693e-01
5.480747e-01
5.548008e-01
5.613943e-01
5.673199e-01
0.000000e+00
1.000000e+00
5.662282e-01
5.588604e-01
5.508690e-01
5.426972e-01
5.349521e-01
5.284494e-01
5.240756e-01
5.225382e-01
5.241085e-01
5.285111e-01
5.350268e-01
5.427909e-01
5.509378e-01
5.589235e-01
5.661460e-01
0.000000e+00
1.000000e+00
5.651488e-01
5.566121e-01
5.473499e-01
5.378794e-01
5.289037e-01
5.213681e-01
5.162995e-01
5.145179e-01
5.163374e-01
5.214383e-01
5.289900e-01
5.379903e-01
5.474282e-01
5.566802e-01
5.650844e-01
0.000000e+00
1.000000e+00
5.642393e-01
5.547197e-01
5.443872e-01
5.338238e-01
5.238122e-01
5.154069e-01
5.097532e-01
5.077658e-01
5.097950e-01
5.154835e-01
5.239071e-01
5.339490e-01
5.444761e-01
5.547881e-01
5.641880e-01
0.000000e+00
1.000000e+00
5.635457e-01
5.532802e-01
5.421324e-01
5.307372e-01
5.199373e-01
5.108699e-01
5.047706e-01
5.026263e-01
5.048149e-01
5.109508e-01
5.200379e-01
5.308701e-01
5.422343e-01
5.533499e-01
5.635053e-01
0.000000e+00
1.000000e+00
5.630919e-01
5.523468e-01
5.406690e-01
5.287341e-01
5.174225e-01
5.079252e-01
5.015363e-01
4.992901e-01
5.015825e-01
5.080096e-01
5.175271e-01
5.288663e-01
5.407861e-01
5.524165e-01
5.630631e-01
0.000000e+00
1.000000e+00
5.628910e-01
5.519267e-01
5.400109e-01
5.278336e-01
5.162922e-01
5.066018e-01
5.000828e-01
4.977904e-01
5.001293e-01
5.066879e-01
5.163995e-01
5.279581e-01
5.401406e-01
5.520049e-01
5.628547e-01
0.000000e+00
1.000000e+00
5.629229e-01
5.519914e-01
5.401121e-01
5.279721e-01
5.164658e-01
5.068050e-01
5.003062e-01
4.980213e-01
5.003532e-01
5.068919e-01
5.165755e-01
5.280915e-01
5.402300e-01
5.520737e-01
5.628906e-01
0.000000e+00
1.000000e+00
5.631615e-01
5.524860e-01
5.408840e-01
5.290286e-01
5.177920e-01
5.083572e-01
5.020103e-01
4.997789e-01
5.020563e-01
5.084418e-01
5.178989e-01
5.291412e-01
5.409979e-01
5.525954e-01
5.631144e-01
0.000000e+00
1.000000e+00
5.636140e-01
5.533289e-01
5.422102e-01
5.308451e-01
5.200732e-01
5.110286e-01
5.049440e-01
5.028046e-01
5.049880e-01
5.111102e-01
5.201752e-01
5.309592e-01
5.423419e-01
5.535461e-01
5.631920e-01
0.000000e+00
1.000000e+00
5.743228e-01
5.756047e-01
5.770891e-01
5.785975e-01
5.800278e-01
5.812298e-01
5.820396e-01
5.823262e-01
5.820394e-01
5.812309e-01
5.800359e-01
5.786111e-01
5.771195e-01
5.756451e-01
5.740594e-01
0.000000e+00
1.000000e+00
5.737571e-01
5.744615e-01
5.752913e-01
5.761358e-01
5.769367e-01
5.776098e-01
5.780631e-01
5.782230e-01
5.780611e-01
5.776064e-01
5.769369e-01
5.761450e-01
5.753232e-01
5.745004e-01
5.735899e-01
0.000000e+00
1.000000e+00
5.730081e-01
5.729283e-01
5.728859e-01
5.728424e-01
5.728013e-01
5.727669e-01
5.727437e-01
5.727350e-01
5.727423e-01
5.727646e-01
5.728048e-01
5.728561e-01
5.729206e-01
5.729591e-01
5.728697e-01
0.000000e+00
1.000000e+00
5.720710e-01
5.710015e-01
5.698690e-01
5.687117e-01
5.676146e-01
5.666933e-01
5.660732e-01
5.658545e-01
5.660760e-01
5.666998e-01
5.676330e-01
5.687361e-01
5.699082e-01
5.710375e-01
5.718891e-01
0.000000e+00
1.000000e+00
5.709703e-01
5.687137e-01
5.662883e-01
5.638089e-01
5.614586e-01
5.594850e-01
5.581573e-01
5.576901e-01
5.581669e-01
5.595055e-01
5.614923e-01
5.638454e-01
5.663328e-01
5.687617e-01
5.707963e-01
0.000000e+00
1.000000e+00
5.697328e-01
5.661355e-01
5.622539e-01
5.582851e-01
5.545231e-01
5.513643e-01
5.492397e-01
5.484930e-01
5.492567e-01
5.513982e-01
5.545698e-01
5.583362e-01
5.623045e-01
5.661902e-01
5.695847e-01
0.000000e+00
1.000000e+00
5.684135e-01
5.633782e-01
5.579402e-01
5.523789e-01
5.471077e-01
5.426822e-01
5.397057e-01
5.386600e-01
5.397297e-01
5.427286e-01
5.471665e-01
5.524459e-01
5.579994e-01
5.634401e-01
5.682856e-01
0.000000e+00
1.000000e+00
5.670779e-01
5.605875e-01
5.535745e-01
5.464016e-01
5.396037e-01
5.338966e-01
5.300583e-01
5.287098e-01
5.300889e-01
5.339553e-01
5.396753e-01
5.464846e-01
5.536408e-01
5.606556e-01
5.669720e-01
0.000000e+00
1.000000e+00
5.658041e-01
5.579283e-01
5.494143e-01
5.407062e-01
5.324537e-01
5.255257e-01
5.208662e-01
5.192290e-01
5.209027e-01
5.255956e-01
5.325383e-01
5.408066e-01
5.494891e-01
5.580012e-01
5.657174e-01
0.000000e+00
1.000000e+00
5.646694e-01
5.555638e-01
5.457147e-01
5.356414e-01
5.260954e-01
5.180816e-01
5.126916e-01
5.107974e-01
5.127330e-01
5.181605e-01
5.261919e-01
5.357581e-01
5.457986e-01
5.556393e-01
5.645942e-01
0.000000e+00
1.000000e+00
5.637401e-01
5.536333e-01
5.426928e-01
5.315047e-01
5.209021e-01
5.120011e-01
5.060140e-01
5.039097e-01
5.060591e-01
5.120861e-01
5.210086e-01
5.316342e-01
5.427870e-01
5.537080e-01
5.636683e-01
0.000000e+00
1.000000e+00
5.630615e-01
5.522341e-01
5.405008e-01
5.285039e-01
5.171346e-01
5.075895e-01
5.011691e-01
4.989121e-01
5.012166e-01
5.076784e-01
5.172487e-01
5.286402e-01
5.406073e-01
5.523119e-01
5.629930e-01
0.000000e+00
1.000000e+00
5.626547e-01
5.514120e-01
5.392102e-01
5.267371e-01
5.149161e-01
5.049915e-01
4.983158e-01
4.959692e-01
4.983654e-01
5.050839e-01
5.150355e-01
5.268735e-01
5.393284e-01
5.514948e-01
5.625969e-01
0.000000e+00
1.000000e+00
5.625434e-01
5.511593e-01
5.388145e-01
5.261956e-01
5.142360e-01
5.041949e-01
4.974404e-01
4.950659e-01
4.974903e-01
5.042883e-01
5.143572e-01
5.263250e-01
5.389339e-01
5.512552e-01
5.624637e-01
0.000000e+00
1.000000e+00
5.626659e-01
5.514310e-01
5.392398e-01
5.267780e-01
5.149675e-01
5.050516e-01
4.983816e-01
4.960370e-01
4.984313e-01
5.051448e-01
5.150890e-01
5.269014e-01
5.393496e-01
5.515345e-01
5.625917e-01
0.000000e+00
1.000000e+00
5.630140e-01
5.521572e-01
5.403729e-01
5.283288e-01
5.169137e-01
5.073296e-01
5.008827e-01
4.986166e-01
5.009309e-01
5.074192e-01
5.170285e-01
5.284444e-01
5.404884e-01
5.522753e-01
5.629283e-01
0.000000e+00
1.000000e+00
5.635727e-01
5.532399e-01
5.420714e-01
5.306549e-01
5.198346e-01
5.107498e-01
5.046386e-01
5.024904e-01
5.046844e-01
5.108353e-01
5.199412e-01
5.307762e-01
5.421908e-01
5.534208e-01
5.632473e-01
0.000000e+00
1.000000e+00
5.749531e-01
5.768874e-01
5.791010e-01
5.813523e-01
5.834872e-01
5.852813e-01
5.864900e-01
5.869178e-01
5.864906e-01
5.852869e-01
5.835059e-01
5.813797e-01
5.791437e-01
5.769389e-01
5.746854e-01
0.000000e+00
1.000000e+00
5.742902e-01
5.755615e-01
5.770166e-01
5.784982e-01
5.799032e-01
5.810839e-01
5.818792e-01
5.821603e-01
5.818770e-01
5.810813e-01
5.799092e-01
5.785184e-01
5.770658e-01
5.756131e-01
5.741259e-01
0.000000e+00
1.000000e+00
5.734322e-01
5.738206e-01
5.742831e-01
5.747553e-01
5.752032e-01
5.755796e-01
5.758333e-01
5.759227e-01
5.758316e-01
5.755767e-01
5.752057e-01
5.747737e-01
5.743314e-01
5.738659e-01
5.733268e-01
0.000000e+00
1.000000e+00
5.723849e-01
5.716634e-01
5.709040e-01
5.701287e-01
5.693940e-01
5.687774e-01
5.683628e-01
5.682167e-01
5.683650e-01
5.687822e-01
5.694123e-01
5.701582e-01
5.709560e-01
5.717120e-01
5.722506e-01
0.000000e+00
1.000000e+00
5.711661e-01
5.691312e-01
5.669414e-01
5.647032e-01
5.625819e-01
5.608011e-01
5.596033e-01
5.591824e-01
5.596132e-01
5.608216e-01
5.626190e-01
5.647434e-01
5.670022e-01
5.691947e-01
5.710493e-01
0.000000e+00
1.000000e+00
5.698155e-01
5.663088e-01
5.625254e-01
5.586568e-01
5.549902e-01
5.519121e-01
5.498423e-01
5.491156e-01
5.498609e-01
5.519488e-01
5.550431e-01
5.587090e-01
5.625872e-01
5.663776e-01
5.697163e-01
0.000000e+00
1.000000e+00
5.683942e-01
5.633233e-01
5.578545e-01
5.522619e-01
5.469615e-01
5.425120e-01
5.395201e-01
5.384698e-01
5.395464e-01
5.425629e-01
5.470287e-01
5.523282e-01
5.579206e-01
5.633962e-01
5.682803e-01
0.000000e+00
1.000000e+00
5.669775e-01
5.603376e-01
5.531840e-01
5.458677e-01
5.389345e-01
5.331144e-01
5.292005e-01
5.278260e-01
5.292334e-01
5.331779e-01
5.390156e-01
5.459515e-01
5.532567e-01
5.604139e-01
5.668390e-01
0.000000e+00
1.000000e+00
5.656436e-01
5.575331e-01
5.487972e-01
5.398625e-01
5.313961e-01
5.242888e-01
5.195089e-01
5.178297e-01
5.195475e-01
5.243635e-01
5.314905e-01
5.399642e-01
5.488767e-01
5.576135e-01
5.655027e-01
0.000000e+00
1.000000e+00
5.644720e-01
5.550855e-01
5.449689e-01
5.346220e-01
5.248174e-01
5.165865e-01
5.110504e-01
5.091051e-01
5.110938e-01
5.166701e-01
5.249235e-01
5.347398e-01
5.450549e-01
5.551677e-01
5.643502e-01
0.000000e+00
1.000000e+00
5.635322e-01
5.531406e-01
5.419260e-01
5.304563e-01
5.195875e-01
5.104629e-01
5.043255e-01
5.021685e-01
5.043725e-01
5.105529e-01
5.197032e-01
5.305857e-01
5.420183e-01
5.532236e-01
5.634471e-01
0.000000e+00
1.000000e+00
5.628700e-01
5.517950e-01
5.398180e-01
5.275702e-01
5.159636e-01
5.062193e-01
4.996648e-01
4.973609e-01
4.997142e-01
5.063134e-01
5.160874e-01
5.277053e-01
5.399162e-01
5.518809e-01
5.628304e-01
0.000000e+00
1.000000e+00
5.625140e-01
5.510846e-01
5.387030e-01
5.260436e-01
5.140466e-01
5.039746e-01
4.971998e-01
4.948184e-01
4.972507e-01
5.040715e-01
5.141761e-01
5.261790e-01
5.388041e-01
5.511791e-01
5.625039e-01
0.000000e+00
1.000000e+00
5.624741e-01
5.509901e-01
5.385540e-01
5.258394e-01
5.137898e-01
5.036736e-01
4.968691e-01
4.944774e-01
4.969208e-01
5.037719e-01
5.139202e-01
5.259712e-01
5.386542e-01
5.511033e-01
5.624475e-01
0.000000e+00
1.000000e+00
5.626898e-01
5.514501e-01
5.392735e-01
5.268244e-01
5.150263e-01
5.051213e-01
4.984590e-01
4.961177e-01
4.985102e-01
5.052182e-01
5.151537e-01
5.269531e-01
5.393746e-01
5.515757e-01
5.626805e-01
0.000000e+00
1.000000e+00
5.631299e-01
5.523793e-01
5.407234e-01
5.288087e-01
5.175166e-01
5.080363e-01
5.016596e-01
4.994188e-01
5.017089e-01
5.081285e-01
5.176350e-01
5.289303e-01
5.408280e-01
5.525087e-01
5.630813e-01
0.000000e+00
1.000000e+00
5.637742e-01
5.536673e-01
5.427407e-01
5.315710e-01
5.209849e-01
5.120971e-01
5.061190e-01
5.040182e-01
5.061656e-01
5.121844e-01
5.210942e-01
5.316952e-01
5.428435e-01
5.538073e-01
5.635951e-01
0.000000e+00
1.000000e+00
5.756790e-01
5.783577e-01
5.814094e-01
5.845130e-01
5.874564e-01
5.899300e-01
5.915969e-01
5.921874e-01
5.915998e-01
5.899434e-01
5.874865e-01
5.845529e-01
5.814621e-01
5.784280e-01
5.753780e-01
0.000000e+00
1.000000e+00
5.749371e-01
5.768822e-01
5.790867e-01
5.813329e-01
5.834629e-01
5.852528e-01
5.864587e-01
5.868853e-01
5.864573e-01
5.852545e-01
5.834796e-01
5.813686e-01
5.791503e-01
5.769513e-01
5.747191e-01
0.000000e+00
1.000000e+00
5.739893e-01
5.749698e-01
5.760844e-01
5.772218e-01
5.783005e-01
5.792069e-01
5.798176e-01
5.800333e-01
5.798155e-01
5.792038e-01
5.783050e-01
5.772492e-01
5.761505e-01
5.750510e-01
5.737955e-01
0.000000e+00
1.000000e+00
5.728403e-01
5.726285e-01
5.724134e-01
5.721952e-01
5.719887e-01
5.718161e-01
5.717008e-01
5.716606e-01
5.717023e-01
5.718185e-01
5.720035e-01
5.722300e-01
5.724752e-01
5.727283e-01
5.725647e-01
0.000000e+00
1.000000e+00
5.715278e-01
5.699024e-01
5.681480e-01
5.663552e-01
5.646564e-01
5.632310e-01
5.622730e-01
5.619365e-01
5.622818e-01
5.632490e-01
5.646942e-01
5.664005e-01
5.682236e-01
5.700440e-01
5.711794e-01
0.000000e+00
1.000000e+00
5.700931e-01
5.668905e-01
5.634363e-01
5.599043e-01
5.565573e-01
5.537478e-01
5.518592e-01
5.511968e-01
5.518779e-01
5.537846e-01
5.566134e-01
5.599610e-01
5.635181e-01
5.670639e-01
5.697788e-01
0.000000e+00
1.000000e+00
5.685961e-01
5.637345e-01
5.584982e-01
5.531434e-01
5.480692e-01
5.438097e-01
5.409463e-01
5.399420e-01
5.409737e-01
5.438626e-01
5.481412e-01
5.532102e-01
5.585789e-01
5.639077e-01
5.684050e-01
0.000000e+00
1.000000e+00
5.671166e-01
5.606101e-01
5.536097e-01
5.464514e-01
5.396683e-01
5.339745e-01
5.301460e-01
5.288021e-01
5.301798e-01
5.340402e-01
5.397554e-01
5.465305e-01
5.536923e-01
5.607678e-01
5.669942e-01
0.000000e+00
1.000000e+00
5.657600e-01
5.577115e-01
5.490738e-01
5.402428e-01
5.318748e-01
5.248500e-01
5.201256e-01
5.184663e-01
5.201648e-01
5.249261e-01
5.319756e-01
5.403379e-01
5.491602e-01
5.578482e-01
5.656583e-01
0.000000e+00
1.000000e+00
5.645800e-01
5.552212e-01
5.451784e-01
5.349109e-01
5.251813e-01
5.170131e-01
5.115191e-01
5.095887e-01
5.115628e-01
5.170977e-01
5.252939e-01
5.350215e-01
5.452685e-01
5.553402e-01
5.644916e-01
0.000000e+00
1.000000e+00
5.636359e-01
5.532866e-01
5.421550e-01
5.307717e-01
5.199845e-01
5.109280e-01
5.048363e-01
5.026955e-01
5.048836e-01
5.110189e-01
5.201061e-01
5.308944e-01
5.422485e-01
5.534100e-01
5.635489e-01
0.000000e+00
1.000000e+00
5.629853e-01
5.520044e-01
5.401476e-01
5.280226e-01
5.165323e-01
5.068856e-01
5.003968e-01
4.981163e-01
5.004468e-01
5.069813e-01
5.166602e-01
5.281516e-01
5.402435e-01
5.521576e-01
5.628899e-01
0.000000e+00
1.000000e+00
5.627033e-01
5.514007e-01
5.392016e-01
5.267269e-01
5.149051e-01
5.049800e-01
4.983039e-01
4.959574e-01
4.983548e-01
5.050776e-01
5.150350e-01
5.268578e-01
5.393023e-01
5.516040e-01
5.625541e-01
0.000000e+00
1.000000e+00
5.627082e-01
5.514440e-01
5.392688e-01
5.268188e-01
5.150205e-01
5.051156e-01
4.984534e-01
4.961122e-01
4.985052e-01
5.052149e-01
5.151510e-01
5.269508e-01
5.393728e-01
5.516802e-01
5.625617e-01
0.000000e+00
1.000000e+00
5.629948e-01
5.520630e-01
5.402353e-01
5.281413e-01
5.166802e-01
5.070586e-01
5.005873e-01
4.983136e-01
5.006384e-01
5.071560e-01
5.168066e-01
5.282719e-01
5.403390e-01
5.523059e-01
5.628828e-01
0.000000e+00
1.000000e+00
5.635075e-01
5.531562e-01
5.419413e-01
5.304760e-01
5.196103e-01
5.104883e-01
5.043532e-01