<?xml version="1.0"?>
<VTKFile type="StructuredGrid" version="0.1">
  <StructuredGrid WholeExtent="0 16 0 16 0 16">
    <Piece Extent="0 16 0 16 0 16">
      <PointData Scalars="temperature" Vectors="velocity">
        <DataArray type="Float32" Name="temperature" format="ascii">
1.000000e+00
5.730116e-01
5.730244e-01
5.730381e-01
5.730522e-01
5.730656e-01
5.730768e-01
5.730844e-01
5.730870e-01
5.730844e-01
5.730768e-01
5.730656e-01
5.730522e-01
5.730381e-01
5.730244e-01
5.730116e-01
0.000000e+00
1.000000e+00
5.730149e-01
5.730313e-01
5.730490e-01
5.730671e-01
5.730843e-01
5.730987e-01
5.731084e-01
5.731118e-01
5.731084e-01
5.730987e-01
5.730843e-01
5.730671e-01
5.730490e-01
5.730313e-01
5.730149e-01
0.000000e+00
1.000000e+00
5.731308e-01
5.732759e-01
5.734317e-01
5.735911e-01
5.737423e-01
5.738693e-01
5.739549e-01
5.739852e-01
5.739549e-01
5.738693e-01
5.737423e-01
5.735911e-01
5.734317e-01
5.732759e-01
5.731308e-01
0.000000e+00
1.000000e+00
5.733711e-01
5.737827e-01
5.742250e-01
5.746773e-01
5.751061e-01
5.754665e-01
5.757094e-01
5.757954e-01
5.757094e-01
5.754665e-01
5.751061e-01
5.746773e-01
5.742250e-01
5.737827e-01
5.733711e-01
0.000000e+00
1.000000e+00
5.737411e-01
5.745632e-01
5.754465e-01
5.763498e-01
5.772064e-01
5.779262e-01
5.784112e-01
5.785830e-01
5.784112e-01
5.779262e-01
5.772064e-01
5.763498e-01
5.754465e-01
5.745632e-01
5.737411e-01
0.000000e+00
1.000000e+00
5.742377e-01
5.756107e-01
5.770858e-01
5.785944e-01
5.800250e-01
5.812271e-01
5.820372e-01
5.823241e-01
5.820372e-01
5.812271e-01
5.800250e-01
5.785944e-01
5.770858e-01
5.756107e-01
5.742377e-01
0.000000e+00
1.000000e+00
5.748477e-01
5.768975e-01
5.790996e-01
5.813517e-01
5.834873e-01
5.852819e-01
5.864912e-01
5.869195e-01
5.864912e-01
5.852819e-01
5.834873e-01
5.813517e-01
5.790996e-01
5.768975e-01
5.748477e-01
0.000000e+00
1.000000e+00
5.755478e-01
5.783742e-01
5.814106e-01
5.845161e-01
5.874608e-01
5.899354e-01
5.916029e-01
5.921935e-01
5.916029e-01
5.899354e-01
5.874608e-01
5.845161e-01
5.814106e-01
5.783742e-01
5.755478e-01
0.000000e+00
1.000000e+00
5.763057e-01
5.799729e-01
5.839127e-01
5.879419e-01
5.917627e-01
5.949734e-01
5.971370e-01
5.979032e-01
5.971370e-01
5.949734e-01
5.917627e-01
5.879419e-01
5.839127e-01
5.799729e-01
5.763057e-01
0.000000e+00
1.000000e+00
5.770834e-01
5.816132e-01
5.864797e-01
5.914569e-01
5.961764e-01
6.001425e-01
6.028149e-01
6.037615e-01
6.028149e-01
6.001425e-01
5.961764e-01
5.914569e-01
5.864797e-01
5.816132e-01
5.770834e-01
0.000000e+00
1.000000e+00
5.778406e-01
5.832105e-01
5.889795e-01
5.948796e-01
6.004744e-01
6.051759e-01
6.083439e-01
6.094660e-01
6.083439e-01
6.051759e-01
6.004744e-01
5.948796e-01
5.889795e-01
5.832105e-01
5.778406e-01
0.000000e+00
1.000000e+00
5.785397e-01
5.846850e-01
5.912872e-01
5.980394e-01
6.044421e-01
6.098226e-01
6.134482e-01
6.147323e-01
6.134482e-01
6.098226e-01
6.044421e-01
5.980394e-01
5.912872e-01
5.846850e-01
5.785397e-01
0.000000e+00
1.000000e+00
5.791489e-01
5.859701e-01
5.932983e-01
6.007931e-01
6.079000e-01
6.138722e-01
6.178966e-01
6.193218e-01
6.178966e-01
6.138722e-01
6.079000e-01
6.007931e-01
5.932983e-01
5.859701e-01
5.791489e-01
0.000000e+00
1.000000e+00
5.796454e-01
5.870173e-01
5.949372e-01
6.030370e-01
6.107177e-01
6.171721e-01
6.215214e-01
6.230617e-01
6.215214e-01
6.171721e-01
6.107177e-01
6.030370e-01
5.949372e-01
5.870173e-01
5.796454e-01
0.000000e+00
1.000000e+00
5.800158e-01
5.877987e-01
5.961600e-01
6.047114e-01
6.128203e-01
6.196344e-01
6.242261e-01
6.258524e-01
6.242261e-01
6.196344e-01
6.128203e-01
6.047114e-01
5.961600e-01
5.877987e-01
5.800158e-01
0.000000e+00
1.000000e+00
5.802564e-01
5.883061e-01
5.969542e-01
6.057989e-01
6.141858e-01
6.212336e-01
6.259828e-01
6.276648e-01
6.259828e-01
6.212336e-01
6.141858e-01
6.057989e-01
5.969542e-01
5.883061e-01
5.802564e-01
0.000000e+00
1.000000e+00
5.803713e-01
5.885484e-01
5.973334e-01
6.063180e-01
6.148377e-01
6.219971e-01
6.268214e-01
6.285300e-01
6.268214e-01
6.219971e-01
6.148377e-01
6.063180e-01
5.973334e-01
5.885484e-01
5.803713e-01
0.000000e+00
1.000000e+00
5.729099e-01
5.728099e-01
5.727025e-01
5.725927e-01
5.724885e-01
5.724010e-01
5.723420e-01
5.723211e-01
5.723420e-01
5.724010e-01
5.724885e-01
5.725927e-01
5.727025e-01
5.728099e-01
5.729099e-01
0.000000e+00
1.000000e+00
5.730203e-01
5.730429e-01
5.730671e-01
5.730919e-01
5.731154e-01
5.731352e-01
5.731485e-01
5.731532e-01
5.731485e-01
5.731352e-01
5.731154e-01
5.730919e-01
5.730671e-01
5.730429e-01
5.730203e-01
0.000000e+00
1.000000e+00
5.732569e-01
5.735419e-01
5.738480e-01
5.741611e-01
5.744580e-01
5.747075e-01
5.748756e-01
5.749351e-01
5.748756e-01
5.747075e-01
5.744580e-01
5.741611e-01
5.738480e-01
5.735419e-01
5.732569e-01
0.000000e+00
1.000000e+00
5.736298e-01
5.743285e-01
5.750790e-01
5.758467e-01
5.765746e-01
5.771863e-01
5.775985e-01
5.777444e-01
5.775985e-01
5.771863e-01
5.765746e-01
5.758467e-01
5.750790e-01
5.743285e-01
5.736298e-01
0.000000e+00
1.000000e+00
5.741415e-01
5.754078e-01
5.767682e-01
5.781595e-01
5.794788e-01
5.805874e-01
5.813345e-01
5.815991e-01
5.813345e-01
5.805874e-01
5.794788e-01
5.781595e-01
5.767682e-01
5.754078e-01
5.741415e-01
0.000000e+00
1.000000e+00
5.747840e-01
5.767631e-01
5.788893e-01
5.810638e-01
5.831258e-01
5.848586e-01
5.860262e-01
5.864397e-01
5.860262e-01
5.848586e-01
5.831258e-01
5.810638e-01
5.788893e-01
5.767631e-01
5.747840e-01
0.000000e+00
1.000000e+00
5.755379e-01
5.783533e-01
5.813779e-01
5.844713e-01
5.874046e-01
5.898696e-01
5.915306e-01
5.921188e-01
5.915306e-01
5.898696e-01
5.874046e-01
5.844713e-01
5.813779e-01
5.783533e-01
5.755379e-01
0.000000e+00
1.000000e+00
5.763720e-01
5.801127e-01
5.841315e-01
5.882416e-01
5.921389e-01
5.954140e-01
5.976210e-01
5.984026e-01
5.976210e-01
5.954140e-01
5.921389e-01
5.882416e-01
5.841315e-01
5.801127e-01
5.763720e-01
0.000000e+00
1.000000e+00
5.772460e-01
5.819563e-01
5.870167e-01
5.921921e-01
5.970996e-01
6.012236e-01
6.040026e-01
6.049868e-01
6.040026e-01
6.012236e-01
5.970996e-01
5.921921e-01
5.870167e-01
5.819563e-01
5.772460e-01
0.000000e+00
1.000000e+00
5.781142e-01
5.837875e-01
5.898826e-01
5.961162e-01
6.020271e-01
6.069943e-01
6.103415e-01
6.115269e-01
6.103415e-01
6.069943e-01
6.020271e-01
5.961162e-01
5.898826e-01
5.837875e-01
5.781142e-01
0.000000e+00
1.000000e+00
5.789305e-01
5.855094e-01
5.925773e-01
5.998058e-01
6.066602e-01
6.124203e-01
6.163016e-01
6.176763e-01
6.163016e-01
6.124203e-01
6.066602e-01
5.998058e-01
5.925773e-01
5.855094e-01
5.789305e-01
0.000000e+00
1.000000e+00
5.796538e-01
5.870351e-01
5.949650e-01
6.030751e-01
6.107656e-01
6.172281e-01
6.215829e-01
6.231252e-01
6.215829e-01
6.172281e-01
6.107656e-01
6.030751e-01
5.949650e-01
5.870351e-01
5.796538e-01
0.000000e+00
1.000000e+00
5.802521e-01
5.882970e-01
5.969400e-01
6.057794e-01
6.141613e-01
6.212050e-01
6.259513e-01
6.276323e-01
6.259513e-01
6.212050e-01
6.141613e-01
6.057794e-01
5.969400e-01
5.882970e-01
5.802521e-01
0.000000e+00
1.000000e+00
5.807048e-01
5.892520e-01
5.984346e-01
6.078258e-01
6.167310e-01
6.242144e-01
6.292571e-01
6.310430e-01
6.292571e-01
6.242144e-01
6.167310e-01
6.078258e-01
5.984346e-01
5.892520e-01
5.807048e-01
0.000000e+00
1.000000e+00
5.810035e-01
5.898821e-01
5.994206e-01
6.091759e-01
6.184264e-01
6.261999e-01
6.314380e-01
6.332932e-01
6.314380e-01
6.261999e-01
6.184264e-01
6.091759e-01
5.994206e-01
5.898821e-01
5.810035e-01
0.000000e+00
1.000000e+00
5.811504e-01
5.901920e-01
5.999056e-01
6.098400e-01
6.192602e-01
6.271764e-01
6.325107e-01
6.344000e-01
6.325107e-01
6.271764e-01
6.192602e-01
6.098400e-01
5.999056e-01
5.901920e-01
5.811504e-01
0.000000e+00
1.000000e+00
5.811563e-01
5.902044e-01
5.999250e-01
6.098665e-01
6.192935e-01
6.272154e-01
6.325536e-01
6.344442e-01
6.325536e-01
6.272154e-01
6.192935e-01
6.098665e-01
5.999250e-01
5.902044e-01
5.811563e-01
0.000000e+00
1.000000e+00
5.726928e-01
5.723520e-01
5.719858e-01
5.716114e-01
5.712563e-01
5.709579e-01
5.707568e-01
5.706856e-01
5.707568e-01
5.709579e-01
5.712563e-01
5.716114e-01
5.719858e-01
5.723520e-01
5.726928e-01
0.000000e+00
1.000000e+00
5.729135e-01
5.728175e-01
5.727144e-01
5.726089e-01
5.725089e-01
5.724249e-01
5.723683e-01
5.723482e-01
5.723683e-01
5.724249e-01
5.725089e-01
5.726089e-01
5.727144e-01
5.728175e-01
5.729135e-01
0.000000e+00
1.000000e+00
5.732753e-01
5.735808e-01
5.739089e-01
5.742445e-01
5.745627e-01
5.748301e-01
5.750103e-01
5.750741e-01
5.750103e-01
5.748301e-01
5.745627e-01
5.742445e-01
5.739089e-01
5.735808e-01
5.732753e-01
0.000000e+00
1.000000e+00
5.737870e-01
5.746600e-01
5.755979e-01
5.765571e-01
5.774667e-01
5.782310e-01
5.787460e-01
5.789285e-01
5.787460e-01
5.782310e-01
5.774667e-01
5.765571e-01
5.755979e-01
5.746600e-01
5.737870e-01
0.000000e+00
1.000000e+00
5.744474e-01
5.760530e-01
5.777780e-01
5.795421e-01
5.812150e-01
5.826208e-01
5.835681e-01
5.839036e-01
5.835681e-01
5.826208e-01
5.812150e-01
5.795421e-01
5.777780e-01
5.760530e-01
5.744474e-01
0.000000e+00
1.000000e+00
5.752433e-01
5.777318e-01
5.804053e-01
5.831395e-01
5.857323e-01
5.879111e-01
5.893792e-01
5.898992e-01
5.893792e-01
5.879111e-01
5.857323e-01
5.831395e-01
5.804053e-01
5.777318e-01
5.752433e-01
0.000000e+00
1.000000e+00
5.761477e-01
5.796395e-01
5.833909e-01
5.872276e-01
5.908656e-01
5.939229e-01
5.959830e-01
5.967126e-01
5.959830e-01
5.939229e-01
5.908656e-01
5.872276e-01
5.833909e-01
5.796395e-01
5.761477e-01
0.000000e+00
1.000000e+00
5.771209e-01
5.816923e-01
5.866036e-01
5.916264e-01
5.963894e-01
6.003918e-01
6.030889e-01
6.040441e-01
6.030889e-01
6.003918e-01
5.963894e-01
5.916264e-01
5.866036e-01
5.816923e-01
5.771209e-01
0.000000e+00
1.000000e+00
5.781134e-01
5.837858e-01
5.898798e-01
5.961124e-01
6.020224e-01
6.069888e-01
6.103354e-01
6.115207e-01
6.103354e-01
6.069888e-01
6.020224e-01
5.961124e-01
5.898798e-01
5.837858e-01
5.781134e-01
0.000000e+00
1.000000e+00
5.790711e-01
5.858060e-01
5.930415e-01
6.004414e-01
6.074584e-01
6.133550e-01
6.173285e-01
6.187357e-01
6.173285e-01
6.133550e-01
6.074584e-01
6.004414e-01
5.930415e-01
5.858060e-01
5.790711e-01
0.000000e+00
1.000000e+00
5.799421e-01
5.876431e-01
5.959165e-01
6.043780e-01
6.124016e-01
6.191441e-01
6.236876e-01
6.252967e-01
6.236876e-01
6.191441e-01
6.124016e-01
6.043780e-01
5.959165e-01
5.876431e-01
5.799421e-01
0.000000e+00
1.000000e+00
5.806821e-01
5.892040e-01
5.983594e-01
6.077228e-01
6.166017e-01
6.240630e-01
6.290907e-01
6.308714e-01
6.290907e-01
6.240630e-01
6.166017e-01
6.077228e-01
5.983594e-01
5.892040e-01
5.806821e-01
0.000000e+00
1.000000e+00
5.812596e-01
5.904221e-01
6.002658e-01
6.103332e-01
6.198795e-01
6.279017e-01
6.333074e-01
6.352219e-01
6.333074e-01
6.279017e-01
6.198795e-01
6.103332e-01
6.002658e-01
5.904221e-01
5.812596e-01
0.000000e+00
1.000000e+00
5.816576e-01
5.912618e-01
6.015799e-01
6.121324e-01
6.221389e-01
6.305477e-01
6.362139e-01
6.382207e-01
6.362139e-01
6.305477e-01
6.221389e-01
6.121324e-01
6.015799e-01
5.912618e-01
5.816576e-01
0.000000e+00
1.000000e+00
5.818736e-01
5.917175e-01
6.022930e-01
6.131088e-01
6.233650e-01
6.319836e-01
6.377912e-01
6.398481e-01
6.377912e-01
6.319836e-01
6.233650e-01
6.131088e-01
6.022930e-01
5.917175e-01
5.818736e-01
0.000000e+00
1.000000e+00
5.819171e-01
5.918090e-01
6.024363e-01
6.133051e-01
6.236114e-01
6.322722e-01
6.381082e-01
6.401751e-01
6.381082e-01
6.322722e-01
6.236114e-01
6.133051e-01
6.024363e-01
5.918090e-01
5.819171e-01
0.000000e+00
1.000000e+00
5.818060e-01
5.915748e-01
6.020698e-01
6.128032e-01
6.229812e-01
6.315341e-01
6.372975e-01
6.393387e-01
6.372975e-01
6.315341e-01
6.229812e-01
6.128032e-01
6.020698e-01
5.915748e-01
5.818060e-01
0.000000e+00
1.000000e+00
5.723519e-01
5.716329e-01
5.708604e-01
5.700704e-01
5.693212e-01
5.686917e-01
5.682675e-01
5.681173e-01
5.682675e-01
5.686917e-01
5.693212e-01
5.700704e-01
5.708604e-01
5.716329e-01
5.723519e-01
0.000000e+00
1.000000e+00
5.726822e-01
5.723295e-01
5.719507e-01
5.715633e-01
5.711959e-01
5.708872e-01
5.706792e-01
5.706055e-01
5.706792e-01
5.708872e-01
5.711959e-01
5.715633e-01
5.719507e-01
5.723295e-01
5.726822e-01
0.000000e+00
1.000000e+00
5.731697e-01
5.733579e-01
5.735601e-01
5.737669e-01
5.739631e-01
5.741279e-01
5.742389e-01
5.742782e-01
5.742389e-01
5.741279e-01
5.739631e-01
5.737669e-01
5.735601e-01
5.733579e-01
5.731697e-01
0.000000e+00
1.000000e+00
5.738213e-01
5.747325e-01
5.757113e-01
5.767124e-01
5.776617e-01
5.784594e-01
5.789970e-01
5.791873e-01
5.789970e-01
5.784594e-01
5.776617e-01
5.767124e-01
5.757113e-01
5.747325e-01
5.738213e-01
0.000000e+00
1.000000e+00
5.746324e-01
5.764432e-01
5.783886e-01
5.803782e-01
5.822649e-01
5.838503e-01
5.849187e-01
5.852971e-01
5.849187e-01
5.838503e-01
5.822649e-01
5.803782e-01
5.783886e-01
5.764432e-01
5.746324e-01
0.000000e+00
1.000000e+00
5.755835e-01
5.784494e-01
5.815284e-01
5.846774e-01
5.876634e-01
5.901726e-01
5.918634e-01
5.924623e-01
5.918634e-01
5.901726e-01
5.876634e-01
5.846774e-01
5.815284e-01
5.784494e-01
5.755835e-01
0.000000e+00
1.000000e+00
5.766398e-01
5.806775e-01
5.850154e-01
5.894518e-01
5.936587e-01
5.971939e-01
5.995760e-01
6.004197e-01
5.995760e-01
5.971939e-01
5.936587e-01
5.894518e-01
5.850154e-01
5.806775e-01
5.766398e-01
0.000000e+00
1.000000e+00
5.777520e-01
5.830235e-01
5.886869e-01
5.944789e-01
5.999712e-01
6.045866e-01
6.076967e-01
6.087982e-01
6.076967e-01
6.045866e-01
5.999712e-01
5.944789e-01
5.886869e-01
5.830235e-01
5.777520e-01
0.000000e+00
1.000000e+00
5.788608e-01
5.853624e-01
5.923472e-01
5.994907e-01
6.062646e-01
6.119570e-01
6.157927e-01
6.171512e-01
6.157927e-01
6.119570e-01
6.062646e-01
5.994907e-01
5.923472e-01
5.853624e-01
5.788608e-01
0.000000e+00
1.000000e+00
5.799037e-01
5.875621e-01
5.957898e-01
6.042045e-01
6.121837e-01
6.188889e-01
6.234072e-01
6.250075e-01
6.234072e-01
6.188889e-01
6.121837e-01
6.042045e-01
5.957898e-01
5.875621e-01
5.799037e-01
0.000000e+00
1.000000e+00
5.808225e-01
5.895002e-01
5.988230e-01
6.083577e-01
6.173989e-01
6.249966e-01
6.301162e-01
6.319294e-01
6.301162e-01
6.249966e-01
6.173989e-01
6.083577e-01
5.988230e-01
5.895002e-01
5.808225e-01
0.000000e+00
1.000000e+00
5.815708e-01
5.910787e-01
6.012932e-01
6.117400e-01
6.216461e-01
6.299705e-01
6.355799e-01
6.375666e-01
6.355799e-01
6.299705e-01
6.216461e-01
6.117400e-01
6.012932e-01
5.910787e-01
5.815708e-01
0.000000e+00
1.000000e+00
5.821183e-01
5.922336e-01
6.031007e-01
6.142148e-01
6.247538e-01
6.336100e-01
6.395778e-01
6.416914e-01
6.395778e-01
6.336100e-01
6.247538e-01
6.142148e-01
6.031007e-01
5.922336e-01
5.821183e-01
0.000000e+00
1.000000e+00
5.824528e-01
5.929391e-01
6.042049e-01
6.157267e-01
6.266523e-01
6.358334e-01
6.420201e-01
6.442112e-01
6.420201e-01
6.358334e-01
6.266523e-01
6.157267e-01
6.042049e-01
5.929391e-01
5.824528e-01
0.000000e+00
1.000000e+00
5.825786e-01
5.932044e-01
6.046200e-01
6.162951e-01
6.273660e-01
6.366693e-01
6.429383e-01
6.451585e-01
6.429383e-01
6.366693e-01
6.273660e-01
6.162951e-01
6.046200e-01
5.932044e-01
5.825786e-01
0.000000e+00
1.000000e+00
5.825130e-01
5.930660e-01
6.044035e-01
6.159986e-01
6.269936e-01
6.362332e-01
6.424592e-01
6.446643e-01
6.424592e-01
6.362332e-01
6.269936e-01
6.159986e-01
6.044035e-01
5.930660e-01
5.825130e-01
0.000000e+00
1.000000e+00
5.822820e-01
5.925789e-01
6.036411e-01
6.149547e-01
6.256829e-01
6.346981e-01
6.407730e-01
6.429245e-01
6.407730e-01
6.346981e-01
6.256829e-01
6.149547e-01
6.036411e-01
5.925789e-01
5.822820e-01
0.000000e+00
1.000000e+00
5.718857e-01
5.706496e-01
5.693217e-01
5.679635e-01
5.666756e-01
5.655934e-01
5.648641e-01
5.646058e-01
5.648641e-01
5.655934e-01
5.666756e-01
5.679635e-01
5.693217e-01
5.706496e-01
5.718857e-01
0.000000e+00
1.000000e+00
5.723209e-01
5.715675e-01
5.707582e-01
5.699304e-01
5.691455e-01
5.684859e-01
5.680414e-01
5.678840e-01
5.680414e-01
5.684859e-01
5.691455e-01
5.699304e-01
5.707582e-01
5.715675e-01
5.723209e-01
0.000000e+00
1.000000e+00
5.729296e-01
5.728514e-01
5.727674e-01
5.726816e-01
5.726001e-01
5.725317e-01
5.724856e-01
5.724693e-01
5.724856e-01
5.725317e-01
5.726001e-01
5.726816e-01
5.727674e-01
5.728514e-01
5.729296e-01
0.000000e+00
1.000000e+00
5.737168e-01
5.745119e-01
5.753661e-01
5.762398e-01
5.770682e-01
5.777643e-01
5.782335e-01
5.783996e-01
5.782335e-01
5.777643e-01
5.770682e-01
5.762398e-01
5.753661e-01
5.745119e-01
5.737168e-01
0.000000e+00
1.000000e+00
5.746739e-01
5.765307e-01
5.785256e-01
5.805658e-01
5.825004e-01
5.841262e-01
5.852217e-01
5.856097e-01
5.852217e-01
5.841262e-01
5.825004e-01
5.805658e-01
5.785256e-01
5.765307e-01
5.746739e-01
0.000000e+00
1.000000e+00
5.757753e-01
5.788541e-01
5.821617e-01
5.855445e-01
5.887522e-01
5.914478e-01
5.932642e-01
5.939075e-01
5.932642e-01
5.914478e-01
5.887522e-01
5.855445e-01
5.821617e-01
5.788541e-01
5.757753e-01
0.000000e+00
1.000000e+00
5.769779e-01
5.813907e-01
5.861315e-01
5.909800e-01
5.955776e-01
5.994412e-01
6.020446e-01
6.029667e-01
6.020446e-01
5.994412e-01
5.955776e-01
5.909800e-01
5.861315e-01
5.813907e-01
5.769779e-01
0.000000e+00
1.000000e+00
5.782225e-01
5.840159e-01
5.902400e-01
5.966055e-01
6.026416e-01
6.077140e-01
6.111320e-01
6.123425e-01
6.111320e-01
6.077140e-01
6.026416e-01
5.966055e-01
5.902400e-01
5.840159e-01
5.782225e-01
0.000000e+00
1.000000e+00
5.794399e-01
5.865840e-01
5.942590e-01
6.021085e-01
6.095518e-01
6.158066e-01
6.200214e-01
6.215141e-01
6.200214e-01
6.158066e-01
6.095518e-01
6.021085e-01
5.942590e-01
5.865840e-01
5.794399e-01
0.000000e+00
1.000000e+00
5.805593e-01
5.889451e-01
5.979542e-01
6.071680e-01
6.159050e-01
6.232470e-01
6.281944e-01
6.299466e-01
6.281944e-01
6.232470e-01
6.159050e-01
6.071680e-01
5.979542e-01
5.889451e-01
5.805593e-01
0.000000e+00
1.000000e+00
5.815170e-01
5.909651e-01
6.011155e-01
6.114967e-01
6.213405e-01
6.296127e-01
6.351869e-01
6.371611e-01
6.351869e-01
6.296127e-01
6.213405e-01
6.114967e-01
6.011155e-01
5.909651e-01
5.815170e-01
0.000000e+00
1.000000e+00
5.822648e-01
5.925424e-01
6.035841e-01
6.148766e-01
6.255848e-01
6.345833e-01
6.406468e-01
6.427944e-01
6.406468e-01
6.345833e-01
6.255848e-01
6.148766e-01
6.035841e-01
5.925424e-01
5.822648e-01
0.000000e+00
1.000000e+00
5.827747e-01
5.936180e-01
6.052674e-01
6.171815e-01
6.284790e-01
6.379728e-01
6.443701e-01
6.466358e-01
6.443701e-01
6.379728e-01
6.284790e-01
6.171815e-01
6.052674e-01
5.936180e-01
5.827747e-01
0.000000e+00
1.000000e+00
5.830400e-01
5.941776e-01
6.061431e-01
6.183806e-01
6.299848e-01
6.397362e-01
6.463071e-01
6.486343e-01
6.463071e-01
6.397362e-01
6.299848e-01
6.183806e-01
6.061431e-01
5.941776e-01
5.830400e-01
0.000000e+00
1.000000e+00
5.830725e-01
5.942462e-01
6.062504e-01
6.185275e-01
6.301692e-01
6.399522e-01
6.465444e-01
6.488791e-01
6.465444e-01
6.399522e-01
6.301692e-01
6.185275e-01
6.062504e-01
5.942462e-01
5.830725e-01
0.000000e+00
1.000000e+00
5.828978e-01
5.938778e-01
6.056739e-01
6.177380e-01
6.291779e-01
6.387912e-01
6.452691e-01
6.475634e-01
6.452691e-01
6.387912e-01
6.291779e-01
6.177380e-01
6.056739e-01
5.938778e-01
5.828978e-01
0.000000e+00
1.000000e+00
5.825499e-01
5.931439e-01
6.045254e-01
6.161655e-01
6.272033e-01
6.364787e-01
6.427289e-01
6.449425e-01
6.427289e-01
6.364787e-01
6.272033e-01
6.161655e-01
6.045254e-01
5.931439e-01
5.825499e-01
0.000000e+00
1.000000e+00
5.713020e-01
5.694183e-01
5.673946e-01
5.653249e-01
5.633623e-01
5.617131e-01
5.606017e-01
5.602081e-01
5.606017e-01
5.617131e-01
5.633623e-01
5.653249e-01
5.673946e-01
5.694183e-01
5.713020e-01
0.000000e+00
1.000000e+00
5.718333e-01
5.705391e-01
5.691487e-01
5.677267e-01
5.663783e-01
5.652451e-01
5.644816e-01
5.642111e-01
5.644816e-01
5.652451e-01
5.663783e-01
5.677267e-01
5.691487e-01
5.705391e-01
5.718333e-01
0.000000e+00
1.000000e+00
5.725536e-01
5.720583e-01
5.715263e-01
5.709821e-01
5.704662e-01
5.700326e-01
5.697404e-01
5.696369e-01
5.697404e-01
5.700326e-01
5.704662e-01
5.709821e-01
5.715263e-01
5.720583e-01
5.725536e-01
0.000000e+00
1.000000e+00
5.734658e-01
5.739825e-01
5.745376e-01
5.751053e-01
5.756436e-01
5.760960e-01
5.764009e-01
5.765088e-01
5.764009e-01
5.760960e-01
5.756436e-01
5.751053e-01
5.745376e-01
5.739825e-01
5.734658e-01
0.000000e+00
1.000000e+00
5.745573e-01
5.762849e-01
5.781409e-01
5.800391e-01
5.818390e-01
5.833516e-01
5.843708e-01
5.847318e-01
5.843708e-01
5.833516e-01
5.818390e-01
5.800391e-01
5.781409e-01
5.762849e-01
5.745573e-01
0.000000e+00
1.000000e+00
5.757965e-01
5.788988e-01
5.822317e-01
5.856403e-01
5.888726e-01
5.915887e-01
5.934190e-01
5.940672e-01
5.934190e-01
5.915887e-01
5.888726e-01
5.856403e-01
5.822317e-01
5.788988e-01
5.757965e-01
0.000000e+00
1.000000e+00
5.771319e-01
5.817155e-01
5.866399e-01
5.916761e-01
5.964517e-01
6.004649e-01
6.031691e-01
6.041268e-01
6.031691e-01
6.004649e-01
5.964517e-01
5.916761e-01
5.866399e-01
5.817155e-01
5.771319e-01
0.000000e+00
1.000000e+00
5.784949e-01
5.845906e-01
5.911394e-01
5.978371e-01
6.041881e-01
6.095251e-01
6.131214e-01
6.143951e-01
6.131214e-01
6.095251e-01
6.041881e-01
5.978371e-01
5.911394e-01
5.845906e-01
5.784949e-01
0.000000e+00
1.000000e+00
5.798072e-01
5.873586e-01
5.954713e-01
6.037684e-01
6.116361e-01
6.182476e-01
6.227028e-01
6.242807e-01
6.227028e-01
6.182476e-01
6.116361e-01
6.037684e-01
5.954713e-01
5.873586e-01
5.798072e-01
0.000000e+00
1.000000e+00
5.809900e-01
5.898535e-01
5.993759e-01
6.091146e-01
6.183494e-01
6.261097e-01
6.313390e-01
6.331910e-01
6.313390e-01
6.261097e-01
6.183494e-01
6.091146e-01
5.993759e-01
5.898535e-01
5.809900e-01
0.000000e+00
1.000000e+00
5.819751e-01
5.919315e-01
6.026280e-01
6.135675e-01
6.239409e-01
6.326581e-01
6.385321e-01
6.406125e-01
6.385321e-01
6.326581e-01
6.239409e-01
6.135675e-01
6.026280e-01
5.919315e-01
5.819751e-01
0.000000e+00
1.000000e+00
5.827137e-01
5.934893e-01
6.050660e-01
6.169057e-01
6.281328e-01
6.375672e-01
6.439246e-01
6.461762e-01
6.439246e-01
6.375672e-01
6.281328e-01
6.169057e-01
6.050660e-01
5.934893e-01
5.827137e-01
0.000000e+00
1.000000e+00
5.831806e-01
5.944743e-01
6.066075e-01
6.190164e-01
6.307832e-01
6.406712e-01
6.473342e-01
6.496940e-01
6.473342e-01
6.406712e-01
6.307832e-01
6.190164e-01
6.066075e-01
5.944743e-01
5.831806e-01
0.000000e+00
1.000000e+00
5.833752e-01
5.948847e-01
6.072498e-01
6.198959e-01
6.318875e-01
6.419645e-01
6.487549e-01
6.511598e-01
6.487549e-01
6.419645e-01
6.318875e-01
6.198959e-01
6.072498e-01
5.948847e-01
5.833752e-01
0.000000e+00
1.000000e+00
5.833169e-01
5.947617e-01
6.070572e-01
6.196321e-01
6.315563e-01
6.415767e-01
6.483288e-01
6.507202e-01
6.483288e-01
6.415767e-01
6.315563e-01
6.196321e-01
6.070572e-01
5.947617e-01
5.833169e-01
0.000000e+00
1.000000e+00
5.830393e-01
5.941761e-01
6.061408e-01
6.183774e-01
6.299808e-01
6.397315e-01
6.463020e-01
6.486290e-01
6.463020e-01
6.397315e-01
6.299808e-01
6.183774e-01
6.061408e-01
5.941761e-01
5.830393e-01
0.000000e+00
1.000000e+00
5.825837e-01
5.932152e-01
6.046369e-01
6.163182e-01
6.273950e-01
6.367032e-01
6.429755e-01
6.451969e-01
6.429755e-01
6.367032e-01
6.273950e-01
6.163182e-01
6.046369e-01
5.932152e-01
5.825837e-01
0.000000e+00
1.000000e+00
5.706181e-01
5.679758e-01
5.651371e-01
5.622339e-01
5.594809e-01
5.571675e-01
5.556086e-01
5.550565e-01
5.556086e-01
5.571675e-01
5.594809e-01
5.622339e-01
5.651371e-01
5.679758e-01
5.706181e-01
0.000000e+00
1.000000e+00
5.712338e-01
5.692746e-01
5.671697e-01
5.650169e-01
5.629756e-01
5.612602e-01
5.601043e-01
5.596949e-01
5.601043e-01
5.612602e-01
5.629756e-01
5.650169e-01
5.671697e-01
5.692746e-01
5.712338e-01
0.000000e+00
1.000000e+00
5.720516e-01
5.709996e-01
5.698693e-01
5.687134e-01
5.676173e-01
5.666961e-01
5.660754e-01
5.658556e-01
5.660754e-01
5.666961e-01
5.676173e-01
5.687134e-01
5.698693e-01
5.709996e-01
5.720516e-01
0.000000e+00
1.000000e+00
5.730726e-01
5.731531e-01
5.732395e-01
5.733280e-01
5.734118e-01
5.734823e-01
5.735298e-01
5.735466e-01
5.735298e-01
5.734823e-01
5.734118e-01
5.733280e-01
5.732395e-01
5.731531e-01
5.730726e-01
0.000000e+00
1.000000e+00
5.742801e-01
5.757002e-01
5.772259e-01
5.787862e-01
5.802658e-01
5.815091e-01
5.823469e-01
5.826437e-01
5.823469e-01
5.815091e-01
5.802658e-01
5.787862e-01
5.772259e-01
5.757002e-01
5.742801e-01
0.000000e+00
1.000000e+00
5.756369e-01
5.785620e-01
5.817046e-01
5.849186e-01
5.879662e-01
5.905273e-01
5.922531e-01
5.928643e-01
5.922531e-01
5.905273e-01
5.879662e-01
5.849186e-01
5.817046e-01
5.785620e-01
5.756369e-01
0.000000e+00
1.000000e+00
5.770837e-01
5.816139e-01
5.864808e-01
5.914583e-01
5.961783e-01
6.001446e-01
6.028173e-01
6.037639e-01
6.028173e-01
6.001446e-01
5.961783e-01
5.914583e-01
5.864808e-01
5.816139e-01
5.770837e-01
0.000000e+00
1.000000e+00
5.785439e-01
5.846939e-01
5.913010e-01
5.980583e-01
6.044659e-01
6.098505e-01
6.134788e-01
6.147638e-01
6.134788e-01
6.098505e-01
6.044659e-01
5.980583e-01
5.913010e-01
5.846939e-01
5.785439e-01
0.000000e+00
1.000000e+00
5.799309e-01
5.876195e-01
5.958796e-01
6.043275e-01
6.123382e-01
6.190699e-01
6.236060e-01
6.252125e-01
6.236060e-01
6.190699e-01
6.123382e-01
6.043275e-01
5.958796e-01
5.876195e-01
5.799309e-01
0.000000e+00
1.000000e+00
5.811598e-01
5.902117e-01
5.999365e-01
6.098822e-01
6.193133e-01
6.272386e-01
6.325790e-01
6.344704e-01
6.325790e-01
6.272386e-01
6.193133e-01
6.098822e-01
5.999365e-01
5.902117e-01
5.811598e-01
0.000000e+00
1.000000e+00
5.821592e-01
5.923197e-01
6.032355e-01
6.143994e-01
6.249855e-01
6.338814e-01
6.398759e-01
6.419990e-01
6.398759e-01
6.338814e-01
6.249855e-01
6.143994e-01
6.032355e-01
5.923197e-01
5.821592e-01
0.000000e+00
1.000000e+00
5.828802e-01
5.938407e-01
6.056158e-01
6.176586e-01
6.290781e-01
6.386744e-01
6.451408e-01
6.474310e-01
6.451408e-01
6.386744e-01
6.290781e-01
6.176586e-01
6.056158e-01
5.938407e-01
5.828802e-01
0.000000e+00
1.000000e+00
5.833015e-01
5.947294e-01
6.070066e-01
6.195629e-01
6.314694e-01
6.414749e-01
6.482170e-01
6.506048e-01
6.482170e-01
6.414749e-01
6.314694e-01
6.195629e-01
6.070066e-01
5.947294e-01
5.833015e-01
0.000000e+00
1.000000e+00
5.834282e-01
5.949965e-01
6.074247e-01
6.201354e-01
6.321883e-01
6.423168e-01
6.491418e-01
6.515590e-01
6.491418e-01
6.423168e-01
6.321883e-01
6.201354e-01
6.074247e-01
5.949965e-01
5.834282e-01
0.000000e+00
1.000000e+00
5.832868e-01
5.946983e-01
6.069581e-01
6.194964e-01
6.313859e-01
6.413771e-01
6.481096e-01
6.504940e-01
6.481096e-01
6.413771e-01
6.313859e-01
6.194964e-01
6.069581e-01
5.946983e-01
5.832868e-01
0.000000e+00
1.000000e+00
5.829183e-01
5.939209e-01
6.057414e-01
6.178306e-01
6.292941e-01
6.389273e-01
6.454186e-01
6.477176e-01
6.454186e-01
6.389273e-01
6.292941e-01
6.178306e-01
6.057414e-01
5.939209e-01
5.829183e-01
0.000000e+00
1.000000e+00
5.823701e-01
5.927647e-01
6.039319e-01
6.153529e-01
6.261828e-01
6.352836e-01
6.414162e-01
6.435881e-01
6.414162e-01
6.352836e-01
6.261828e-01
6.153529e-01
6.039319e-01
5.927647e-01
5.823701e-01
0.000000e+00
1.000000e+00
5.698615e-01
5.663798e-01
5.626394e-01
5.588139e-01
5.551864e-01
5.521381e-01
5.500840e-01
5.493565e-01
5.500840e-01
5.521381e-01
5.551864e-01
5.588139e-01
5.626394e-01
5.663798e-01
5.698615e-01
0.000000e+00
1.000000e+00
5.705476e-01
5.678271e-01
5.649044e-01
5.619153e-01
5.590808e-01
5.566989e-01
5.550939e-01
5.545254e-01
5.550939e-01
5.566989e-01
5.590808e-01
5.619153e-01
5.649044e-01
5.678271e-01
5.705476e-01
0.000000e+00
1.000000e+00
5.714457e-01
5.697215e-01
5.678691e-01
5.659747e-01
5.641782e-01
5.626686e-01
5.616514e-01
5.612911e-01
5.616514e-01
5.626686e-01
5.641782e-01
5.659747e-01
5.678691e-01
5.697215e-01
5.714457e-01
0.000000e+00
1.000000e+00
5.725546e-01
5.720606e-01
5.715298e-01
5.709870e-01
5.704722e-01
5.700396e-01
5.697482e-01
5.696449e-01
5.697482e-01
5.700396e-01
5.704722e-01
5.709870e-01
5.715298e-01
5.720606e-01
5.725546e-01
0.000000e+00
1.000000e+00
5.738542e-01
5.748018e-01
5.758198e-01
5.768610e-01
5.778483e-01
5.786779e-01
5.792370e-01
5.794350e-01
5.792370e-01
5.786779e-01
5.778483e-01
5.768610e-01
5.758198e-01
5.748018e-01
5.738542e-01
0.000000e+00
1.000000e+00
5.753018e-01
5.778552e-01
5.805985e-01
5.834041e-01
5.860645e-01
5.883001e-01
5.898066e-01
5.903401e-01
5.898066e-01
5.883001e-01
5.860645e-01
5.834041e-01
5.805985e-01
5.778552e-01
5.753018e-01
0.000000e+00
1.000000e+00
5.768321e-01
5.810832e-01
5.856503e-01
5.903212e-01
5.947504e-01
5.984724e-01
6.009804e-01
6.018687e-01
6.009804e-01
5.984724e-01
5.947504e-01
5.903212e-01
5.856503e-01
5.810832e-01
5.768321e-01
0.000000e+00
1.000000e+00
5.783618e-01
5.843098e-01
5.906999e-01
5.972353e-01
6.034324e-01
6.086401e-01
6.121493e-01
6.133921e-01
6.121493e-01
6.086401e-01
6.034324e-01
5.972353e-01
5.906999e-01
5.843098e-01
5.783618e-01
0.000000e+00
1.000000e+00
5.797983e-01
5.873399e-01
5.954420e-01
6.037283e-01
6.115857e-01
6.181886e-01
6.226380e-01
6.242138e-01
6.226380e-01
6.181886e-01
6.115857e-01
6.037283e-01
5.954420e-01
5.873399e-01
5.797983e-01
0.000000e+00
1.000000e+00
5.810526e-01
5.899855e-01
5.995824e-01
6.093975e-01
6.187046e-01
6.265257e-01
6.317960e-01
6.336625e-01
6.317960e-01
6.265257e-01
6.187046e-01
6.093975e-01
5.995824e-01
5.899855e-01
5.810526e-01
0.000000e+00
1.000000e+00
5.820515e-01
5.920925e-01
6.028799e-01
6.139125e-01
6.243742e-01
6.331655e-01
6.390895e-01
6.411875e-01
6.390895e-01
6.331655e-01
6.243742e-01
6.139125e-01
6.028799e-01
5.920925e-01
5.820515e-01
0.000000e+00
1.000000e+00
5.827475e-01
5.935607e-01
6.051776e-01
6.170586e-01
6.283247e-01
6.377920e-01
6.441715e-01
6.464309e-01
6.441715e-01
6.377920e-01
6.283247e-01
6.170586e-01
6.051776e-01
5.935607e-01
5.827475e-01
0.000000e+00
1.000000e+00
5.831229e-01
5.943526e-01
6.064170e-01
6.187555e-01
6.304556e-01
6.402875e-01
6.469128e-01
6.492592e-01
6.469128e-01
6.402875e-01
6.304556e-01
6.187555e-01
6.064170e-01
5.943526e-01
5.831229e-01
0.000000e+00
1.000000e+00
5.831883e-01
5.944904e-01
6.066327e-01
6.190509e-01
6.308264e-01
6.407219e-01
6.473899e-01
6.497514e-01
6.473899e-01
6.407219e-01
6.308264e-01
6.190509e-01
6.066327e-01
5.944904e-01
5.831883e-01
0.000000e+00
1.000000e+00
5.829762e-01
5.940431e-01
6.059326e-01
6.180923e-01
6.296227e-01
6.393122e-01
6.458414e-01
6.481538e-01
6.458414e-01
6.393122e-01
6.296227e-01
6.180923e-01
6.059326e-01
5.940431e-01
5.829762e-01
0.000000e+00
1.000000e+00
5.825333e-01
5.931089e-01
6.044706e-01
6.160906e-01
6.271091e-01
6.363685e-01
6.426078e-01