<?xml version="1.0"?>
<VTKFile type="StructuredGrid" version="0.1">
  <StructuredGrid WholeExtent="0 16 0 16 0 16">
    <Piece Extent="0 16 0 16 0 16">
      <PointData Scalars="temperature" Vectors="velocity">
        <DataArray type="Float32" Name="temperature" format="ascii">
1.000000e+00
5.730012e-01
5.730025e-01
5.730038e-01
5.730052e-01
5.730066e-01
5.730077e-01
5.730084e-01
5.730087e-01
5.730084e-01
5.730077e-01
5.730066e-01
5.730052e-01
5.730038e-01
5.730025e-01
5.730012e-01
0.000000e+00
1.000000e+00
5.730113e-01
5.730238e-01
5.730373e-01
5.730511e-01
5.730641e-01
5.730751e-01
5.730825e-01
5.730851e-01
5.730825e-01
5.730751e-01
5.730641e-01
5.730511e-01
5.730373e-01
5.730238e-01
5.730113e-01
0.000000e+00
1.000000e+00
5.730329e-01
5.730694e-01
5.731086e-01
5.731487e-01
5.731867e-01
5.732186e-01
5.732402e-01
5.732478e-01
5.732402e-01
5.732186e-01
5.731867e-01
5.731487e-01
5.731086e-01
5.730694e-01
5.730329e-01
0.000000e+00
1.000000e+00
5.730667e-01
5.731408e-01
5.732203e-01
5.733016e-01
5.733787e-01
5.734435e-01
5.734872e-01
5.735027e-01
5.734872e-01
5.734435e-01
5.733787e-01
5.733016e-01
5.732203e-01
5.731408e-01
5.730667e-01
0.000000e+00
1.000000e+00
5.731129e-01
5.732381e-01
5.733726e-01
5.735102e-01
5.736406e-01
5.737503e-01
5.738241e-01
5.738503e-01
5.738241e-01
5.737503e-01
5.736406e-01
5.735102e-01
5.733726e-01
5.732381e-01
5.731129e-01
0.000000e+00
1.000000e+00
5.731705e-01
5.733597e-01
5.735629e-01
5.737707e-01
5.739678e-01
5.741334e-01
5.742450e-01
5.742845e-01
5.742450e-01
5.741334e-01
5.739678e-01
5.737707e-01
5.735629e-01
5.733597e-01
5.731705e-01
0.000000e+00
1.000000e+00
5.732378e-01
5.735017e-01
5.737851e-01
5.740750e-01
5.743499e-01
5.745809e-01
5.747365e-01
5.747916e-01
5.747365e-01
5.745809e-01
5.743499e-01
5.740750e-01
5.737851e-01
5.735017e-01
5.732378e-01
0.000000e+00
1.000000e+00
5.733121e-01
5.736582e-01
5.740301e-01
5.744105e-01
5.747712e-01
5.750743e-01
5.752785e-01
5.753508e-01
5.752785e-01
5.750743e-01
5.747712e-01
5.744105e-01
5.740301e-01
5.736582e-01
5.733121e-01
0.000000e+00
1.000000e+00
5.733897e-01
5.738219e-01
5.742863e-01
5.747612e-01
5.752116e-01
5.755900e-01
5.758451e-01
5.759354e-01
5.758451e-01
5.755900e-01
5.752116e-01
5.747612e-01
5.742863e-01
5.738219e-01
5.733897e-01
0.000000e+00
1.000000e+00
5.734667e-01
5.739843e-01
5.745405e-01
5.751093e-01
5.756486e-01
5.761018e-01
5.764072e-01
5.765154e-01
5.764072e-01
5.761018e-01
5.756486e-01
5.751093e-01
5.745405e-01
5.739843e-01
5.734667e-01
0.000000e+00
1.000000e+00
5.735391e-01
5.741371e-01
5.747795e-01
5.754365e-01
5.760596e-01
5.765831e-01
5.769359e-01
5.770609e-01
5.769359e-01
5.765831e-01
5.760596e-01
5.754365e-01
5.747795e-01
5.741371e-01
5.735391e-01
0.000000e+00
1.000000e+00
5.736033e-01
5.742726e-01
5.749915e-01
5.757269e-01
5.764241e-01
5.770101e-01
5.774049e-01
5.775448e-01
5.774049e-01
5.770101e-01
5.764241e-01
5.757269e-01
5.749915e-01
5.742726e-01
5.736033e-01
0.000000e+00
1.000000e+00
5.736565e-01
5.743849e-01
5.751673e-01
5.759675e-01
5.767263e-01
5.773640e-01
5.777937e-01
5.779459e-01
5.777937e-01
5.773640e-01
5.767263e-01
5.759675e-01
5.751673e-01
5.743849e-01
5.736565e-01
0.000000e+00
1.000000e+00
5.736969e-01
5.744701e-01
5.753006e-01
5.761501e-01
5.769556e-01
5.776325e-01
5.780886e-01
5.782502e-01
5.780886e-01
5.776325e-01
5.769556e-01
5.761501e-01
5.753006e-01
5.744701e-01
5.736969e-01
0.000000e+00
1.000000e+00
5.737236e-01
5.745264e-01
5.753888e-01
5.762708e-01
5.771072e-01
5.778101e-01
5.782837e-01
5.784514e-01
5.782837e-01
5.778101e-01
5.771072e-01
5.762708e-01
5.753888e-01
5.745264e-01
5.737236e-01
0.000000e+00
1.000000e+00
5.737367e-01
5.745541e-01
5.754321e-01
5.763301e-01
5.771816e-01
5.778972e-01
5.783794e-01
5.785502e-01
5.783794e-01
5.778972e-01
5.771816e-01
5.763301e-01
5.754321e-01
5.745541e-01
5.737367e-01
0.000000e+00
1.000000e+00
5.737371e-01
5.745548e-01
5.754333e-01
5.763317e-01
5.771837e-01
5.778996e-01
5.783820e-01
5.785529e-01
5.783820e-01
5.778996e-01
5.771837e-01
5.763317e-01
5.754333e-01
5.745548e-01
5.737371e-01
0.000000e+00
1.000000e+00
5.730008e-01
5.730017e-01
5.730027e-01
5.730037e-01
5.730046e-01
5.730054e-01
5.730060e-01
5.730062e-01
5.730060e-01
5.730054e-01
5.730046e-01
5.730037e-01
5.730027e-01
5.730017e-01
5.730008e-01
0.000000e+00
1.000000e+00
5.730220e-01
5.730463e-01
5.730725e-01
5.730993e-01
5.731246e-01
5.731460e-01
5.731603e-01
5.731654e-01
5.731603e-01
5.731460e-01
5.731246e-01
5.730993e-01
5.730725e-01
5.730463e-01
5.730220e-01
0.000000e+00
1.000000e+00
5.730558e-01
5.731176e-01
5.731841e-01
5.732521e-01
5.733165e-01
5.733707e-01
5.734072e-01
5.734201e-01
5.734072e-01
5.733707e-01
5.733165e-01
5.732521e-01
5.731841e-01
5.731176e-01
5.730558e-01
0.000000e+00
1.000000e+00
5.731028e-01
5.732169e-01
5.733395e-01
5.734648e-01
5.735837e-01
5.736835e-01
5.737508e-01
5.737747e-01
5.737508e-01
5.736835e-01
5.735837e-01
5.734648e-01
5.733395e-01
5.732169e-01
5.731028e-01
0.000000e+00
1.000000e+00
5.731629e-01
5.733436e-01
5.735377e-01
5.737362e-01
5.739244e-01
5.740826e-01
5.741892e-01
5.742270e-01
5.741892e-01
5.740826e-01
5.739244e-01
5.737362e-01
5.735377e-01
5.733436e-01
5.731629e-01
0.000000e+00
1.000000e+00
5.732345e-01
5.734947e-01
5.737742e-01
5.740601e-01
5.743312e-01
5.745590e-01
5.747125e-01
5.747668e-01
5.747125e-01
5.745590e-01
5.743312e-01
5.740601e-01
5.737742e-01
5.734947e-01
5.732345e-01
0.000000e+00
1.000000e+00
5.733153e-01
5.736652e-01
5.740410e-01
5.744254e-01
5.747898e-01
5.750961e-01
5.753025e-01
5.753756e-01
5.753025e-01
5.750961e-01
5.747898e-01
5.744254e-01
5.740410e-01
5.736652e-01
5.733153e-01
0.000000e+00
1.000000e+00
5.734017e-01
5.738474e-01
5.743262e-01
5.748159e-01
5.752802e-01
5.756704e-01
5.759333e-01
5.760264e-01
5.759333e-01
5.756704e-01
5.752802e-01
5.748159e-01
5.743262e-01
5.738474e-01
5.734017e-01
0.000000e+00
1.000000e+00
5.734894e-01
5.740323e-01
5.746155e-01
5.752120e-01
5.757776e-01
5.762529e-01
5.765732e-01
5.766866e-01
5.765732e-01
5.762529e-01
5.757776e-01
5.752120e-01
5.746155e-01
5.740323e-01
5.734894e-01
0.000000e+00
1.000000e+00
5.735736e-01
5.742099e-01
5.748935e-01
5.755926e-01
5.762555e-01
5.768126e-01
5.771880e-01
5.773210e-01
5.771880e-01
5.768126e-01
5.762555e-01
5.755926e-01
5.748935e-01
5.742099e-01
5.735736e-01
0.000000e+00
1.000000e+00
5.736499e-01
5.743708e-01
5.751453e-01
5.759374e-01
5.766885e-01
5.773196e-01
5.777450e-01
5.778956e-01
5.777450e-01
5.773196e-01
5.766885e-01
5.759374e-01
5.751453e-01
5.743708e-01
5.736499e-01
0.000000e+00
1.000000e+00
5.737144e-01
5.745069e-01
5.753583e-01
5.762291e-01
5.770548e-01
5.777486e-01
5.782162e-01
5.783818e-01
5.782162e-01
5.777486e-01
5.770548e-01
5.762291e-01
5.753583e-01
5.745069e-01
5.737144e-01
0.000000e+00
1.000000e+00
5.737644e-01
5.746125e-01
5.755235e-01
5.764553e-01
5.773389e-01
5.780813e-01
5.785816e-01
5.787588e-01
5.785816e-01
5.780813e-01
5.773389e-01
5.764553e-01
5.755235e-01
5.746125e-01
5.737644e-01
0.000000e+00
1.000000e+00
5.737985e-01
5.746843e-01
5.756360e-01
5.766092e-01
5.775321e-01
5.783077e-01
5.788303e-01
5.790154e-01
5.788303e-01
5.783077e-01
5.775321e-01
5.766092e-01
5.756360e-01
5.746843e-01
5.737985e-01
0.000000e+00
1.000000e+00
5.738163e-01
5.747218e-01
5.756946e-01
5.766896e-01
5.776330e-01
5.784258e-01
5.789601e-01
5.791493e-01
5.789601e-01
5.784258e-01
5.776330e-01
5.766896e-01
5.756946e-01
5.747218e-01
5.738163e-01
0.000000e+00
1.000000e+00
5.738185e-01
5.747266e-01
5.757021e-01
5.766998e-01
5.776458e-01
5.784408e-01
5.789765e-01
5.791663e-01
5.789765e-01
5.784408e-01
5.776458e-01
5.766998e-01
5.757021e-01
5.747266e-01
5.738185e-01
0.000000e+00
1.000000e+00
5.738068e-01
5.747018e-01
5.756633e-01
5.766467e-01
5.775792e-01
5.783628e-01
5.788909e-01
5.790779e-01
5.788909e-01
5.783628e-01
5.775792e-01
5.766467e-01
5.756633e-01
5.747018e-01
5.738068e-01
0.000000e+00
1.000000e+00
5.729892e-01
5.729773e-01
5.729644e-01
5.729513e-01
5.729388e-01
5.729283e-01
5.729213e-01
5.729188e-01
5.729213e-01
5.729283e-01
5.729388e-01
5.729513e-01
5.729644e-01
5.729773e-01
5.729892e-01
0.000000e+00
1.000000e+00
5.730216e-01
5.730456e-01
5.730714e-01
5.730978e-01
5.731228e-01
5.731438e-01
5.731580e-01
5.731630e-01
5.731580e-01
5.731438e-01
5.731228e-01
5.730978e-01
5.730714e-01
5.730456e-01
5.730216e-01
0.000000e+00
1.000000e+00
5.730681e-01
5.731436e-01
5.732247e-01
5.733077e-01
5.733864e-01
5.734525e-01
5.734970e-01
5.735128e-01
5.734970e-01
5.734525e-01
5.733864e-01
5.733077e-01
5.732247e-01
5.731436e-01
5.730681e-01
0.000000e+00
1.000000e+00
5.731289e-01
5.732719e-01
5.734255e-01
5.735826e-01
5.737316e-01
5.738567e-01
5.739411e-01
5.739710e-01
5.739411e-01
5.738567e-01
5.737316e-01
5.735826e-01
5.734255e-01
5.732719e-01
5.731289e-01
0.000000e+00
1.000000e+00
5.732034e-01
5.734291e-01
5.736715e-01
5.739194e-01
5.741545e-01
5.743521e-01
5.744852e-01
5.745324e-01
5.744852e-01
5.743521e-01
5.741545e-01
5.739194e-01
5.736715e-01
5.734291e-01
5.732034e-01
0.000000e+00
1.000000e+00
5.732897e-01
5.736111e-01
5.739564e-01
5.743095e-01
5.746443e-01
5.749257e-01
5.751153e-01
5.751825e-01
5.751153e-01
5.749257e-01
5.746443e-01
5.743095e-01
5.739564e-01
5.736111e-01
5.732897e-01
0.000000e+00
1.000000e+00
5.733845e-01
5.738111e-01
5.742693e-01
5.747380e-01
5.751824e-01
5.755559e-01
5.758075e-01
5.758966e-01
5.758075e-01
5.755559e-01
5.751824e-01
5.747380e-01
5.742693e-01
5.738111e-01
5.733845e-01
0.000000e+00
1.000000e+00
5.734834e-01
5.740196e-01
5.745957e-01
5.751849e-01
5.757436e-01
5.762131e-01
5.765295e-01
5.766415e-01
5.765295e-01
5.762131e-01
5.757436e-01
5.751849e-01
5.745957e-01
5.740196e-01
5.734834e-01
0.000000e+00
1.000000e+00
5.735811e-01
5.742258e-01
5.749183e-01
5.756267e-01
5.762983e-01
5.768627e-01
5.772431e-01
5.773778e-01
5.772431e-01
5.768627e-01
5.762983e-01
5.756267e-01
5.749183e-01
5.742258e-01
5.735811e-01
0.000000e+00
1.000000e+00
5.736723e-01
5.744181e-01
5.752192e-01
5.760386e-01
5.768156e-01
5.774686e-01
5.779086e-01
5.780644e-01
5.779086e-01
5.774686e-01
5.768156e-01
5.760386e-01
5.752192e-01
5.744181e-01
5.736723e-01
0.000000e+00
1.000000e+00
5.737518e-01
5.745859e-01
5.754819e-01
5.763982e-01
5.772672e-01
5.779974e-01
5.784895e-01
5.786637e-01
5.784895e-01
5.779974e-01
5.772672e-01
5.763982e-01
5.754819e-01
5.745859e-01
5.737518e-01
0.000000e+00
1.000000e+00
5.738158e-01
5.747208e-01
5.756931e-01
5.766874e-01
5.776303e-01
5.784227e-01
5.789566e-01
5.791457e-01
5.789566e-01
5.784227e-01
5.776303e-01
5.766874e-01
5.756931e-01
5.747208e-01
5.738158e-01
0.000000e+00
1.000000e+00
5.738616e-01
5.748175e-01
5.758443e-01
5.768945e-01
5.778904e-01
5.787272e-01
5.792911e-01
5.794909e-01
5.792911e-01
5.787272e-01
5.778904e-01
5.768945e-01
5.758443e-01
5.748175e-01
5.738616e-01
0.000000e+00
1.000000e+00
5.738882e-01
5.748736e-01
5.759322e-01
5.770148e-01
5.780414e-01
5.789042e-01
5.794855e-01
5.796914e-01
5.794855e-01
5.789042e-01
5.780414e-01
5.770148e-01
5.759322e-01
5.748736e-01
5.738882e-01
0.000000e+00
1.000000e+00
5.738960e-01
5.748901e-01
5.759579e-01
5.770501e-01
5.780857e-01
5.789560e-01
5.795424e-01
5.797501e-01
5.795424e-01
5.789560e-01
5.780857e-01
5.770501e-01
5.759579e-01
5.748901e-01
5.738960e-01
0.000000e+00
1.000000e+00
5.738865e-01
5.748700e-01
5.759266e-01
5.770072e-01
5.780319e-01
5.788929e-01
5.794731e-01
5.796786e-01
5.794731e-01
5.788929e-01
5.780319e-01
5.770072e-01
5.759266e-01
5.748700e-01
5.738865e-01
0.000000e+00
1.000000e+00
5.738621e-01
5.748184e-01
5.758458e-01
5.768965e-01
5.778929e-01
5.787302e-01
5.792944e-01
5.794942e-01
5.792944e-01
5.787302e-01
5.778929e-01
5.768965e-01
5.758458e-01
5.748184e-01
5.738621e-01
0.000000e+00
1.000000e+00
5.729652e-01
5.729267e-01
5.728853e-01
5.728429e-01
5.728027e-01
5.727689e-01
5.727462e-01
5.727381e-01
5.727462e-01
5.727689e-01
5.728027e-01
5.728429e-01
5.728853e-01
5.729267e-01
5.729652e-01
0.000000e+00
1.000000e+00
5.730088e-01
5.730186e-01
5.730291e-01
5.730398e-01
5.730499e-01
5.730585e-01
5.730642e-01
5.730663e-01
5.730642e-01
5.730585e-01
5.730499e-01
5.730398e-01
5.730291e-01
5.730186e-01
5.730088e-01
0.000000e+00
1.000000e+00
5.730678e-01
5.731431e-01
5.732239e-01
5.733065e-01
5.733849e-01
5.734508e-01
5.734951e-01
5.735109e-01
5.734951e-01
5.734508e-01
5.733849e-01
5.733065e-01
5.732239e-01
5.731431e-01
5.730678e-01
0.000000e+00
1.000000e+00
5.731424e-01
5.733004e-01
5.734701e-01
5.736437e-01
5.738083e-01
5.739466e-01
5.740398e-01
5.740728e-01
5.740398e-01
5.739466e-01
5.738083e-01
5.736437e-01
5.734701e-01
5.733004e-01
5.731424e-01
0.000000e+00
1.000000e+00
5.732315e-01
5.734883e-01
5.737642e-01
5.740463e-01
5.743139e-01
5.745387e-01
5.746902e-01
5.747438e-01
5.746902e-01
5.745387e-01
5.743139e-01
5.740463e-01
5.737642e-01
5.734883e-01
5.732315e-01
0.000000e+00
1.000000e+00
5.733325e-01
5.737013e-01
5.740975e-01
5.745027e-01
5.748869e-01
5.752098e-01
5.754274e-01
5.755045e-01
5.754274e-01
5.752098e-01
5.748869e-01
5.745027e-01
5.740975e-01
5.737013e-01
5.733325e-01
0.000000e+00
1.000000e+00
5.734412e-01
5.739307e-01
5.744565e-01
5.749943e-01
5.755043e-01
5.759328e-01
5.762216e-01
5.763239e-01
5.762216e-01
5.759328e-01
5.755043e-01
5.749943e-01
5.744565e-01
5.739307e-01
5.734412e-01
0.000000e+00
1.000000e+00
5.735524e-01
5.741653e-01
5.748236e-01
5.754969e-01
5.761354e-01
5.766719e-01
5.770335e-01
5.771615e-01
5.770335e-01
5.766719e-01
5.761354e-01
5.754969e-01
5.748236e-01
5.741653e-01
5.735524e-01
0.000000e+00
1.000000e+00
5.736599e-01
5.743919e-01
5.751783e-01
5.759827e-01
5.767453e-01
5.773862e-01
5.778181e-01
5.779711e-01
5.778181e-01
5.773862e-01
5.767453e-01
5.759827e-01
5.751783e-01
5.743919e-01
5.736599e-01
0.000000e+00
1.000000e+00
5.737574e-01
5.745976e-01
5.755003e-01
5.764234e-01
5.772988e-01
5.780344e-01
5.785301e-01
5.787057e-01
5.785301e-01
5.780344e-01
5.772988e-01
5.764234e-01
5.755003e-01
5.745976e-01
5.737574e-01
0.000000e+00
1.000000e+00
5.738395e-01
5.747708e-01
5.757712e-01
5.767944e-01
5.777647e-01
5.785801e-01
5.791295e-01
5.793241e-01
5.791295e-01
5.785801e-01
5.777647e-01
5.767944e-01
5.757712e-01
5.747708e-01
5.738395e-01
0.000000e+00
1.000000e+00
5.739020e-01
5.749027e-01
5.759777e-01
5.770772e-01
5.781197e-01
5.789958e-01
5.795862e-01
5.797952e-01
5.795862e-01
5.789958e-01
5.781197e-01
5.770772e-01
5.759777e-01
5.749027e-01
5.739020e-01
0.000000e+00
1.000000e+00
5.739427e-01
5.749885e-01
5.761120e-01
5.772611e-01
5.783507e-01
5.792663e-01
5.798833e-01
5.801018e-01
5.798833e-01
5.792663e-01
5.783507e-01
5.772611e-01
5.761120e-01
5.749885e-01
5.739427e-01
0.000000e+00
1.000000e+00
5.739611e-01
5.750273e-01
5.761726e-01
5.773441e-01
5.784549e-01
5.793884e-01
5.800174e-01
5.802401e-01
5.800174e-01
5.793884e-01
5.784549e-01
5.773441e-01
5.761726e-01
5.750273e-01
5.739611e-01
0.000000e+00
1.000000e+00
5.739583e-01
5.750213e-01
5.761634e-01
5.773314e-01
5.784390e-01
5.793697e-01
5.799968e-01
5.802190e-01
5.799968e-01
5.793697e-01
5.784390e-01
5.773314e-01
5.761634e-01
5.750213e-01
5.739583e-01
0.000000e+00
1.000000e+00
5.739366e-01
5.749757e-01
5.760920e-01
5.772337e-01
5.783162e-01
5.792259e-01
5.798390e-01
5.800561e-01
5.798390e-01
5.792259e-01
5.783162e-01
5.772337e-01
5.760920e-01
5.749757e-01
5.739366e-01
0.000000e+00
1.000000e+00
5.738993e-01
5.748969e-01
5.759687e-01
5.770648e-01
5.781042e-01
5.789776e-01
5.795662e-01
5.797747e-01
5.795662e-01
5.789776e-01
5.781042e-01
5.770648e-01
5.759687e-01
5.748969e-01
5.738993e-01
0.000000e+00
1.000000e+00
5.729284e-01
5.728490e-01
5.727636e-01
5.726764e-01
5.725936e-01
5.725240e-01
5.724772e-01
5.724606e-01
5.724772e-01
5.725240e-01
5.725936e-01
5.726764e-01
5.727636e-01
5.728490e-01
5.729284e-01
0.000000e+00
1.000000e+00
5.729825e-01
5.729632e-01
5.729423e-01
5.729210e-01
5.729009e-01
5.728839e-01
5.728725e-01
5.728684e-01
5.728725e-01
5.728839e-01
5.729009e-01
5.729210e-01
5.729423e-01
5.729632e-01
5.729825e-01
0.000000e+00
1.000000e+00
5.730536e-01
5.731130e-01
5.731768e-01
5.732421e-01
5.733040e-01
5.733560e-01
5.733910e-01
5.734034e-01
5.733910e-01
5.733560e-01
5.733040e-01
5.732421e-01
5.731768e-01
5.731130e-01
5.730536e-01
0.000000e+00
1.000000e+00
5.731414e-01
5.732982e-01
5.734666e-01
5.736389e-01
5.738023e-01
5.739396e-01
5.740321e-01
5.740649e-01
5.740321e-01
5.739396e-01
5.738023e-01
5.736389e-01
5.734666e-01
5.732982e-01
5.731414e-01
0.000000e+00
1.000000e+00
5.732444e-01
5.735155e-01
5.738067e-01
5.741046e-01
5.743871e-01
5.746244e-01
5.747844e-01
5.748410e-01
5.747844e-01
5.746244e-01
5.743871e-01
5.741046e-01
5.738067e-01
5.735155e-01
5.732444e-01
0.000000e+00
1.000000e+00
5.733594e-01
5.737581e-01
5.741864e-01
5.746245e-01
5.750398e-01
5.753889e-01
5.756241e-01
5.757074e-01
5.756241e-01
5.753889e-01
5.750398e-01
5.746245e-01
5.741864e-01
5.737581e-01
5.733594e-01
0.000000e+00
1.000000e+00
5.734814e-01
5.740155e-01
5.745893e-01
5.751761e-01
5.757325e-01
5.762001e-01
5.765152e-01
5.766268e-01
5.765152e-01
5.762001e-01
5.757325e-01
5.751761e-01
5.745893e-01
5.740155e-01
5.734814e-01
0.000000e+00
1.000000e+00
5.736042e-01
5.742744e-01
5.749944e-01
5.757308e-01
5.764291e-01
5.770159e-01
5.774114e-01
5.775514e-01
5.774114e-01
5.770159e-01
5.764291e-01
5.757308e-01
5.749944e-01
5.742744e-01
5.736042e-01
0.000000e+00
1.000000e+00
5.737205e-01
5.745198e-01
5.753785e-01
5.762567e-01
5.770894e-01
5.777892e-01
5.782608e-01
5.784278e-01
5.782608e-01
5.777892e-01
5.770894e-01
5.762567e-01
5.753785e-01
5.745198e-01
5.737205e-01
0.000000e+00
1.000000e+00
5.738235e-01
5.747370e-01
5.757184e-01
5.767222e-01
5.776739e-01
5.784738e-01
5.790127e-01
5.792036e-01
5.790127e-01
5.784738e-01
5.776739e-01
5.767222e-01
5.757184e-01
5.747370e-01
5.738235e-01
0.000000e+00
1.000000e+00
5.739072e-01
5.749136e-01
5.759948e-01
5.771005e-01
5.781491e-01
5.790302e-01
5.796239e-01
5.798342e-01
5.796239e-01
5.790302e-01
5.781491e-01
5.771005e-01
5.759948e-01
5.749136e-01
5.739072e-01
0.000000e+00
1.000000e+00
5.739675e-01
5.750408e-01
5.761938e-01
5.773731e-01
5.784913e-01
5.794310e-01
5.800642e-01
5.802885e-01
5.800642e-01
5.794310e-01
5.784913e-01
5.773731e-01
5.761938e-01
5.750408e-01
5.739675e-01
0.000000e+00
1.000000e+00
5.740024e-01
5.751145e-01
5.763091e-01
5.775310e-01
5.786895e-01
5.796632e-01
5.803192e-01
5.805516e-01
5.803192e-01
5.796632e-01
5.786895e-01
5.775310e-01
5.763091e-01
5.751145e-01
5.740024e-01
0.000000e+00
1.000000e+00
5.740121e-01
5.751350e-01
5.763412e-01
5.775749e-01
5.787447e-01
5.797278e-01
5.803902e-01
5.806248e-01
5.803902e-01
5.797278e-01
5.787447e-01
5.775749e-01
5.763412e-01
5.751350e-01
5.740121e-01
0.000000e+00
1.000000e+00
5.739986e-01
5.751065e-01
5.762966e-01
5.775138e-01
5.786680e-01
5.796379e-01
5.802915e-01
5.805230e-01
5.802915e-01
5.796379e-01
5.786680e-01
5.775138e-01
5.762966e-01
5.751065e-01
5.739986e-01
0.000000e+00
1.000000e+00
5.739651e-01
5.750357e-01
5.761859e-01
5.773622e-01
5.784776e-01
5.794150e-01
5.800466e-01
5.802703e-01
5.800466e-01
5.794150e-01
5.784776e-01
5.773622e-01
5.761859e-01
5.750357e-01
5.739651e-01
0.000000e+00
1.000000e+00
5.739154e-01
5.749309e-01
5.760218e-01
5.771376e-01
5.781955e-01
5.790846e-01
5.796837e-01
5.798959e-01
5.796837e-01
5.790846e-01
5.781955e-01
5.771376e-01
5.760218e-01
5.749309e-01
5.739154e-01
0.000000e+00
1.000000e+00
5.728791e-01
5.727449e-01
5.726008e-01
5.724534e-01
5.723137e-01
5.721962e-01
5.721171e-01
5.720890e-01
5.721171e-01
5.721962e-01
5.723137e-01
5.724534e-01
5.726008e-01
5.727449e-01
5.728791e-01
0.000000e+00
1.000000e+00
5.729428e-01
5.728793e-01
5.728112e-01
5.727414e-01
5.726753e-01
5.726197e-01
5.725823e-01
5.725690e-01
5.725823e-01
5.726197e-01
5.726753e-01
5.727414e-01
5.728112e-01
5.728793e-01
5.729428e-01
0.000000e+00
1.000000e+00
5.730247e-01
5.730522e-01
5.730816e-01
5.731118e-01
5.731403e-01
5.731643e-01
5.731805e-01
5.731862e-01
5.731805e-01
5.731643e-01
5.731403e-01
5.731118e-01
5.730816e-01
5.730522e-01
5.730247e-01
0.000000e+00
1.000000e+00
5.731245e-01
5.732627e-01
5.734111e-01
5.735629e-01
5.737068e-01
5.738277e-01
5.739092e-01
5.739381e-01
5.739092e-01
5.738277e-01
5.737068e-01
5.735629e-01
5.734111e-01
5.732627e-01
5.731245e-01
0.000000e+00
1.000000e+00
5.732402e-01
5.735067e-01
5.737929e-01
5.740857e-01
5.743634e-01
5.745966e-01
5.747539e-01
5.748095e-01
5.747539e-01
5.745966e-01
5.743634e-01
5.740857e-01
5.737929e-01
5.735067e-01
5.732402e-01
0.000000e+00
1.000000e+00
5.733679e-01
5.737760e-01
5.742144e-01
5.746627e-01
5.750879e-01
5.754452e-01
5.756860e-01
5.757712e-01
5.756860e-01
5.754452e-01
5.750879e-01
5.746627e-01
5.742144e-01
5.737760e-01
5.733679e-01
0.000000e+00
1.000000e+00
5.735017e-01
5.740583e-01
5.746563e-01
5.752678e-01
5.758477e-01
5.763350e-01
5.766634e-01
5.767797e-01
5.766634e-01
5.763350e-01
5.758477e-01
5.752678e-01
5.746563e-01
5.740583e-01
5.735017e-01
0.000000e+00
1.000000e+00
5.736345e-01
5.743385e-01
5.750947e-01
5.758682e-01
5.766016e-01
5.772179e-01
5.776332e-01
5.777803e-01
5.776332e-01
5.772179e-01
5.766016e-01
5.758682e-01
5.750947e-01
5.743385e-01
5.736345e-01
0.000000e+00
1.000000e+00
5.737584e-01
5.745997e-01
5.755035e-01
5.764278e-01
5.773044e-01
5.780409e-01
5.785373e-01
5.787130e-01
5.785373e-01
5.780409e-01
5.773044e-01
5.764278e-01
5.755035e-01
5.745997e-01
5.737584e-01
0.000000e+00
1.000000e+00
5.738656e-01
5.748258e-01
5.758574e-01
5.769124e-01
5.779128e-01
5.787535e-01
5.793200e-01
5.795206e-01
5.793200e-01
5.787535e-01
5.779128e-01
5.769124e-01
5.758573e-01
5.748258e-01
5.738656e-01
0.000000e+00
1.000000e+00
5.739499e-01
5.750037e-01
5.761357e-01
5.772935e-01
5.783914e-01
5.793140e-01
5.799357e-01
5.801559e-01
5.799357e-01
5.793140e-01
5.783914e-01
5.772935e-01
5.761357e-01
5.750037e-01
5.739499e-01
0.000000e+00
1.000000e+00
5.740073e-01
5.751247e-01
5.763251e-01
5.775528e-01
5.787170e-01
5.796953e-01
5.803545e-01
5.805880e-01
5.803545e-01
5.796953e-01
5.787170e-01
5.775528e-01
5.763251e-01
5.751247e-01
5.740073e-01
0.000000e+00
1.000000e+00
5.740361e-01
5.751855e-01
5.764203e-01
5.776832e-01
5.788808e-01
5.798871e-01
5.805652e-01
5.808054e-01
5.805652e-01
5.798871e-01
5.788808e-01
5.776832e-01
5.764203e-01
5.751855e-01
5.740361e-01
0.000000e+00
1.000000e+00
5.740373e-01
5.751880e-01
5.764242e-01
5.776886e-01
5.788875e-01
5.798950e-01
5.805739e-01
5.808143e-01
5.805739e-01
5.798950e-01
5.788875e-01
5.776886e-01
5.764242e-01
5.751880e-01
5.740373e-01
0.000000e+00
1.000000e+00
5.740136e-01
5.751380e-01
5.763460e-01
5.775815e-01
5.787530e-01
5.797374e-01
5.804008e-01
5.806357e-01
5.804008e-01
5.797374e-01
5.787530e-01
5.775815e-01
5.763460e-01
5.751380e-01
5.740136e-01
0.000000e+00
1.000000e+00
5.739690e-01
5.750440e-01
5.761989e-01
5.773800e-01
5.785000e-01
5.794411e-01
5.800753e-01
5.802999e-01
5.800753e-01
5.794411e-01
5.785000e-01
5.773800e-01
5.761989e-01
5.750440e-01
5.739690e-01
0.000000e+00
1.000000e+00
5.739081e-01
5.749156e-01
5.759979e-01
5.771049e-01
5.781545e-01
5.790365e-01
5.796309e-01
5.798414e-01
5.796309e-01
5.790365e-01
5.781545e-01
5.771049e-01
5.759979e-01
5.749156e-01
5.739081e-01
0.000000e+00
1.000000e+00
5.728187e-01
5.726175e-01
5.724014e-01
5.721804e-01
5.719708e-01
5.717946e-01
5.716760e-01
5.716339e-01
5.716760e-01
5.717946e-01
5.719708e-01
5.721804e-01
5.724014e-01
5.726175e-01
5.728187e-01
0.000000e+00
1.000000e+00
5.728906e-01
5.727693e-01
5.726389e-01
5.725055e-01
5.723791e-01
5.722728e-01
5.722012e-01
5.721759e-01
5.722012e-01
5.722728e-01
5.723791e-01
5.725055e-01
5.726389e-01
5.727693e-01
5.728906e-01
0.000000e+00
1.000000e+00
5.729819e-01
5.729618e-01
5.729402e-01
5.729181e-01
5.728972e-01
5.728795e-01
5.728677e-01
5.728635e-01
5.728677e-01
5.728795e-01
5.728972e-01
5.729181e-01
5.729402e-01
5.729618e-01
5.729819e-01
0.000000e+00
1.000000e+00
5.730919e-01
5.731938e-01
5.733034e-01
5.734154e-01
5.735216e-01
5.736108e-01
5.736710e-01
5.736923e-01
5.736710e-01
5.736108e-01
5.735216e-01
5.734154e-01
5.733034e-01
5.731938e-01
5.730919e-01
0.000000e+00
1.000000e+00
5.732182e-01
5.734604e-01
5.737204e-01
5.739865e-01
5.742387e-01
5.744507e-01
5.745935e-01
5.746441e-01
5.745935e-01
5.744507e-01
5.742387e-01
5.739865e-01
5.737204e-01
5.734604e-01
5.732182e-01
0.000000e+00
1.000000e+00
5.733564e-01
5.737518e-01
5.741766e-01
5.746111e-01
5.750230e-01
5.753692e-01
5.756025e-01
5.756851e-01
5.756025e-01
5.753692e-01
5.750230e-01
5.746111e-01
5.741766e-01
5.737518e-01
5.733564e-01
0.000000e+00
1.000000e+00
5.734999e-01
5.740546e-01
5.746504e-01
5.752597e-01
5.758376e-01
5.763231e-01
5.766503e-01
5.767662e-01
5.766503e-01
5.763231e-01
5.758376e-01
5.752597e-01
5.746504e-01
5.740546e-01
5.734999e-01
0.000000e+00
1.000000e+00
5.736407e-01
5.743515e-01
5.751151e-01
5.758961e-01
5.766367e-01
5.772590e-01
5.776783e-01
5.778269e-01
5.776783e-01
5.772590e-01
5.766367e-01
5.758961e-01
5.751151e-01
5.743515e-01
5.736407e-01
0.000000e+00
1.000000e+00
5.737701e-01
5.746245e-01
5.755423e-01
5.764810e-01
5.773711e-01
5.781191e-01
5.786231e-01
5.788017e-01
5.786231e-01
5.781191e-01
5.773711e-01
5.764810e-01
5.755423e-01
5.746245e-01
5.737701e-01
0.000000e+00
1.000000e+00
5.738800e-01
5.748562e-01
5.759050e-01
5.769776e-01
5.779947e-01
5.788494e-01
5.794253e-01
5.796293e-01
5.794253e-01
5.788494e-01
5.779947e-01
5.769776e-01
5.759050e-01
5.748562e-01
5.738800e-01
0.000000e+00
1.000000e+00
5.739638e-01
5.750331e-01
5.761818e-01
5.773566e-01
5.784706e-01
5.794068e-01
5.800376e-01
5.802610e-01
5.800376e-01
5.794068e-01
5.784706e-01
5.773566e-01
5.761818e-01
5.750331e-01
5.739638e-01
0.000000e+00
1.000000e+00
5.740177e-01
5.751468e-01
5.763598e-01
5.776003e-01
5.787766e-01
5.797651e-01
5.804312e-01
5.806671e-01
5.804312e-01
5.797651e-01
5.787766e-01
5.776003e-01
5.763597e-01
5.751468e-01
5.740178e-01
0.000000e+00
1.000000e+00
5.740406e-01
5.751950e-01
5.764351e-01
5.777035e-01
5.789062e-01
5.799169e-01
5.805980e-01
5.808392e-01
5.805980e-01
5.799169e-01
5.789062e-01
5.777035e-01
5.764351e-01
5.751950e-01
5.740406e-01
0.000000e+00
1.000000e+00
5.740339e-01
5.751808e-01
5.764129e-01
5.776731e-01
5.788681e-01
5.798722e-01
5.805489e-01
5.807885e-01
5.805489e-01
5.798722e-01
5.788681e-01
5.776731e-01
5.764129e-01
5.751808e-01
5.740339e-01
0.000000e+00
1.000000e+00
5.740011e-01
5.751117e-01
5.763048e-01
5.775250e-01
5.786820e-01
5.796544e-01
5.803096e-01
5.805416e-01
5.803096e-01
5.796544e-01
5.786820e-01
5.775250e-01
5.763047e-01
5.751117e-01
5.740011e-01
0.000000e+00
1.000000e+00
5.739470e-01
5.749976e-01
5.761262e-01
5.772804e-01
5.783750e-01
5.792947e-01
5.799145e-01
5.801340e-01
5.799145e-01
5.792947e-01
5.783750e-01
5.772804e-01
5.761262e-01
5.749976e-01
5.739470e-01
0.000000e+00
1.000000e+00
5.738767e-01
5.748494e-01
5.758942e-01
5.769629e-01
5.779762e-01
5.788278e-01
5.794016e-01
5.796048e-01
5.794016e-01
5.788278e-01
5.779762e-01
5.769629e-01
5.758942e-01
5.748494e-01
5.738767e-01
0.000000e+00
1.000000e+00
5.727496e-01
5.724717e-01
5.721732e-01
5.718680e-01
5.715785e-01
5.713352e-01
5.711713e-01
5.711133e-01
5.711713e-01
5.713352e-01
5.715785e-01
5.718680e-01
5.721732e-01
5.724717e-01
5.727496e-01
0.000000e+00
1.000000e+00
5.728282e-01
5.726375e-01
5.724327e-01
5.722232e-01
5.720245e-01
5.718576e-01
5.717451e-01
5.717053e-01
5.717451e-01
5.718576e-01
5.720245e-01
5.722232e-01
5.724327e-01
5.726375e-01
5.728282e-01
0.000000e+00
1.000000e+00
5.729269e-01
5.728457e-01
5.727585e-01
5.726694e-01
5.725848e-01
5.725138e-01
5.724659e-01
5.724489e-01
5.724659e-01
5.725138e-01
5.725848e-01
5.726694e-01
5.727585e-01
5.728457e-01
5.729269e-01
0.000000e+00
1.000000e+00
5.730449e-01
5.730946e-01
5.731481e-01
5.732027e-01
5.732546e-01
5.732981e-01
5.733275e-01
5.733379e-01
5.733275e-01
5.732981e-01
5.732546e-01
5.732027e-01
5.731481e-01
5.730946e-01
5.730449e-01
0.000000e+00
1.000000e+00
5.731794e-01
5.733783e-01
5.735920e-01
5.738106e-01
5.740179e-01
5.741921e-01
5.743095e-01
5.743510e-01
5.743095e-01
5.741921e-01
5.740179e-01
5.738106e-01
5.735920e-01
5.733783e-01
5.731794e-01
0.000000e+00
1.000000e+00
5.733253e-01
5.736862e-01
5.740740e-01
5.744705e-01
5.748465e-01
5.751625e-01
5.753754e-01
5.754508e-01
5.753754e-01
5.751625e-01
5.748465e-01
5.744705e-01
5.740740e-01
5.736862e-01
5.733253e-01
0.000000e+00
1.000000e+00
5.734757e-01
5.740034e-01
5.745704e-01
5.751502e-01
5.757000e-01
5.761621e-01
5.764734e-01
5.765837e-01
5.764734e-01
5.761621e-01
5.757000e-01
5.751502e-01
5.745704e-01
5.740034e-01
5.734757e-01
0.000000e+00
1.000000e+00
5.736218e-01
5.743117e-01
5.750527e-01
5.758106e-01
5.765293e-01
5.771333e-01
5.775402e-01
5.776844e-01
5.775402e-01
5.771333e-01
5.765293e-01
5.758106e-01
5.750527e-01
5.743117e-01
5.736218e-01
0.000000e+00
1.000000e+00
5.737545e-01
5.745915e-01
5.754906e-01
5.764103e-01
5.772823e-01
5.780151e-01
5.785089e-01
5.786837e-01
5.785089e-01
5.780151e-01
5.772823e-01
5.764103e-01
5.754906e-01
5.745915e-01
5.737545e-01
0.000000e+00
1.000000e+00
5.738652e-01
5.748251e-01
5.758562e-01
5.769108e-01
5.779108e-01
5.787511e-01
5.793174e-01
5.795179e-01
5.793174e-01
5.787511e-01
5.779108e-01
5.769108e-01
5.758562e-01
5.748251e-01
5.738652e-01
0.000000e+00
1.000000e+00
5.739475e-01
5.749986e-01
5.761278e-01
5.772827e-01
5.783778e-01
5.792981e-01
5.799182e-01
5.801378e-01
5.799182e-01
5.792981e-01
5.783778e-01
5.772827e-01
5.761278e-01
5.749986e-01
5.739475e-01
0.000000e+00
1.000000e+00
5.739976e-01
5.751043e-01
5.762932e-01
5.775092e-01
5.786622e-01
5.796311e-01
5.802840e-01
5.805152e-01
5.802840e-01
5.796311e-01
5.786622e-01
5.775092e-01
5.762932e-01
5.751043e-01
5.739976e-01
0.000000e+00
1.000000e+00
5.740148e-01
5.751406e-01
5.763501e-01
5.775870e-01
5.787599e-01
5.797456e-01
5.804098e-01
5.806450e-01
5.804098e-01
5.797456e-01
5.787599e-01
5.775870e-01
5.763501e-01
5.751406e-01
5.740148e-01
0.000000e+00
1.000000e+00
5.740012e-01
5.751120e-01
5.763053e-01
5.775257e-01
5.786829e-01
5.796554e-01
5.803107e-01
5.805428e-01
5.803107e-01
5.796554e-01
5.786829e-01
5.775257e-01
5.763053e-01
5.751120e-01
5.740012e-01
0.000000e+00
1.000000e+00
5.739610e-01
5.750271e-01
5.761724e-01
5.773438e-01
5.784545e-01
5.793879e-01
5.800168e-01
5.802396e-01
5.800168e-01
5.793879e-01
5.784545e-01
5.773438e-01
5.761724e-01
5.750271e-01
5.739610e-01
0.000000e+00
1.000000e+00
5.738994e-01
5.748971e-01
5.759689e-01
5.770651e-01
5.781046e-01
5.789781e-01
5.795667e-01