<?xml version="1.0"?>
<VTKFile type="StructuredGrid" version="0.1">
  <StructuredGrid WholeExtent="0 16 0 16 0 16">
    <Piece Extent="0 16 0 16 0 16">
      <PointData Scalars="temperature" Vectors="velocity">
        <DataArray type="Float32" Name="temperature" format="ascii">
1.000000e+00
5.729321e-01
5.729512e-01
5.728947e-01
5.728532e-01
5.728137e-01
5.727805e-01
5.727583e-01
5.727507e-01
5.727591e-01
5.727821e-01
5.728158e-01
5.728551e-01
5.728957e-01
5.733431e-01
5.712851e-01
0.000000e+00
1.000000e+00
5.730935e-01
5.731047e-01
5.731425e-01
5.731922e-01
5.732391e-01
5.732785e-01
5.733050e-01
5.733145e-01
5.733052e-01
5.732788e-01
5.732393e-01
5.731923e-01
5.731421e-01
5.737922e-01
5.716735e-01
0.000000e+00
1.000000e+00
5.732817e-01
5.732665e-01
5.734348e-01
5.735931e-01
5.737428e-01
5.738679e-01
5.739509e-01
5.739793e-01
5.739480e-01
5.738624e-01
5.737363e-01
5.735883e-01
5.734314e-01
5.742582e-01
5.713445e-01
0.000000e+00
1.000000e+00
5.733932e-01
5.734596e-01
5.737645e-01
5.740423e-01
5.743048e-01
5.745255e-01
5.746744e-01
5.747270e-01
5.746732e-01
5.745235e-01
5.743080e-01
5.740508e-01
5.737737e-01
5.739513e-01
5.713149e-01
0.000000e+00
1.000000e+00
5.734755e-01
5.736692e-01
5.741010e-01
5.744995e-01
5.748792e-01
5.752057e-01
5.754359e-01
5.755312e-01
5.754682e-01
5.752676e-01
5.749568e-01
5.745682e-01
5.741473e-01
5.738630e-01
5.717942e-01
0.000000e+00
1.000000e+00
5.735803e-01
5.738924e-01
5.744504e-01
5.749798e-01
5.754877e-01
5.759227e-01
5.762256e-01
5.763429e-01
5.762957e-01
5.760735e-01
5.756410e-01
5.751127e-01
5.745429e-01
5.740143e-01
5.721069e-01
0.000000e+00
1.000000e+00
5.736956e-01
5.741232e-01
5.748101e-01
5.754707e-01
5.761013e-01
5.766366e-01
5.770089e-01
5.771739e-01
5.771378e-01
5.768696e-01
5.763350e-01
5.756637e-01
5.749408e-01
5.742153e-01
5.727997e-01
0.000000e+00
1.000000e+00
5.737956e-01
5.743452e-01
5.751401e-01
5.759102e-01
5.766458e-01
5.772799e-01
5.777493e-01
5.779995e-01
5.779400e-01
5.776084e-01
5.770012e-01
5.761941e-01
5.753208e-01
5.744457e-01
5.731674e-01
0.000000e+00
1.000000e+00
5.738814e-01
5.745448e-01
5.754268e-01
5.762881e-01
5.771146e-01
5.778528e-01
5.784280e-01
5.787338e-01
5.786357e-01
5.782624e-01
5.775939e-01
5.766753e-01
5.756650e-01
5.746542e-01
5.734764e-01
0.000000e+00
1.000000e+00
5.739554e-01
5.747055e-01
5.756578e-01
5.765975e-01
5.775083e-01
5.783394e-01
5.789866e-01
5.793125e-01
5.792046e-01
5.787916e-01
5.780718e-01
5.770720e-01
5.759541e-01
5.748389e-01
5.736978e-01
0.000000e+00
1.000000e+00
5.740107e-01
5.748065e-01
5.758149e-01
5.768104e-01
5.777958e-01
5.786976e-01
5.793892e-01
5.797273e-01
5.796166e-01
5.791675e-01
5.784115e-01
5.773696e-01
5.761765e-01
5.749715e-01
5.737415e-01
0.000000e+00
1.000000e+00
5.740459e-01
5.748587e-01
5.759065e-01
5.769327e-01
5.779672e-01
5.789089e-01
5.796240e-01
5.799696e-01
5.798562e-01
5.793767e-01
5.785937e-01
5.775401e-01
5.763169e-01
5.750462e-01
5.737440e-01
0.000000e+00
1.000000e+00
5.740370e-01
5.748753e-01
5.759240e-01
5.769685e-01
5.780178e-01
5.789699e-01
5.796897e-01
5.800340e-01
5.799158e-01
5.794245e-01
5.786272e-01
5.775704e-01
5.763547e-01
5.750752e-01
5.737529e-01
0.000000e+00
1.000000e+00
5.740070e-01
5.748548e-01
5.758831e-01
5.769190e-01
5.779483e-01
5.788827e-01
5.795924e-01
5.799276e-01
5.798033e-01
5.793178e-01
5.785193e-01
5.774659e-01
5.762773e-01
5.750407e-01
5.737778e-01
0.000000e+00
1.000000e+00
5.739630e-01
5.747824e-01
5.757917e-01
5.767956e-01
5.777802e-01
5.786667e-01
5.793436e-01
5.796627e-01
5.795320e-01
5.790664e-01
5.782790e-01
5.772459e-01
5.761092e-01
5.749543e-01
5.737620e-01
0.000000e+00
1.000000e+00
5.738857e-01
5.746904e-01
5.756386e-01
5.765993e-01
5.775286e-01
5.783501e-01
5.789680e-01
5.792613e-01
5.791352e-01
5.786876e-01
5.779126e-01
5.769262e-01
5.758634e-01
5.748224e-01
5.737679e-01
0.000000e+00
1.000000e+00
5.737612e-01
5.745598e-01
5.754268e-01
5.763228e-01
5.771847e-01
5.779344e-01
5.784845e-01
5.787454e-01
5.786399e-01
5.782028e-01
5.774660e-01
5.765616e-01
5.756017e-01
5.746747e-01
5.737620e-01
0.000000e+00
1.000000e+00
5.731073e-01
5.730773e-01
5.731162e-01
5.731562e-01
5.731940e-01
5.732257e-01
5.732473e-01
5.732551e-01
5.732479e-01
5.732269e-01
5.731954e-01
5.731572e-01
5.731161e-01
5.736425e-01
5.708363e-01
0.000000e+00
1.000000e+00
5.732863e-01
5.732220e-01
5.733694e-01
5.735038e-01
5.736311e-01
5.737378e-01
5.738093e-01
5.738345e-01
5.738087e-01
5.737360e-01
5.736269e-01
5.734967e-01
5.733640e-01
5.737239e-01
5.726011e-01
0.000000e+00
1.000000e+00
5.733742e-01
5.733986e-01
5.736682e-01
5.739148e-01
5.741483e-01
5.743425e-01
5.744698e-01
5.745125e-01
5.744616e-01
5.743260e-01
5.741295e-01
5.739021e-01
5.736664e-01
5.737480e-01
5.723076e-01
0.000000e+00
1.000000e+00
5.734514e-01
5.736176e-01
5.740029e-01
5.743707e-01
5.747191e-01
5.750122e-01
5.752084e-01
5.752791e-01
5.752043e-01
5.750041e-01
5.747236e-01
5.743833e-01
5.740151e-01
5.738006e-01
5.727786e-01
0.000000e+00
1.000000e+00
5.735567e-01
5.738449e-01
5.743569e-01
5.748512e-01
5.753193e-01
5.757165e-01
5.759901e-01
5.760980e-01
5.760181e-01
5.757732e-01
5.753867e-01
5.749036e-01
5.743876e-01
5.739611e-01
5.730896e-01
0.000000e+00
1.000000e+00
5.736668e-01
5.740726e-01
5.747180e-01
5.753442e-01
5.759403e-01
5.764472e-01
5.767954e-01
5.769328e-01
5.768846e-01
5.765893e-01
5.760670e-01
5.754379e-01
5.747713e-01
5.741650e-01
5.731154e-01
0.000000e+00
1.000000e+00
5.737699e-01
5.743049e-01
5.750751e-01
5.758280e-01
5.765420e-01
5.771505e-01
5.775818e-01
5.777937e-01
5.777333e-01
5.773868e-01
5.767496e-01
5.759696e-01
5.751509e-01
5.743728e-01
5.734275e-01
0.000000e+00
1.000000e+00
5.738649e-01
5.745224e-01
5.754028e-01
5.762649e-01
5.770785e-01
5.777901e-01
5.783332e-01
5.786239e-01
5.785098e-01
5.781211e-01
5.774052e-01
5.764740e-01
5.755044e-01
5.745948e-01
5.735922e-01
0.000000e+00
1.000000e+00
5.739468e-01
5.747118e-01
5.756854e-01
5.766371e-01
5.775406e-01
5.783617e-01
5.790030e-01
5.793264e-01
5.791895e-01
5.787410e-01
5.779765e-01
5.769237e-01
5.758117e-01
5.747867e-01
5.736838e-01
0.000000e+00
1.000000e+00
5.740145e-01
5.748590e-01
5.759069e-01
5.769281e-01
5.779186e-01
5.788294e-01
5.795265e-01
5.798656e-01
5.797334e-01
5.792274e-01
5.784115e-01
5.772932e-01
5.760625e-01
5.749383e-01
5.737368e-01
0.000000e+00
1.000000e+00
5.740639e-01
5.749535e-01
5.760583e-01
5.771328e-01
5.781927e-01
5.791535e-01
5.798755e-01
5.802270e-01
5.801043e-01
5.795613e-01
5.786849e-01
5.775375e-01
5.762508e-01
5.750377e-01
5.737838e-01
0.000000e+00
1.000000e+00
5.740813e-01
5.749944e-01
5.761336e-01
5.772381e-01
5.783305e-01
5.793098e-01
5.800431e-01
5.803999e-01
5.802827e-01
5.797224e-01
5.788056e-01
5.776365e-01
5.763483e-01
5.750907e-01
5.738029e-01
0.000000e+00
1.000000e+00
5.740657e-01
5.749886e-01
5.761276e-01
5.772322e-01
5.783221e-01
5.792996e-01
5.800297e-01
5.803825e-01
5.802698e-01
5.797123e-01
5.787928e-01
5.776165e-01
5.763249e-01
5.750851e-01
5.738040e-01
0.000000e+00
1.000000e+00
5.740306e-01
5.749507e-01
5.760560e-01
5.771318e-01
5.781845e-01
5.791347e-01
5.798459e-01
5.801836e-01
5.800712e-01
5.795372e-01
5.786355e-01
5.774736e-01
5.762112e-01
5.750104e-01
5.738729e-01
0.000000e+00
1.000000e+00
5.739770e-01
5.748787e-01
5.759227e-01
5.769481e-01
5.779406e-01
5.788337e-01
5.795063e-01
5.798222e-01
5.797110e-01
5.792112e-01
5.783407e-01
5.772221e-01
5.760318e-01
5.749100e-01
5.738634e-01
0.000000e+00
1.000000e+00
5.738956e-01
5.747328e-01
5.756992e-01
5.766710e-01
5.775992e-01
5.784202e-01
5.790342e-01
5.793232e-01
5.792209e-01
5.787523e-01
5.779280e-01
5.768893e-01
5.757856e-01
5.747557e-01
5.738614e-01
0.000000e+00
1.000000e+00
5.738136e-01
5.745565e-01
5.754302e-01
5.763250e-01
5.771804e-01
5.779191e-01
5.784577e-01
5.787116e-01
5.786191e-01
5.781883e-01
5.774597e-01
5.765596e-01
5.755956e-01
5.746554e-01
5.740791e-01
0.000000e+00
1.000000e+00
5.732733e-01
5.731668e-01
5.733063e-01
5.734165e-01
5.735209e-01
5.736087e-01
5.736679e-01
5.736891e-01
5.736687e-01
5.736099e-01
5.735217e-01
5.734157e-01
5.733038e-01
5.737326e-01
5.714427e-01
0.000000e+00
1.000000e+00
5.733462e-01
5.733301e-01
5.735641e-01
5.737721e-01
5.739676e-01
5.741301e-01
5.742369e-01
5.742728e-01
5.742316e-01
5.741192e-01
5.739526e-01
5.737569e-01
5.735579e-01
5.735743e-01
5.727482e-01
0.000000e+00
1.000000e+00
5.734227e-01
5.735255e-01
5.738649e-01
5.741853e-01
5.744876e-01
5.747387e-01
5.749036e-01
5.749608e-01
5.748974e-01
5.747233e-01
5.744723e-01
5.741781e-01
5.738698e-01
5.736935e-01
5.725712e-01
0.000000e+00
1.000000e+00
5.735203e-01
5.737459e-01
5.742024e-01
5.746454e-01
5.750650e-01
5.754175e-01
5.756533e-01
5.757411e-01
5.756528e-01
5.754157e-01
5.750777e-01
5.746649e-01
5.742217e-01
5.738441e-01
5.729335e-01
0.000000e+00
1.000000e+00
5.736176e-01
5.739815e-01
5.745644e-01
5.751373e-01
5.756806e-01
5.761408e-01
5.764563e-01
5.765798e-01
5.764829e-01
5.761918e-01
5.757450e-01
5.751898e-01
5.746001e-01
5.740652e-01
5.731712e-01
0.000000e+00
1.000000e+00
5.737243e-01
5.742179e-01
5.749341e-01
5.756406e-01
5.763105e-01
5.768771e-01
5.772646e-01
5.774205e-01
5.773646e-01
5.770205e-01
5.764314e-01
5.757284e-01
5.749899e-01
5.743004e-01
5.732722e-01
0.000000e+00
1.000000e+00
5.738271e-01
5.744518e-01
5.752933e-01
5.761271e-01
5.769122e-01
5.775768e-01
5.780490e-01
5.782791e-01
5.782039e-01
5.778247e-01
5.771155e-01
5.762586e-01
5.753710e-01
5.745275e-01
5.735050e-01
0.000000e+00
1.000000e+00
5.739242e-01
5.746688e-01
5.756253e-01
5.765651e-01
5.774429e-01
5.782096e-01
5.787984e-01
5.791033e-01
5.789493e-01
5.785412e-01
5.777632e-01
5.767530e-01
5.757194e-01
5.747478e-01
5.736293e-01
0.000000e+00
1.000000e+00
5.740061e-01
5.748583e-01
5.759105e-01
5.769313e-01
5.778973e-01
5.787759e-01
5.794558e-01
5.797816e-01
5.796049e-01
5.791122e-01
5.783135e-01
5.771908e-01
5.760165e-01
5.749293e-01
5.737250e-01
0.000000e+00
1.000000e+00
5.740683e-01
5.750004e-01
5.761196e-01
5.772042e-01
5.782632e-01
5.792259e-01
5.799468e-01
5.802830e-01
5.801239e-01
5.795372e-01
5.786874e-01
5.775407e-01
5.762601e-01
5.750641e-01
5.737947e-01
0.000000e+00
1.000000e+00
5.741080e-01
5.750790e-01
5.762471e-01
5.773917e-01
5.785147e-01
5.795088e-01
5.802429e-01
5.805908e-01
5.804586e-01
5.798393e-01
5.788854e-01
5.777138e-01
5.764292e-01
5.751534e-01
5.738306e-01
0.000000e+00
1.000000e+00
5.741137e-01
5.750977e-01
5.763076e-01
5.774780e-01
5.786114e-01
5.796075e-01
5.803447e-01
5.806941e-01
5.805683e-01
5.799596e-01
5.789683e-01
5.777499e-01
5.764726e-01
5.751900e-01
5.738588e-01
0.000000e+00
1.000000e+00
5.740913e-01
5.750755e-01
5.762657e-01
5.774175e-01
5.785389e-01
5.795268e-01
5.802561e-01
5.805956e-01
5.804648e-01
5.798712e-01
5.789116e-01
5.777139e-01
5.764212e-01
5.751577e-01
5.739035e-01
0.000000e+00
1.000000e+00
5.740477e-01
5.750226e-01
5.761534e-01
5.772517e-01
5.783232e-01
5.792796e-01
5.799871e-01
5.803093e-01
5.801765e-01
5.796248e-01
5.787121e-01
5.775394e-01
5.762771e-01
5.750764e-01
5.740275e-01
0.000000e+00
1.000000e+00
5.739772e-01
5.749244e-01
5.759802e-01
5.770097e-01
5.779976e-01
5.788871e-01
5.795560e-01
5.798589e-01
5.797342e-01
5.792337e-01
5.783531e-01
5.772272e-01
5.760541e-01
5.749420e-01
5.739708e-01
0.000000e+00
1.000000e+00
5.738855e-01
5.747348e-01
5.756933e-01
5.766546e-01
5.775694e-01
5.783784e-01
5.789892e-01
5.792739e-01
5.791693e-01
5.787091e-01
5.778835e-01
5.768512e-01
5.757764e-01
5.747657e-01
5.740029e-01
0.000000e+00
1.000000e+00
5.737923e-01
5.745206e-01
5.753724e-01
5.762437e-01
5.770778e-01
5.777981e-01
5.783278e-01
5.785791e-01
5.784903e-01
5.780919e-01
5.773896e-01
5.765126e-01
5.755674e-01
5.746397e-01
5.741271e-01
0.000000e+00
1.000000e+00
5.733383e-01
5.732374e-01
5.734495e-01
5.736135e-01
5.737694e-01
5.739005e-01
5.739892e-01
5.740212e-01
5.739914e-01
5.739037e-01
5.737720e-01
5.736152e-01
5.734515e-01
5.735182e-01
5.718281e-01
0.000000e+00
1.000000e+00
5.733801e-01
5.734322e-01
5.737141e-01
5.739750e-01
5.742203e-01
5.744239e-01
5.745581e-01
5.746039e-01
5.745538e-01
5.744124e-01
5.742045e-01
5.739606e-01
5.737064e-01
5.735109e-01
5.731053e-01
0.000000e+00
1.000000e+00
5.734653e-01
5.736294e-01
5.740163e-01
5.743908e-01
5.747429e-01
5.750350e-01
5.752270e-01
5.752944e-01
5.752222e-01
5.750193e-01
5.747293e-01
5.743872e-01
5.740222e-01
5.737321e-01
5.728731e-01
0.000000e+00
1.000000e+00
5.735604e-01
5.738407e-01
5.743487e-01
5.748470e-01
5.753185e-01
5.757140e-01
5.759789e-01
5.760789e-01
5.759815e-01
5.757215e-01
5.753446e-01
5.748784e-01
5.743751e-01
5.739136e-01
5.731265e-01
0.000000e+00
1.000000e+00
5.736630e-01
5.740687e-01
5.747069e-01
5.753349e-01
5.759312e-01
5.764365e-01
5.767833e-01
5.769196e-01
5.768229e-01
5.765057e-01
5.760118e-01
5.754022e-01
5.747536e-01
5.741468e-01
5.733016e-01
0.000000e+00
1.000000e+00
5.737637e-01
5.743079e-01
5.750737e-01
5.758342e-01
5.765561e-01
5.771675e-01
5.775851e-01
5.777571e-01
5.776999e-01
5.773258e-01
5.766951e-01
5.759407e-01
5.751431e-01
5.743856e-01
5.734240e-01
0.000000e+00
1.000000e+00
5.738674e-01
5.745405e-01
5.754306e-01
5.763161e-01
5.771508e-01
5.778578e-01
5.783613e-01
5.786140e-01
5.785275e-01
5.781239e-01
5.773753e-01
5.764678e-01
5.755211e-01
5.746176e-01
5.735762e-01
0.000000e+00
1.000000e+00
5.739625e-01
5.747531e-01
5.757570e-01
5.767463e-01
5.776720e-01
5.784806e-01
5.791006e-01
5.794201e-01
5.792539e-01
5.788180e-01
5.780094e-01
5.769550e-01
5.758635e-01
5.748299e-01
5.736751e-01
0.000000e+00
1.000000e+00
5.740370e-01
5.749349e-01
5.760289e-01
5.770967e-01
5.781104e-01
5.790303e-01
5.797355e-01
5.800671e-01
5.798867e-01
5.793564e-01
5.785263e-01
5.773763e-01
5.761519e-01
5.750018e-01
5.737573e-01
0.000000e+00
1.000000e+00
5.740965e-01
5.750624e-01
5.762185e-01
5.773473e-01
5.784545e-01
5.794526e-01
5.801896e-01
5.805268e-01
5.803638e-01
5.797578e-01
5.788616e-01
5.776879e-01
5.763783e-01
5.751229e-01
5.738002e-01
0.000000e+00
1.000000e+00
5.741276e-01
5.751223e-01
5.763227e-01
5.775080e-01
5.786724e-01
5.796937e-01
5.804372e-01
5.807809e-01
5.806366e-01
5.800124e-01
5.790275e-01
5.778323e-01
5.765220e-01
5.751977e-01
5.738598e-01
0.000000e+00
1.000000e+00
5.741212e-01
5.751224e-01
5.763551e-01
5.775606e-01
5.787249e-01
5.797400e-01
5.804810e-01
5.808194e-01
5.806805e-01
5.800601e-01
5.790545e-01
5.778380e-01
5.765366e-01
5.752251e-01
5.739591e-01
0.000000e+00
1.000000e+00
5.740827e-01
5.750788e-01
5.762761e-01
5.774530e-01
5.785958e-01
5.795951e-01
5.803241e-01
5.806486e-01
5.804979e-01
5.798989e-01
5.789414e-01
5.777559e-01
5.764510e-01
5.752066e-01
5.740472e-01
0.000000e+00
1.000000e+00
5.740279e-01
5.750043e-01
5.761262e-01
5.772302e-01
5.783130e-01
5.792760e-01
5.799816e-01
5.802873e-01
5.801339e-01
5.795895e-01
5.786938e-01
5.775353e-01
5.762728e-01
5.751019e-01
5.741752e-01
0.000000e+00
1.000000e+00
5.739514e-01
5.748875e-01
5.759276e-01
5.769427e-01
5.779212e-01
5.788063e-01
5.794742e-01
5.797639e-01
5.796287e-01
5.791449e-01
5.782810e-01
5.771735e-01
5.760153e-01
5.749240e-01
5.740842e-01
0.000000e+00
1.000000e+00
5.738532e-01
5.746861e-01
5.756157e-01
5.765510e-01
5.774400e-01
5.782282e-01
5.788322e-01
5.791110e-01
5.790052e-01
5.785670e-01
5.777647e-01
5.767626e-01
5.757127e-01
5.747203e-01
5.740875e-01
0.000000e+00
1.000000e+00
5.737522e-01
5.744562e-01
5.752748e-01
5.761083e-01
5.769060e-01
5.775932e-01
5.781043e-01
5.783511e-01
5.782648e-01
5.778981e-01
5.772285e-01
5.763869e-01
5.754740e-01
5.745721e-01
5.740207e-01
0.000000e+00
1.000000e+00
5.733527e-01
5.732944e-01
5.735355e-01
5.737309e-01
5.739163e-01
5.740729e-01
5.741804e-01
5.742211e-01
5.741879e-01
5.740846e-01
5.739286e-01
5.737427e-01
5.735477e-01
5.734360e-01
5.722918e-01
0.000000e+00
1.000000e+00
5.734160e-01
5.734912e-01
5.737988e-01
5.740890e-01
5.743623e-01
5.745898e-01
5.747417e-01
5.747955e-01
5.747437e-01
5.745865e-01
5.743544e-01
5.740825e-01
5.737945e-01
5.735199e-01
5.732912e-01
0.000000e+00
1.000000e+00
5.734870e-01
5.736875e-01
5.741025e-01
5.745060e-01
5.748847e-01
5.751981e-01
5.754050e-01
5.754784e-01
5.754023e-01
5.751824e-01
5.748719e-01
5.745034e-01
5.741055e-01
5.737566e-01
5.730810e-01
0.000000e+00
1.000000e+00
5.735650e-01
5.738953e-01
5.744273e-01
5.749547e-01
5.754532e-01
5.758703e-01
5.761495e-01
5.762549e-01
5.761518e-01
5.758808e-01
5.754844e-01
5.749893e-01
5.744545e-01
5.739539e-01
5.732643e-01
0.000000e+00
1.000000e+00
5.736697e-01
5.741182e-01
5.747739e-01
5.754295e-01
5.760519e-01
5.765794e-01
5.769416e-01
5.770830e-01
5.769912e-01
5.766629e-01
5.761444e-01
5.755066e-01
5.748285e-01
5.741903e-01
5.733462e-01
0.000000e+00
1.000000e+00
5.737810e-01
5.743470e-01
5.751330e-01
5.759181e-01
5.766635e-01
5.772956e-01
5.777270e-01
5.779073e-01
5.778509e-01
5.774680e-01
5.768189e-01
5.760379e-01
5.752126e-01
5.744267e-01
5.734733e-01
0.000000e+00
1.000000e+00
5.738861e-01
5.745727e-01
5.754844e-01
5.763898e-01
5.772446e-01
5.779702e-01
5.784863e-01
5.787509e-01
5.786583e-01
5.782427e-01
5.774860e-01
5.765567e-01
5.755837e-01
5.746563e-01
5.735746e-01
0.000000e+00
1.000000e+00
5.739710e-01
5.747845e-01
5.758014e-01
5.768071e-01
5.777520e-01
5.785755e-01
5.792032e-01
5.795300e-01
5.793733e-01
5.789096e-01
5.780936e-01
5.770298e-01
5.759171e-01
5.748589e-01
5.736796e-01
0.000000e+00
1.000000e+00
5.740421e-01
5.749561e-01
5.760605e-01
5.771435e-01
5.781728e-01
5.790991e-01
5.798074e-01
5.801418e-01
5.799758e-01
5.794409e-01
5.785767e-01
5.774223e-01
5.761905e-01
5.750207e-01
5.737628e-01
0.000000e+00
1.000000e+00
5.740985e-01
5.750727e-01
5.762376e-01
5.773747e-01
5.784853e-01
5.794868e-01
5.802262e-01
5.805596e-01
5.803925e-01
5.798217e-01
5.789028e-01
5.777064e-01
5.763935e-01
5.751309e-01
5.738464e-01
0.000000e+00
1.000000e+00
5.741205e-01
5.751266e-01
5.763214e-01
5.774976e-01
5.786607e-01
5.796897e-01
5.804345e-01
5.807660e-01
5.805991e-01
5.799990e-01
5.790440e-01
5.778466e-01
5.765128e-01
5.751995e-01
5.739845e-01
0.000000e+00
1.000000e+00
5.741073e-01
5.751135e-01
5.763092e-01
5.774946e-01
5.786619e-01
5.796863e-01
5.804280e-01
5.807524e-01
5.805943e-01
5.799909e-01
5.790324e-01
5.778338e-01
5.765068e-01
5.752307e-01
5.740997e-01
0.000000e+00
1.000000e+00
5.740652e-01
5.750605e-01
5.762197e-01
5.773651e-01
5.784917e-01
5.794900e-01
5.802153e-01
5.805249e-01
5.803692e-01
5.798000e-01
5.788770e-01
5.776934e-01
5.763909e-01
5.751996e-01
5.741751e-01
0.000000e+00
1.000000e+00
5.739975e-01
5.749632e-01
5.760545e-01
5.771265e-01
5.781730e-01
5.791173e-01
5.798152e-01
5.801063e-01
5.799527e-01
5.794409e-01
5.785623e-01
5.774171e-01
5.761867e-01
5.750475e-01
5.742430e-01
0.000000e+00
1.000000e+00
5.739115e-01
5.748222e-01
5.758240e-01
5.768080e-01
5.777484e-01
5.785992e-01
5.792511e-01
5.795288e-01
5.793955e-01
5.789376e-01
5.780968e-01
5.770279e-01
5.759127e-01
5.748495e-01
5.740311e-01
0.000000e+00
1.000000e+00
5.738057e-01
5.746077e-01
5.754924e-01
5.763859e-01
5.772331e-01
5.779801e-01
5.785576e-01
5.788278e-01
5.787243e-01
5.783110e-01
5.775439e-01
5.765902e-01
5.755900e-01
5.746306e-01
5.739084e-01
0.000000e+00
1.000000e+00
5.736973e-01
5.743718e-01
5.751365e-01
5.759210e-01
5.766688e-01
5.773092e-01
5.777834e-01
5.780193e-01
5.779433e-01
5.776066e-01
5.769758e-01
5.761833e-01
5.753229e-01
5.744611e-01
5.736767e-01
0.000000e+00
1.000000e+00
5.733702e-01
5.733128e-01
5.735583e-01
5.737602e-01
5.739518e-01
5.741151e-01
5.742284e-01
5.742728e-01
5.742398e-01
5.741335e-01
5.739720e-01
5.737791e-01
5.735747e-01
5.734287e-01
5.724444e-01
0.000000e+00
1.000000e+00
5.734200e-01
5.735040e-01
5.738109e-01
5.741047e-01
5.743813e-01
5.746123e-01
5.747675e-01
5.748243e-01
5.747743e-01
5.746149e-01
5.743789e-01
5.741031e-01
5.738086e-01
5.735314e-01
5.732148e-01
0.000000e+00
1.000000e+00
5.734892e-01
5.736948e-01
5.741075e-01
5.745117e-01
5.748901e-01
5.752035e-01
5.754107e-01
5.754848e-01
5.754097e-01
5.751878e-01
5.748769e-01
5.745089e-01
5.741087e-01
5.737532e-01
5.730803e-01
0.000000e+00
1.000000e+00
5.735638e-01
5.738923e-01
5.744214e-01
5.749455e-01
5.754406e-01
5.758543e-01
5.761316e-01
5.762367e-01
5.761336e-01
5.758647e-01
5.754722e-01
5.749798e-01
5.744467e-01
5.739488e-01
5.732560e-01
0.000000e+00
1.000000e+00
5.736611e-01
5.741074e-01
5.747571e-01
5.754048e-01
5.760198e-01
5.765408e-01
5.768991e-01
5.770381e-01
5.769506e-01
5.766278e-01
5.761139e-01
5.754816e-01
5.748094e-01
5.741780e-01
5.733248e-01
0.000000e+00
1.000000e+00
5.737618e-01
5.743312e-01
5.751036e-01
5.758771e-01
5.766114e-01
5.772353e-01
5.776615e-01
5.778343e-01
5.777835e-01
5.774061e-01
5.767676e-01
5.759977e-01
5.751826e-01
5.744058e-01
5.734620e-01
0.000000e+00
1.000000e+00
5.738608e-01
5.745491e-01
5.754408e-01
5.763321e-01
5.771754e-01
5.778918e-01
5.783940e-01
5.786467e-01
5.785695e-01
5.781481e-01
5.774085e-01
5.764994e-01
5.755421e-01
5.746271e-01
5.735572e-01
0.000000e+00
1.000000e+00
5.739508e-01
5.747467e-01
5.757452e-01
5.767337e-01
5.776677e-01
5.784747e-01
5.790771e-01
5.793956e-01
5.792595e-01
5.787989e-01
5.779817e-01
5.769494e-01
5.758618e-01
5.748187e-01
5.736544e-01
0.000000e+00
1.000000e+00
5.740144e-01
5.749129e-01
5.759921e-01
5.770568e-01
5.780691e-01
5.789675e-01
5.796481e-01
5.799752e-01
5.798161e-01
5.793250e-01
5.784467e-01
5.773166e-01
5.761191e-01
5.749714e-01
5.737928e-01
0.000000e+00
1.000000e+00
5.740595e-01
5.750232e-01
5.761603e-01
5.772737e-01
5.783472e-01
5.793157e-01
5.800377e-01
5.803570e-01
5.801829e-01
5.796646e-01
5.787669e-01
5.775825e-01
5.763011e-01
5.750767e-01
5.739457e-01
0.000000e+00
1.000000e+00
5.740779e-01
5.750725e-01
5.762270e-01
5.773550e-01
5.784678e-01
5.794763e-01
5.802161e-01
5.805277e-01
5.803494e-01
5.798025e-01
5.788998e-01
5.777090e-01
5.763922e-01
5.751364e-01
5.740843e-01
0.000000e+00
1.000000e+00
5.740579e-01
5.750558e-01
5.761991e-01
5.773229e-01
5.784348e-01
5.794385e-01
5.801735e-01
5.804780e-01
5.803114e-01
5.797657e-01
5.788583e-01
5.776720e-01
5.763708e-01
5.751462e-01
5.741726e-01
0.000000e+00
1.000000e+00
5.740125e-01
5.749919e-01
5.760990e-01
5.771872e-01
5.782482e-01
5.792087e-01
5.799209e-01
5.802136e-01
5.800641e-01
5.795465e-01
5.786515e-01
5.774898e-01
5.762406e-01
5.750700e-01
5.742098e-01
0.000000e+00
1.000000e+00
5.739416e-01
5.748723e-01
5.759123e-01
5.769365e-01
5.779190e-01
5.788058e-01
5.794801e-01
5.797592e-01
5.796217e-01
5.791461e-01
5.782846e-01
5.771858e-01
5.760257e-01
5.749059e-01
5.741112e-01
0.000000e+00
1.000000e+00
5.738488e-01
5.747148e-01
5.756580e-01
5.765946e-01
5.774814e-01
5.782688e-01
5.788818e-01
5.791506e-01
5.790314e-01
5.785976e-01
5.777899e-01
5.767880e-01
5.757446e-01
5.747294e-01
5.737745e-01
0.000000e+00
1.000000e+00
5.737410e-01
5.744987e-01
5.753202e-01
5.761551e-01
5.769480e-01
5.776361e-01
5.781648e-01
5.784244e-01
5.783309e-01
5.779406e-01
5.772208e-01
5.763392e-01
5.754129e-01
5.745223e-01
5.736151e-01
0.000000e+00
1.000000e+00
5.736293e-01
5.742616e-01
5.749623e-01
5.756814e-01
5.763682e-01
5.769511e-01
5.773729e-01
5.775871e-01
5.775376e-01
5.772221e-01
5.766385e-01
5.759117e-01
5.751238e-01
5.743324e-01
5.735230e-01
0.000000e+00
1.000000e+00
5.733778e-01
5.732947e-01
5.735105e-01
5.736946e-01
5.738706e-01
5.740201e-01
5.741232e-01
5.741624e-01
5.741314e-01
5.740335e-01
5.738851e-01
5.737078e-01
5.735211e-01
5.734014e-01
5.725980e-01
0.000000e+00
1.000000e+00
5.733959e-01
5.734651e-01
5.737485e-01
5.740181e-01
5.742716e-01
5.744835e-01
5.746257e-01
5.746765e-01
5.746291e-01
5.744812e-01
5.742630e-01
5.740102e-01
5.737431e-01
5.734977e-01
5.732231e-01
0.000000e+00
1.000000e+00
5.734602e-01
5.736424e-01
5.740233e-01
5.743964e-01
5.747460e-01
5.750354e-01
5.752273e-01
5.752957e-01
5.752262e-01
5.750199e-01
5.747319e-01
5.743940e-01
5.740263e-01
5.737008e-01
5.730691e-01
0.000000e+00
1.000000e+00
5.735404e-01
5.738263e-01
5.743186e-01
5.748036e-01
5.752627e-01
5.756477e-01
5.759068e-01
5.760058e-01
5.759112e-01
5.756597e-01
5.752970e-01
5.748413e-01
5.743454e-01
5.738844e-01
5.732346e-01
0.000000e+00
1.000000e+00
5.736309e-01
5.740292e-01
5.746387e-01
5.752389e-01
5.758102e-01
5.762960e-01
5.766324e-01
5.767668e-01
5.766816e-01
5.763839e-01
5.759077e-01
5.753180e-01
5.746902e-01
5.741018e-01
5.732991e-01
0.000000e+00
1.000000e+00
5.737144e-01
5.742477e-01
5.749717e-01
5.756923e-01
5.763785e-01
5.769635e-01
5.773662e-01
5.775245e-01
5.774744e-01
5.771175e-01
5.765240e-01
5.758063e-01
5.750441e-01
5.743166e-01
5.734251e-01
0.000000e+00
1.000000e+00
5.738043e-01
5.744570e-01
5.752950e-01
5.761336e-01
5.769303e-01
5.776090e-01
5.780762e-01
5.782821e-01
5.782345e-01
5.778195e-01
5.771243e-01
5.762801e-01
5.753853e-01
5.745249e-01
5.735146e-01
0.000000e+00
1.000000e+00
5.738915e-01
5.746433e-01
5.755863e-01
5.765241e-01
5.774136e-01
5.781742e-01
5.787182e-01
5.789900e-01
5.788937e-01
5.784550e-01
5.776653e-01
5.767036e-01
5.756882e-01
5.747053e-01
5.736608e-01
0.000000e+00
1.000000e+00
5.739507e-01
5.747987e-01
5.758176e-01
5.768300e-01
5.777903e-01
5.786274e-01
5.792492e-01
5.795495e-01
5.794031e-01
5.789637e-01
5.781147e-01
5.770519e-01
5.759322e-01
5.748522e-01
5.738699e-01
0.000000e+00
1.000000e+00
5.739919e-01
5.749056e-01
5.759771e-01
5.770324e-01
5.780336e-01
5.789292e-01
5.796111e-01
5.799109e-01
5.797411e-01
5.792858e-01
5.784206e-01
5.772911e-01
5.760956e-01
5.749543e-01
5.740145e-01
0.000000e+00
1.000000e+00
5.740017e-01
5.749462e-01
5.760340e-01
5.770989e-01
5.781197e-01
5.790529e-01
5.797686e-01
5.800609e-01
5.798889e-01
5.794179e-01
5.785472e-01
5.773964e-01
5.761672e-01
5.750036e-01
5.741107e-01
0.000000e+00
1.000000e+00
5.739791e-01
5.749298e-01
5.760018e-01
5.770570e-01
5.780689e-01
5.789946e-01
5.797065e-01
5.799937e-01
5.798355e-01
5.793607e-01
5.784874e-01
5.773492e-01
5.761367e-01
5.749871e-01
5.741715e-01
0.000000e+00
1.000000e+00
5.739304e-01
5.748569e-01
5.758854e-01
5.769086e-01
5.778806e-01
5.787569e-01
5.794332e-01
5.797152e-01
5.795824e-01
5.791129e-01
5.782514e-01
5.771599e-01
5.760068e-01
5.748902e-01
5.740484e-01
0.000000e+00
1.000000e+00
5.738584e-01
5.747323e-01
5.756894e-01
5.766500e-01
5.775594e-01
5.783607e-01
5.789781e-01
5.792499e-01
5.791392e-01
5.786877e-01
5.778674e-01
5.768564e-01
5.757939e-01
5.747540e-01
5.737330e-01
0.000000e+00
1.000000e+00
5.737673e-01
5.745695e-01
5.754320e-01
5.763016e-01
5.771248e-01
5.778359e-01
5.783779e-01
5.786353e-01
5.785439e-01
5.781237e-01
5.773734e-01
5.764653e-01
5.755146e-01
5.746001e-01
5.734963e-01
0.000000e+00
1.000000e+00
5.736593e-01
5.743621e-01
5.751037e-01
5.758644e-01
5.765898e-01
5.772116e-01
5.776706e-01
5.779099e-01
5.778372e-01
5.774644e-01
5.768112e-01
5.760208e-01
5.751863e-01
5.743931e-01
5.735108e-01
0.000000e+00
1.000000e+00
5.735500e-01
5.741293e-01
5.747545e-01
5.753995e-01
5.760151e-01
5.765369e-01
5.768978e-01
5.770730e-01
5.770598e-01
5.767564e-01
5.762329e-01
5.755863e-01
5.748854e-01
5.741868e-01
5.733589e-01
0.000000e+00
1.000000e+00
5.733465e-01
5.732341e-01
5.733907e-01
5.735311e-01
5.736656e-01
5.737792e-01
5.738561e-01
5.738838e-01
5.738578e-01
5.737818e-01
5.736676e-01
5.735312e-01
5.733888e-01
5.733530e-01
5.726330e-01
0.000000e+00
1.000000e+00
5.733726e-01
5.733696e-01
5.736014e-01
5.738168e-01
5.740196e-01
5.741900e-01
5.743034e-01
5.743431e-01
5.743025e-01
5.741835e-01
5.740078e-01
5.738056e-01
5.735967e-01
5.734186e-01
5.731153e-01
0.000000e+00
1.000000e+00
5.734017e-01
5.735257e-01
5.738487e-01
5.741597e-01
5.744506e-01
5.746909e-01
5.748495e-01
5.749053e-01
5.748470e-01
5.746759e-01
5.744350e-01
5.741562e-01
5.738540e-01
5.735914e-01
5.730239e-01
0.000000e+00
1.000000e+00
5.734702e-01
5.736987e-01
5.741209e-01
5.745343e-01
5.749269e-01
5.752558e-01
5.754765e-01
5.755597e-01
5.754798e-01
5.752607e-01
5.749530e-01
5.745695e-01
5.741480e-01
5.737616e-01
5.731815e-01
0.000000e+00
1.000000e+00
5.735566e-01
5.738891e-01
5.744169e-01
5.749359e-01
5.754322e-01
5.758562e-01
5.761505e-01
5.762704e-01
5.761834e-01
5.759236e-01
5.755201e-01
5.750120e-01
5.744673e-01
5.739618e-01
5.732353e-01
0.000000e+00
1.000000e+00
5.736370e-01
5.740950e-01
5.747331e-01
5.753653e-01
5.759694e-01
5.764860e-01
5.768452e-01
5.769954e-01
5.769219e-01
5.766040e-01
5.760903e-01
5.754632e-01
5.747955e-01
5.741590e-01
5.733313e-01
0.000000e+00
1.000000e+00
5.737186e-01
5.742986e-01
5.750487e-01
5.757954e-01
5.765058e-01
5.771114e-01
5.775298e-01
5.776995e-01
5.776387e-01
5.772592e-01
5.766422e-01
5.759013e-01
5.751136e-01
5.743496e-01
5.734621e-01
0.000000e+00
1.000000e+00
5.737920e-01
5.744778e-01
5.753265e-01
5.761735e-01
5.769777e-01
5.776611e-01
5.781335e-01
5.783361e-01
5.782745e-01
5.778613e-01
5.771531e-01
5.763011e-01
5.754000e-01
5.745187e-01
5.736707e-01
0.000000e+00
1.000000e+00
5.738489e-01
5.746238e-01
5.755475e-01
5.764725e-01
5.773444e-01
5.780854e-01
5.786174e-01
5.788593e-01
5.787713e-01
5.783524e-01
5.775725e-01
5.766260e-01
5.756317e-01
5.746617e-01
5.738791e-01
0.000000e+00
1.000000e+00
5.738872e-01
5.747193e-01
5.756858e-01
5.766497e-01
5.775562e-01
5.783436e-01
5.789438e-01
5.792193e-01
5.790900e-01
5.786805e-01
5.778637e-01
5.768496e-01
5.757871e-01
5.747599e-01
5.739900e-01
0.000000e+00
1.000000e+00
5.738948e-01
5.747579e-01
5.757401e-01
5.767183e-01
5.776377e-01
5.784487e-01
5.790870e-01
5.793725e-01
5.792349e-01
5.788172e-01
5.779884e-01
5.769473e-01
5.758543e-01
5.748036e-01
5.740692e-01
0.000000e+00
1.000000e+00
5.738743e-01
5.747421e-01
5.757101e-01
5.766791e-01
5.775901e-01
5.783917e-01
5.790246e-01
5.793105e-01
5.791863e-01
5.787554e-01
5.779314e-01
5.769047e-01
5.758258e-01
5.747743e-01
5.739799e-01
0.000000e+00
1.000000e+00
5.738237e-01
5.746723e-01
5.755950e-01
5.765308e-01
5.774112e-01
5.781753e-01
5.787638e-01
5.790418e-01
5.789419e-01
5.784997e-01
5.777033e-01
5.767287e-01
5.757026e-01
5.746972e-01
5.736222e-01
0.000000e+00
1.000000e+00
5.737532e-01
5.745527e-01
5.754063e-01
5.762784e-01
5.771051e-01
5.778126e-01
5.783360e-01
5.785906e-01
5.785165e-01
5.780794e-01
5.773385e-01
5.764440e-01
5.755001e-01
5.745915e-01
5.734001e-01
0.000000e+00
1.000000e+00
5.736662e-01
5.743936e-01
5.751580e-01
5.759393e-01
5.766852e-01
5.773206e-01
5.777745e-01
5.779975e-01
5.779401e-01
5.775332e-01
5.768698e-01
5.760728e-01
5.752328e-01
5.744389e-01
5.734042e-01
0.000000e+00
1.000000e+00
5.735650e-01
5.741998e-01
5.748522e-01
5.755269e-01
5.761731e-01
5.767247e-01
5.771090e-01