<?xml version="1.0"?>
<VTKFile type="StructuredGrid" version="0.1">
  <StructuredGrid WholeExtent="0 16 0 16 0 16">
    <Piece Extent="0 16 0 16 0 16">
      <PointData Scalars="temperature" Vectors="velocity">
        <DataArray type="Float32" Name="temperature" format="ascii">
1.000000e+00
5.735518e-01
5.729260e-01
5.731305e-01
5.731709e-01
5.732079e-01
5.732389e-01
5.732600e-01
5.732680e-01
5.732608e-01
5.732387e-01
5.732083e-01
5.731705e-01
5.731311e-01
5.731489e-01
5.724548e-01
0.000000e+00
1.000000e+00
5.735095e-01
5.731079e-01
5.733803e-01
5.735167e-01
5.736443e-01
5.737506e-01
5.738207e-01
5.738439e-01
5.738202e-01
5.737506e-01
5.736430e-01
5.735137e-01
5.733828e-01
5.733282e-01
5.726265e-01
0.000000e+00
1.000000e+00
5.736247e-01
5.733384e-01
5.736722e-01
5.739148e-01
5.741463e-01
5.743392e-01
5.744665e-01
5.745093e-01
5.744592e-01
5.743283e-01
5.741512e-01
5.739339e-01
5.736921e-01
5.734635e-01
5.726776e-01
0.000000e+00
1.000000e+00
5.737374e-01
5.735558e-01
5.739798e-01
5.743333e-01
5.746752e-01
5.749648e-01
5.751636e-01
5.752397e-01
5.751646e-01
5.749938e-01
5.747365e-01
5.744072e-01
5.740389e-01
5.736943e-01
5.727793e-01
0.000000e+00
1.000000e+00
5.738253e-01
5.737363e-01
5.742927e-01
5.747667e-01
5.752244e-01
5.756176e-01
5.758918e-01
5.760135e-01
5.759835e-01
5.757914e-01
5.754291e-01
5.749525e-01
5.744277e-01
5.739343e-01
5.729054e-01
0.000000e+00
1.000000e+00
5.739584e-01
5.739018e-01
5.745921e-01
5.751675e-01
5.757245e-01
5.762061e-01
5.765497e-01
5.767244e-01
5.768624e-01
5.766824e-01
5.761924e-01
5.755529e-01
5.748528e-01
5.741912e-01
5.730161e-01
0.000000e+00
1.000000e+00
5.740727e-01
5.740974e-01
5.748803e-01
5.755356e-01
5.761734e-01
5.767400e-01
5.771918e-01
5.774932e-01
5.776321e-01
5.774856e-01
5.769385e-01
5.761436e-01
5.752671e-01
5.744785e-01
5.730856e-01
0.000000e+00
1.000000e+00
5.741891e-01
5.742970e-01
5.751543e-01
5.758769e-01
5.765829e-01
5.772445e-01
5.778342e-01
5.782574e-01
5.783637e-01
5.781918e-01
5.776298e-01
5.766989e-01
5.756480e-01
5.748136e-01
5.720234e-01
0.000000e+00
1.000000e+00
5.742927e-01
5.744662e-01
5.753883e-01
5.761641e-01
5.769321e-01
5.776913e-01
5.784034e-01
5.789350e-01
5.789878e-01
5.787998e-01
5.782167e-01
5.771964e-01
5.759984e-01
5.751189e-01
5.701817e-01
0.000000e+00
1.000000e+00
5.743864e-01
5.745714e-01
5.755567e-01
5.763798e-01
5.772082e-01
5.780538e-01
5.788508e-01
5.794032e-01
5.794715e-01
5.792565e-01
5.786641e-01
5.776001e-01
5.762932e-01
5.752036e-01
5.695825e-01
0.000000e+00
1.000000e+00
5.744206e-01
5.746415e-01
5.756497e-01
5.764977e-01
5.773692e-01
5.782910e-01
5.791498e-01
5.797128e-01
5.797843e-01
5.795360e-01
5.789346e-01
5.778698e-01
5.765181e-01
5.751302e-01
5.700108e-01
0.000000e+00
1.000000e+00
5.744429e-01
5.746610e-01
5.756825e-01
5.765458e-01
5.774465e-01
5.784108e-01
5.792965e-01
5.798594e-01
5.799316e-01
5.796596e-01
5.790362e-01
5.779732e-01
5.766263e-01
5.751505e-01
5.710963e-01
0.000000e+00
1.000000e+00
5.744580e-01
5.746349e-01
5.756771e-01
5.765337e-01
5.774358e-01
5.784012e-01
5.792885e-01
5.798409e-01
5.799085e-01
5.796351e-01
5.789951e-01
5.779220e-01
5.765857e-01
5.751408e-01
5.725980e-01
0.000000e+00
1.000000e+00
5.744129e-01
5.745869e-01
5.756296e-01
5.764698e-01
5.773465e-01
5.782675e-01
5.791292e-01
5.796635e-01
5.797216e-01
5.794620e-01
5.788081e-01
5.777275e-01
5.764303e-01
5.750687e-01
5.734683e-01
0.000000e+00
1.000000e+00
5.743309e-01
5.745046e-01
5.755256e-01
5.763508e-01
5.771943e-01
5.780406e-01
5.788334e-01
5.793359e-01
5.793802e-01
5.791414e-01
5.784718e-01
5.774121e-01
5.761957e-01
5.749498e-01
5.731876e-01
0.000000e+00
1.000000e+00
5.742197e-01
5.743981e-01
5.753505e-01
5.761513e-01
5.769614e-01
5.777378e-01
5.784260e-01
5.788760e-01
5.789266e-01
5.786818e-01
5.779892e-01
5.769872e-01
5.758735e-01
5.748327e-01
5.735171e-01
0.000000e+00
1.000000e+00
5.741011e-01
5.742821e-01
5.751310e-01
5.758852e-01
5.766450e-01
5.773482e-01
5.779272e-01
5.783058e-01
5.783892e-01
5.781113e-01
5.774388e-01
5.765399e-01
5.755622e-01
5.746220e-01
5.747811e-01
0.000000e+00
1.000000e+00
5.734824e-01
5.730913e-01
5.733379e-01
5.734554e-01
5.735671e-01
5.736621e-01
5.737270e-01
5.737506e-01
5.737272e-01
5.736579e-01
5.735567e-01
5.734472e-01
5.733360e-01
5.733098e-01
5.726030e-01
0.000000e+00
1.000000e+00
5.735441e-01
5.733226e-01
5.736041e-01
5.738236e-01
5.740277e-01
5.741935e-01
5.742995e-01
5.743309e-01
5.742815e-01
5.741619e-01
5.739968e-01
5.737952e-01
5.735915e-01
5.735588e-01
5.725881e-01
0.000000e+00
1.000000e+00
5.737030e-01
5.735274e-01
5.739039e-01
5.742340e-01
5.745436e-01
5.747972e-01
5.749615e-01
5.750126e-01
5.749331e-01
5.747653e-01
5.745306e-01
5.742333e-01
5.739114e-01
5.737223e-01
5.727031e-01
0.000000e+00
1.000000e+00
5.738146e-01
5.737235e-01
5.742193e-01
5.746607e-01
5.750824e-01
5.754402e-01
5.756861e-01
5.757841e-01
5.756771e-01
5.754920e-01
5.751716e-01
5.747412e-01
5.742714e-01
5.738980e-01
5.728200e-01
0.000000e+00
1.000000e+00
5.739061e-01
5.739186e-01
5.745339e-01
5.750863e-01
5.756172e-01
5.760770e-01
5.764047e-01
5.765581e-01
5.766065e-01
5.763369e-01
5.758687e-01
5.752805e-01
5.746482e-01
5.741068e-01
5.729492e-01
0.000000e+00
1.000000e+00
5.740402e-01
5.741003e-01
5.748414e-01
5.754997e-01
5.761304e-01
5.766783e-01
5.770739e-01
5.773146e-01
5.774845e-01
5.772127e-01
5.765997e-01
5.758357e-01
5.750325e-01
5.743268e-01
5.730566e-01
0.000000e+00
1.000000e+00
5.741724e-01
5.742795e-01
5.751363e-01
5.758756e-01
5.765759e-01
5.772056e-01
5.777419e-01
5.781547e-01
5.782076e-01
5.780335e-01
5.773424e-01
5.763863e-01
5.754008e-01
5.745463e-01
5.733280e-01
0.000000e+00
1.000000e+00
5.742774e-01
5.744529e-01
5.754042e-01
5.762005e-01
5.769562e-01
5.776944e-01
5.784005e-01
5.789389e-01
5.789005e-01
5.787104e-01
5.780285e-01
5.769082e-01
5.757332e-01
5.748377e-01
5.735158e-01
0.000000e+00
1.000000e+00
5.743501e-01
5.746094e-01
5.756216e-01
5.764629e-01
5.772877e-01
5.781483e-01
5.789693e-01
5.795316e-01
5.795226e-01
5.792473e-01
5.785721e-01
5.773709e-01
5.760113e-01
5.752360e-01
5.720241e-01
0.000000e+00
1.000000e+00
5.744231e-01
5.746907e-01
5.757670e-01
5.766558e-01
5.775659e-01
5.785179e-01
5.793822e-01
5.799513e-01
5.799972e-01
5.796555e-01
5.789294e-01
5.777235e-01
5.762304e-01
5.756384e-01
5.696999e-01
0.000000e+00
1.000000e+00
5.744544e-01
5.747207e-01
5.758522e-01
5.767941e-01
5.777610e-01
5.787517e-01
5.796259e-01
5.801987e-01
5.802721e-01
5.799013e-01
5.791190e-01
5.779122e-01
5.764025e-01
5.756288e-01
5.692896e-01
0.000000e+00
1.000000e+00
5.744213e-01
5.747202e-01
5.758588e-01
5.768255e-01
5.778164e-01
5.788223e-01
5.797009e-01
5.802721e-01
5.803559e-01
5.799834e-01
5.791794e-01
5.779485e-01
5.764591e-01
5.755873e-01
5.695333e-01
0.000000e+00
1.000000e+00
5.744191e-01
5.747267e-01
5.758285e-01
5.767823e-01
5.777533e-01
5.787450e-01
5.796142e-01
5.801697e-01
5.802620e-01
5.799147e-01
5.791067e-01
5.778528e-01
5.763743e-01
5.752963e-01
5.704793e-01
0.000000e+00
1.000000e+00
5.744040e-01
5.747102e-01
5.757713e-01
5.766802e-01
5.775961e-01
5.785315e-01
5.793688e-01
5.798985e-01
5.799911e-01
5.796716e-01
5.788597e-01
5.776132e-01
5.762069e-01
5.750935e-01
5.726931e-01
0.000000e+00
1.000000e+00
5.743421e-01
5.746457e-01
5.756471e-01
5.765096e-01
5.773656e-01
5.782128e-01
5.789782e-01
5.794722e-01
5.795599e-01
5.792568e-01
5.784496e-01
5.772615e-01
5.759852e-01
5.749008e-01
5.732848e-01
0.000000e+00
1.000000e+00
5.742243e-01
5.744972e-01
5.754053e-01
5.762357e-01
5.770501e-01
5.778126e-01
5.784704e-01
5.789113e-01
5.790017e-01
5.787025e-01
5.779264e-01
5.768508e-01
5.756957e-01
5.747030e-01
5.737960e-01
0.000000e+00
1.000000e+00
5.740869e-01
5.743198e-01
5.751420e-01
5.759069e-01
5.766580e-01
5.773371e-01
5.778750e-01
5.782210e-01
5.783336e-01
5.780404e-01
5.773716e-01
5.764834e-01
5.755148e-01
5.745496e-01
5.747619e-01
0.000000e+00
1.000000e+00
5.735506e-01
5.732306e-01
5.735038e-01
5.736865e-01
5.738616e-01
5.740091e-01
5.741093e-01
5.741456e-01
5.741111e-01
5.740140e-01
5.738611e-01
5.736932e-01
5.735196e-01
5.734059e-01
5.726873e-01
0.000000e+00
1.000000e+00
5.736548e-01
5.734624e-01
5.737815e-01
5.740625e-01
5.743282e-01
5.745477e-01
5.746925e-01
5.747404e-01
5.746776e-01
5.745271e-01
5.743123e-01
5.740460e-01
5.737736e-01
5.736314e-01
5.726911e-01
0.000000e+00
1.000000e+00
5.737596e-01
5.736550e-01
5.740868e-01
5.744792e-01
5.748489e-01
5.751565e-01
5.753641e-01
5.754384e-01
5.753439e-01
5.751568e-01
5.748714e-01
5.745040e-01
5.741089e-01
5.738211e-01
5.727865e-01
0.000000e+00
1.000000e+00
5.738685e-01
5.738393e-01
5.743965e-01
5.749045e-01
5.753887e-01
5.758031e-01
5.760972e-01
5.762297e-01
5.761279e-01
5.759204e-01
5.755319e-01
5.750243e-01
5.744779e-01
5.740221e-01
5.729152e-01
0.000000e+00
1.000000e+00
5.739866e-01
5.740333e-01
5.747152e-01
5.753357e-01
5.759324e-01
5.764491e-01
5.768176e-01
5.769933e-01
5.771104e-01
5.767796e-01
5.762367e-01
5.755700e-01
5.748654e-01
5.742469e-01
5.730330e-01
0.000000e+00
1.000000e+00
5.741065e-01
5.742380e-01
5.750375e-01
5.757661e-01
5.764607e-01
5.770613e-01
5.774935e-01
5.777608e-01
5.779316e-01
5.776751e-01
5.769819e-01
5.761283e-01
5.752556e-01
5.744763e-01
5.731794e-01
0.000000e+00
1.000000e+00
5.742469e-01
5.744304e-01
5.753539e-01
5.761662e-01
5.769199e-01
5.775887e-01
5.781816e-01
5.786700e-01
5.786315e-01
5.784736e-01
5.777371e-01
5.766803e-01
5.756251e-01
5.747036e-01
5.732692e-01
0.000000e+00
1.000000e+00
5.743574e-01
5.746122e-01
5.756443e-01
5.765075e-01
5.773080e-01
5.780946e-01
5.788662e-01
5.794079e-01
5.793087e-01
5.790939e-01
5.784107e-01
5.772068e-01
5.759534e-01
5.749719e-01
5.733656e-01
0.000000e+00
1.000000e+00
5.744226e-01
5.747722e-01
5.758660e-01
5.767657e-01
5.776500e-01
5.785757e-01
5.794359e-01
5.799766e-01
5.798979e-01
5.795488e-01
5.788862e-01
5.776662e-01
5.762342e-01
5.753322e-01
5.726189e-01
0.000000e+00
1.000000e+00
5.745050e-01
5.748299e-01
5.759982e-01
5.769655e-01
5.779558e-01
5.789527e-01
5.798153e-01
5.803600e-01
5.803561e-01
5.798918e-01
5.791156e-01
5.779612e-01
5.764817e-01
5.756808e-01
5.710794e-01
0.000000e+00
1.000000e+00
5.745267e-01
5.747959e-01
5.760920e-01
5.771379e-01
5.781637e-01
5.791582e-01
5.800055e-01
5.805529e-01
5.806158e-01
5.801384e-01
5.792191e-01
5.780144e-01
5.766230e-01
5.757152e-01
5.701008e-01
0.000000e+00
1.000000e+00
5.744720e-01
5.747781e-01
5.761172e-01
5.771657e-01
5.781856e-01
5.791727e-01
5.800152e-01
5.805546e-01
5.806232e-01
5.801671e-01
5.792447e-01
5.780057e-01
5.765997e-01
5.752734e-01
5.703130e-01
0.000000e+00
1.000000e+00
5.744462e-01
5.748284e-01
5.760307e-01
5.770335e-01
5.780268e-01
5.790053e-01
5.798444e-01
5.803691e-01
5.804208e-01
5.800059e-01
5.791649e-01
5.779356e-01
5.764906e-01
5.751961e-01
5.708962e-01
0.000000e+00
1.000000e+00
5.743862e-01
5.748235e-01
5.759234e-01
5.768620e-01
5.777740e-01
5.786896e-01
5.795024e-01
5.800076e-01
5.800535e-01
5.797054e-01
5.788974e-01
5.776474e-01
5.762598e-01
5.751977e-01
5.726817e-01
0.000000e+00
1.000000e+00
5.743166e-01
5.747155e-01
5.757266e-01
5.766033e-01
5.774402e-01
5.782574e-01
5.790024e-01
5.794886e-01
5.795433e-01
5.792358e-01
5.784183e-01
5.772242e-01
5.759892e-01
5.749777e-01
5.732481e-01
0.000000e+00
1.000000e+00
5.741852e-01
5.745011e-01
5.753932e-01
5.762158e-01
5.770093e-01
5.777422e-01
5.783811e-01
5.788320e-01
5.789197e-01
5.786195e-01
5.778352e-01
5.767721e-01
5.756716e-01
5.747173e-01
5.740599e-01
0.000000e+00
1.000000e+00
5.740600e-01
5.742664e-01
5.750711e-01
5.758163e-01
5.765444e-01
5.771930e-01
5.776982e-01
5.780410e-01
5.781666e-01
5.778979e-01
5.772571e-01
5.764034e-01
5.754711e-01
5.745226e-01
5.748071e-01
0.000000e+00
1.000000e+00
5.736126e-01
5.733422e-01
5.736262e-01
5.738570e-01
5.740754e-01
5.742576e-01
5.743814e-01
5.744275e-01
5.743870e-01
5.742752e-01
5.741087e-01
5.738930e-01
5.736615e-01
5.735039e-01
5.726991e-01
0.000000e+00
1.000000e+00
5.737145e-01
5.735413e-01
5.738985e-01
5.742226e-01
5.745316e-01
5.747915e-01
5.749704e-01
5.750377e-01
5.749693e-01
5.748083e-01
5.745618e-01
5.742444e-01
5.739123e-01
5.736989e-01
5.727272e-01
0.000000e+00
1.000000e+00
5.738096e-01
5.737280e-01
5.742061e-01
5.746387e-01
5.750503e-01
5.754002e-01
5.756465e-01
5.757490e-01
5.756509e-01
5.754640e-01
5.751392e-01
5.747136e-01
5.742548e-01
5.738910e-01
5.728384e-01
0.000000e+00
1.000000e+00
5.739226e-01
5.739064e-01
5.745139e-01
5.750627e-01
5.755887e-01
5.760429e-01
5.763707e-01
5.765285e-01
5.764909e-01
5.762456e-01
5.758030e-01
5.752383e-01
5.746276e-01
5.741008e-01
5.729507e-01
0.000000e+00
1.000000e+00
5.740439e-01
5.740996e-01
5.748322e-01
5.754928e-01
5.761321e-01
5.766876e-01
5.770811e-01
5.772796e-01
5.774277e-01
5.771102e-01
5.765142e-01
5.757898e-01
5.750191e-01
5.743268e-01
5.730767e-01
0.000000e+00
1.000000e+00
5.741455e-01
5.743181e-01
5.751562e-01
5.759239e-01
5.766578e-01
5.772942e-01
5.777648e-01
5.780894e-01
5.782479e-01
5.779930e-01
5.772702e-01
5.763548e-01
5.754116e-01
5.745559e-01
5.732118e-01
0.000000e+00
1.000000e+00
5.742857e-01
5.745093e-01
5.754721e-01
5.763238e-01
5.771172e-01
5.778253e-01
5.784670e-01
5.789787e-01
5.789339e-01
5.787574e-01
5.780241e-01
5.769129e-01
5.757821e-01
5.747677e-01
5.732874e-01
0.000000e+00
1.000000e+00
5.743951e-01
5.746843e-01
5.757567e-01
5.766602e-01
5.775050e-01
5.783366e-01
5.791491e-01
5.796920e-01
5.795987e-01
5.793390e-01
5.786623e-01
5.774382e-01
5.761118e-01
5.749740e-01
5.735667e-01
0.000000e+00
1.000000e+00
5.744634e-01
5.748244e-01
5.759667e-01
5.769104e-01
5.778474e-01
5.788175e-01
5.796981e-01
5.802336e-01
5.801645e-01
5.797658e-01
5.790727e-01
5.778741e-01
5.764003e-01
5.752177e-01
5.733008e-01
0.000000e+00
1.000000e+00
5.745246e-01
5.748585e-01
5.760813e-01
5.771032e-01
5.781464e-01
5.791772e-01
5.800472e-01
5.805815e-01
5.805838e-01
5.800929e-01
5.792590e-01
5.781007e-01
5.766439e-01
5.753702e-01
5.720308e-01
0.000000e+00
1.000000e+00
5.745233e-01
5.747950e-01
5.761437e-01
5.772482e-01
5.783251e-01
5.793459e-01
5.801957e-01
5.807269e-01
5.807815e-01
5.802910e-01
5.793298e-01
5.781020e-01
5.767253e-01
5.750601e-01
5.705703e-01
0.000000e+00
1.000000e+00
5.745065e-01
5.747579e-01
5.761268e-01
5.772218e-01
5.782888e-01
5.793003e-01
5.801446e-01
5.806663e-01
5.807088e-01
5.802262e-01
5.792886e-01
5.780769e-01
5.766883e-01
5.747949e-01
5.701062e-01
0.000000e+00
1.000000e+00
5.744624e-01
5.748243e-01
5.760279e-01
5.770347e-01
5.780570e-01
5.790579e-01
5.799026e-01
5.804087e-01
5.804058e-01
5.799651e-01
5.791614e-01
5.779848e-01
5.765300e-01
5.752764e-01
5.710888e-01
0.000000e+00
1.000000e+00
5.743589e-01
5.747971e-01
5.758918e-01
5.768218e-01
5.777349e-01
5.786583e-01
5.794802e-01
5.799717e-01
5.799529e-01
5.796057e-01
5.788512e-01
5.776288e-01
5.762414e-01
5.751557e-01
5.725602e-01
0.000000e+00
1.000000e+00
5.742743e-01
5.746637e-01
5.756616e-01
5.765266e-01
5.773492e-01
5.781512e-01
5.788943e-01
5.793769e-01
5.793826e-01
5.791005e-01
5.783171e-01
5.771476e-01
5.759337e-01
5.749430e-01
5.730343e-01
0.000000e+00
1.000000e+00
5.741722e-01
5.744239e-01
5.753090e-01
5.761018e-01
5.768683e-01
5.775715e-01
5.781917e-01
5.786403e-01
5.787113e-01
5.784327e-01
5.776763e-01
5.766548e-01
5.755920e-01
5.746781e-01
5.739632e-01
0.000000e+00
1.000000e+00
5.740404e-01
5.741686e-01
5.749672e-01
5.756661e-01
5.763521e-01
5.769584e-01
5.774367e-01
5.777896e-01
5.778941e-01
5.776512e-01
5.770531e-01
5.762468e-01
5.753593e-01
5.744489e-01
5.749294e-01
0.000000e+00
1.000000e+00
5.736543e-01
5.733995e-01
5.736941e-01
5.739474e-01
5.741880e-01
5.743893e-01
5.745272e-01
5.745804e-01
5.745351e-01
5.744162e-01
5.742375e-01
5.739969e-01
5.737348e-01
5.735589e-01
5.727223e-01
0.000000e+00
1.000000e+00
5.737451e-01
5.735745e-01
5.739559e-01
5.743018e-01
5.746313e-01
5.749120e-01
5.751103e-01
5.751906e-01
5.751200e-01
5.749597e-01
5.746972e-01
5.743494e-01
5.739853e-01
5.737373e-01
5.727848e-01
0.000000e+00
1.000000e+00
5.738421e-01
5.737534e-01
5.742604e-01
5.747104e-01
5.751407e-01
5.755101e-01
5.757776e-01
5.758988e-01
5.758002e-01
5.756187e-01
5.752726e-01
5.748147e-01
5.743244e-01
5.739248e-01
5.728825e-01
0.000000e+00
1.000000e+00
5.739369e-01
5.739335e-01
5.745641e-01
5.751302e-01
5.756737e-01
5.761447e-01
5.764868e-01
5.766568e-01
5.766629e-01
5.764003e-01
5.759319e-01
5.753373e-01
5.746963e-01
5.741360e-01
5.729749e-01
0.000000e+00
1.000000e+00
5.740685e-01
5.741241e-01
5.748787e-01
5.755546e-01
5.762098e-01
5.767812e-01
5.771870e-01
5.773979e-01
5.775667e-01
5.772628e-01
5.766447e-01
5.758900e-01
5.750876e-01
5.743621e-01
5.730861e-01
0.000000e+00
1.000000e+00
5.741765e-01
5.743345e-01
5.751978e-01
5.759758e-01
5.767223e-01
5.773738e-01
5.778664e-01
5.782420e-01
5.783437e-01
5.781250e-01
5.773989e-01
5.764552e-01
5.754781e-01
5.745878e-01
5.732053e-01
0.000000e+00
1.000000e+00
5.742944e-01
5.745315e-01
5.755048e-01
5.763672e-01
5.771765e-01
5.779052e-01
5.785629e-01
5.790816e-01
5.790463e-01
5.788593e-01
5.781317e-01
5.770066e-01
5.758450e-01
5.747957e-01
5.733175e-01
0.000000e+00
1.000000e+00
5.744024e-01
5.747041e-01
5.757803e-01
5.766979e-01
5.775636e-01
5.784081e-01
5.792216e-01
5.797669e-01
5.797074e-01
5.794234e-01
5.787329e-01
5.775105e-01
5.761682e-01
5.749754e-01
5.734447e-01
0.000000e+00
1.000000e+00
5.744794e-01
5.748331e-01
5.759883e-01
5.769465e-01
5.778938e-01
5.788620e-01
5.797434e-01
5.802784e-01
5.802514e-01
5.798593e-01
5.791274e-01
5.779074e-01
5.764365e-01
5.751489e-01
5.735671e-01
0.000000e+00
1.000000e+00
5.745271e-01
5.748853e-01
5.761020e-01
5.771125e-01
5.781443e-01
5.791808e-01
5.800677e-01
5.805935e-01
5.805940e-01
5.801465e-01
5.793301e-01
5.781388e-01
5.766522e-01
5.752624e-01
5.730482e-01
0.000000e+00
1.000000e+00
5.745027e-01
5.748550e-01
5.761150e-01
5.771715e-01
5.782459e-01
5.792979e-01
5.801771e-01
5.806984e-01
5.807033e-01
5.802218e-01
5.793487e-01
5.781662e-01
5.767235e-01
5.750232e-01
5.717258e-01
0.000000e+00
1.000000e+00
5.744970e-01
5.748460e-01
5.760881e-01
5.771240e-01
5.781760e-01
5.792085e-01
5.800765e-01
5.805883e-01
5.805837e-01
5.801174e-01
5.792879e-01
5.781172e-01
5.766620e-01
5.750725e-01
5.710440e-01
0.000000e+00
1.000000e+00
5.744454e-01
5.748210e-01
5.759888e-01
5.769545e-01
5.779332e-01
5.789203e-01
5.797770e-01
5.802735e-01
5.802364e-01
5.798385e-01
5.790992e-01
5.779048e-01
5.764420e-01
5.752416e-01
5.718121e-01
0.000000e+00
1.000000e+00
5.743206e-01
5.747448e-01
5.758149e-01
5.767250e-01
5.775993e-01
5.784797e-01
5.792912e-01
5.797748e-01
5.797280e-01
5.794292e-01
5.787022e-01
5.774871e-01
5.761432e-01
5.750998e-01
5.725126e-01
0.000000e+00
1.000000e+00
5.742102e-01
5.745989e-01
5.755485e-01
5.763945e-01
5.771890e-01
5.779447e-01
5.786490e-01
5.791189e-01
5.791076e-01
5.788614e-01
5.780969e-01
5.769724e-01
5.758153e-01
5.748863e-01
5.729584e-01
0.000000e+00
1.000000e+00
5.741179e-01
5.743502e-01
5.751862e-01
5.759443e-01
5.766739e-01
5.773340e-01
5.779030e-01
5.783228e-01
5.783899e-01
5.781314e-01
5.774079e-01
5.764503e-01
5.754534e-01
5.745768e-01
5.739386e-01
0.000000e+00
1.000000e+00
5.739876e-01
5.740715e-01
5.748267e-01
5.754750e-01
5.761100e-01
5.766670e-01
5.771060e-01
5.774413e-01
5.775241e-01
5.773130e-01
5.767616e-01
5.760123e-01
5.751893e-01
5.743402e-01
5.740591e-01
0.000000e+00
1.000000e+00
5.736389e-01
5.733869e-01
5.736873e-01
5.739338e-01
5.741735e-01
5.743785e-01
5.745224e-01
5.745818e-01
5.745413e-01
5.744247e-01
5.742457e-01
5.740055e-01
5.737420e-01
5.735541e-01
5.727216e-01
0.000000e+00
1.000000e+00
5.736974e-01
5.735756e-01
5.739436e-01
5.742814e-01
5.746053e-01
5.748842e-01
5.750843e-01
5.751692e-01
5.751013e-01
5.749418e-01
5.746786e-01
5.743339e-01
5.739758e-01
5.737298e-01
5.727760e-01
0.000000e+00
1.000000e+00
5.738078e-01
5.737551e-01
5.742470e-01
5.746904e-01
5.751125e-01
5.754756e-01
5.757398e-01
5.758590e-01
5.757594e-01
5.755811e-01
5.752447e-01
5.747923e-01
5.743061e-01
5.739123e-01
5.728719e-01
0.000000e+00
1.000000e+00
5.739250e-01
5.739202e-01
5.745422e-01
5.750993e-01
5.756324e-01
5.760940e-01
5.764318e-01
5.766074e-01
5.765793e-01
5.763506e-01
5.758926e-01
5.753054e-01
5.746718e-01
5.741177e-01
5.729706e-01
0.000000e+00
1.000000e+00
5.740514e-01
5.741009e-01
5.748437e-01
5.755070e-01
5.761491e-01
5.767108e-01
5.771105e-01
5.773068e-01
5.775162e-01
5.771927e-01
5.765868e-01
5.758464e-01
5.750551e-01
5.743383e-01
5.730885e-01
0.000000e+00
1.000000e+00
5.741488e-01
5.743086e-01
5.751524e-01
5.759168e-01
5.766520e-01
5.772987e-01
5.777784e-01
5.780731e-01
5.782810e-01
5.780348e-01
5.773145e-01
5.763978e-01
5.754380e-01
5.745605e-01
5.731891e-01
0.000000e+00
1.000000e+00
5.742521e-01
5.745066e-01
5.754476e-01
5.762973e-01
5.771023e-01
5.778250e-01
5.784491e-01
5.789490e-01
5.789407e-01
5.787537e-01
5.780140e-01
5.769264e-01
5.757950e-01
5.747643e-01
5.732946e-01
0.000000e+00
1.000000e+00
5.743642e-01
5.746710e-01
5.757118e-01
5.766208e-01
5.774841e-01
5.783045e-01
5.790729e-01
5.796080e-01
5.795868e-01
5.793250e-01
5.785964e-01
5.773932e-01
5.761011e-01
5.749353e-01
5.733979e-01
0.000000e+00
1.000000e+00
5.744418e-01
5.747981e-01
5.759206e-01
5.768689e-01
5.777858e-01
5.787049e-01
5.795640e-01
5.800968e-01
5.800805e-01
5.797561e-01
5.790263e-01
5.777776e-01
5.763482e-01
5.750725e-01
5.735117e-01
0.000000e+00
1.000000e+00
5.744607e-01
5.748775e-01
5.760269e-01
5.769878e-01
5.779523e-01
5.789525e-01
5.798604e-01
5.803888e-01
5.803431e-01
5.799582e-01
5.792389e-01
5.780322e-01
5.765273e-01
5.751945e-01
5.735876e-01
0.000000e+00
1.000000e+00
5.744526e-01
5.748814e-01
5.760365e-01
5.770135e-01
5.780048e-01
5.790311e-01
5.799421e-01
5.804630e-01
5.804088e-01
5.799888e-01
5.792598e-01
5.780855e-01
5.765852e-01
5.752116e-01
5.725896e-01
0.000000e+00
1.000000e+00
5.744380e-01
5.748576e-01
5.760023e-01
5.769628e-01
5.779297e-01
5.789193e-01
5.798038e-01
5.803131e-01
5.802752e-01
5.798889e-01
5.791610e-01
5.779561e-01
5.764776e-01
5.752416e-01
5.719357e-01
0.000000e+00
1.000000e+00
5.743830e-01
5.747787e-01
5.758766e-01
5.768049e-01
5.777116e-01
5.786217e-01
5.794580e-01
5.799538e-01
5.799148e-01
5.795947e-01
5.788736e-01
5.776500e-01
5.762536e-01
5.751640e-01
5.723210e-01
0.000000e+00
1.000000e+00
5.742598e-01
5.746574e-01
5.756696e-01
5.765555e-01
5.773881e-01
5.781839e-01
5.789305e-01
5.794104e-01
5.793772e-01
5.791328e-01
5.783905e-01
5.772150e-01
5.759707e-01
5.750117e-01
5.724300e-01
0.000000e+00
1.000000e+00
5.741303e-01
5.744973e-01
5.753835e-01
5.761988e-01
5.769635e-01
5.776560e-01
5.782706e-01
5.787109e-01
5.787236e-01
5.784967e-01
5.777382e-01
5.766990e-01
5.756364e-01
5.747903e-01
5.728126e-01
0.000000e+00
1.000000e+00
5.740094e-01
5.742687e-01
5.750248e-01
5.757395e-01
5.764276e-01
5.770372e-01
5.775286e-01
5.779012e-01
5.779613e-01
5.777128e-01
5.770291e-01
5.761657e-01
5.752624e-01
5.744481e-01
5.736876e-01
0.000000e+00
1.000000e+00
5.739135e-01
5.739869e-01
5.746629e-01
5.752615e-01
5.758462e-01
5.763527e-01
5.767296e-01
5.769807e-01
5.770781e-01
5.768854e-01
5.763749e-01
5.757011e-01
5.749647e-01
5.742176e-01
5.733038e-01
0.000000e+00
1.000000e+00
5.736069e-01
5.733271e-01
5.736103e-01
5.738286e-01
5.740429e-01
5.742277e-01
5.743593e-01
5.744147e-01
5.743811e-01
5.742738e-01
5.741099e-01
5.738982e-01
5.736641e-01
5.734945e-01
5.727710e-01
0.000000e+00
1.000000e+00
5.736602e-01
5.735295e-01
5.738643e-01
5.741667e-01
5.744603e-01
5.747130e-01
5.748917e-01
5.749643e-01
5.749022e-01
5.747454e-01
5.745072e-01
5.741996e-01
5.738808e-01
5.736868e-01
5.727745e-01
0.000000e+00
1.000000e+00
5.737648e-01
5.737031e-01
5.741557e-01
5.745646e-01
5.749524e-01
5.752837e-01
5.755197e-01
5.756154e-01
5.755185e-01
5.753422e-01
5.750479e-01
5.746441e-01
5.741999e-01
5.738526e-01
5.728498e-01
0.000000e+00
1.000000e+00
5.738774e-01
5.738509e-01
5.744317e-01
5.749490e-01
5.754441e-01
5.758732e-01
5.761894e-01
5.763427e-01
5.762658e-01
5.760761e-01
5.756724e-01
5.751329e-01
5.745469e-01
5.740435e-01
5.729260e-01
0.000000e+00
1.000000e+00
5.739695e-01
5.740335e-01
5.747195e-01
5.753403e-01
5.759406e-01
5.764677e-01
5.768524e-01
5.770414e-01
5.771841e-01
5.768743e-01
5.763266e-01
5.756457e-01
5.749125e-01
5.742543e-01
5.730433e-01
0.000000e+00
1.000000e+00
5.740658e-01
5.742355e-01
5.750185e-01
5.757411e-01
5.764386e-01
5.770540e-01
5.775007e-01
5.777284e-01
5.779870e-01
5.776752e-01
5.770030e-01
5.761682e-01
5.752800e-01
5.744703e-01
5.731522e-01
0.000000e+00
1.000000e+00
5.741826e-01
5.744165e-01
5.753044e-01
5.761168e-01
5.768955e-01
5.775879e-01
5.781327e-01
5.785220e-01
5.786188e-01
5.783922e-01
5.776558e-01
5.766637e-01
5.756215e-01
5.746696e-01
5.732341e-01
0.000000e+00
1.000000e+00
5.742757e-01
5.745770e-01
5.755527e-01
5.764317e-01
5.772673e-01
5.780285e-01
5.786984e-01
5.791982e-01
5.792082e-01
5.789950e-01
5.782364e-01
5.771031e-01
5.759136e-01
5.748360e-01
5.733400e-01
0.000000e+00
1.000000e+00
5.743441e-01
5.747085e-01
5.757554e-01
5.766660e-01
5.775225e-01
5.783451e-01
5.791362e-01
5.796745e-01
5.796371e-01
5.794040e-01
5.786923e-01
5.774634e-01
5.761352e-01
5.749535e-01
5.734215e-01
0.000000e+00
1.000000e+00
5.743673e-01
5.747805e-01
5.758578e-01
5.767734e-01
5.776464e-01
5.785312e-01
5.794068e-01
5.799525e-01
5.798690e-01
5.795931e-01
5.789475e-01
5.777035e-01
5.762758e-01
5.750248e-01
5.736085e-01
0.000000e+00
1.000000e+00
5.743731e-01
5.747857e-01
5.758755e-01
5.767933e-01
5.776756e-01
5.785806e-01
5.794700e-01
5.800081e-01
5.799220e-01
5.796240e-01
5.789761e-01
5.777431e-01
5.763029e-01
5.750791e-01
5.733747e-01
0.000000e+00
1.000000e+00
5.743537e-01
5.747480e-01
5.758184e-01
5.767302e-01
5.776026e-01
5.784708e-01
5.793107e-01
5.798336e-01
5.797870e-01
5.795102e-01
5.788098e-01
5.775775e-01
5.762005e-01
5.750853e-01
5.728648e-01
0.000000e+00
1.000000e+00
5.742860e-01
5.746556e-01
5.756695e-01
5.765605e-01
5.774069e-01
5.782077e-01
5.789547e-01
5.794490e-01
5.794373e-01
5.791898e-01
5.784431e-01
5.772606e-01
5.760039e-01
5.749899e-01
5.729021e-01
0.000000e+00
1.000000e+00
5.741805e-01
5.745220e-01
5.754528e-01
5.762938e-01
5.770913e-01
5.778092e-01
5.784357e-01
5.788800e-01
5.789038e-01
5.786755e-01
5.779144e-01
5.768435e-01
5.757337e-01
5.748446e-01
5.727289e-01
0.000000e+00
1.000000e+00
5.740440e-01
5.743633e-01
5.751752e-01
5.759375e-01
5.766665e-01
5.773062e-01
5.778075e-01
5.781493e-01
5.782522e-01
5.779847e-01
5.772627e-01
5.763477e-01
5.754008e-01
5.746371e-01
5.728097e-01
0.000000e+00
1.000000e+00
5.739165e-01
5.741519e-01
5.748376e-01
5.754934e-01
5.761304e-01
5.766896e-01
5.771020e-01
5.773745e-01
5.774662e-01
5.771776e-01
5.765691e-01
5.758202e-01
5.750248e-01
5.743235e-01
5.732538e-01
0.000000e+00
1.000000e+00
5.738273e-01
5.738957e-01
5.744865e-01
5.750273e-01
5.755516e-01
5.760051e-01
5.763256e-01
5.764929e-01
5.765631e-01
5.763774e-01
5.759219e-01
5.753381e-01
5.747007e-01
5.740775e-01
5.730515e-01
0.000000e+00
1.000000e+00
5.735498e-01
5.731925e-01
5.734748e-01
5.736454e-01
5.738104e-01
5.739499e-01
5.740459e-01
5.740824e-01
5.740509e-01
5.739588e-01
5.738214e-01
5.736616e-01
5.734916e-01
5.733610e-01
5.728059e-01
0.000000e+00
1.000000e+00
5.735981e-01
5.734440e-01
5.737122e-01
5.739624e-01
5.742021e-01
5.744000e-01
5.745313e-01
5.745764e-01
5.745210e-01
5.743834e-01
5.741953e-01
5.739635e-01
5.737161e-01
5.736130e-01
5.726206e-01
0.000000e+00
1.000000e+00
5.736865e-01
5.735978e-01
5.739728e-01
5.743191e-01
5.746475e-01
5.749207e-01
5.751050e-01
5.751699e-01
5.750874e-01
5.749181e-01
5.746792e-01
5.743629e-01
5.740037e-01
5.737572e-01
5.727363e-01
0.000000e+00
1.000000e+00
5.737702e-01
5.737441e-01
5.742347e-01
5.746839e-01
5.751148e-01
5.754832e-01
5.757442e-01
5.758498e-01
5.757486e-01
5.755763e-01
5.752609e-01
5.748167e-01
5.743219e-01
5.739223e-01
5.728235e-01
0.000000e+00
1.000000e+00
5.738605e-01
5.739143e-01
5.745126e-01
5.750632e-01
5.755953e-01
5.760611e-01
5.764050e-01
5.765667e-01
5.765341e-01
5.763133e-01
5.758749e-01
5.752921e-01
5.746600e-01
5.741122e-01
5.729427e-01
0.000000e+00
1.000000e+00
5.739700e-01
5.740887e-01
5.748000e-01
5.754467e-01
5.760720e-01
5.766242e-01
5.770388e-01
5.772641e-01
5.773399e-01
5.770646e-01
5.764918e-01
5.757755e-01
5.750045e-01
5.743140e-01
5.730425e-01
0.000000e+00
1.000000e+00
5.740646e-01
5.742676e-01
5.750727e-01
5.758061e-01
5.765160e-01
5.771447e-01
5.776142e-01
5.779067e-01
5.780491e-01
5.777561e-01
5.770838e-01
5.762341e-01
5.753271e-01
5.745026e-01
5.731330e-01
0.000000e+00
1.000000e+00
5.741644e-01
5.744342e-01
5.753184e-01
5.761287e-01
5.769013e-01
5.775775e-01
5.781057e-01
5.784885e-01
5.786012e-01
5.783887e-01
5.776461e-01
5.766501e-01
5.756089e-01
5.746696e-01
5.732410e-01
0.000000e+00
1.000000e+00
5.742272e-01
5.745360e-01
5.754907e-01
5.763355e-01
5.771273e-01
5.778352e-01
5.784725e-01
5.789862e-01
5.789683e-01
5.788334e-01
5.780948e-01
5.769746e-01
5.758160e-01
5.747782e-01
5.732949e-01
0.000000e+00
1.000000e+00
5.742652e-01
5.745958e-01
5.755888e-01
5.764507e-01
5.772537e-01
5.779923e-01
5.787144e-01
5.792719e-01
5.791941e-01
5.790592e-01
5.783637e-01
5.771774e-01
5.759395e-01
5.748345e-01
5.733652e-01
0.000000e+00
1.000000e+00
5.742821e-01
5.745967e-01
5.756048e-01
5.764738e-01
5.772838e-01
5.780343e-01
5.787735e-01
5.793269e-01
5.792561e-01
5.790914e-01
5.783986e-01
5.772100e-01
5.759607e-01
5.748604e-01
5.733810e-01
0.000000e+00
1.000000e+00
5.742266e-01
5.745742e-01
5.755372e-01
5.763993e-01
5.772082e-01
5.779449e-01
5.786325e-01
5.791529e-01
5.791372e-01
5.789422e-01
5.782074e-01
5.770660e-01
5.758752e-01
5.748454e-01
5.732016e-01
0.000000e+00
1.000000e+00
5.741499e-01
5.744972e-01
5.753919e-01
5.762211e-01
5.770114e-01
5.777177e-01
5.783171e-01
5.787624e-01
5.788195e-01
5.785875e-01
5.778319e-01
5.767865e-01
5.756982e-01
5.747666e-01
5.730692e-01
0.000000e+00
1.000000e+00
5.740710e-01
5.743599e-01
5.751855e-01
5.759536e-01
5.766970e-01
5.773554e-01
5.778599e-01
5.781816e-01
5.783153e-01
5.780413e-01
5.773197e-01
5.764014e-01
5.754388e-01
5.746321e-01
5.729318e-01
0.000000e+00
1.000000e+00
5.739535e-01
5.741969e-01
5.749267e-01
5.756108e-01
5.762769e-01
5.768647e-01
5.772901e-01
5.775388e-01
5.776598e-01
5.773398e-01
5.767087e-01
5.759346e-01
5.751164e-01
5.744417e-01
5.729284e-01
0.000000e+00
1.000000e+00
5.738459e-01
5.739999e-01
5.746183e-01
5.751972e-01
5.757610e-01
5.762562e-01
5.766184e-01