<?xml version="1.0"?>
<VTKFile type="StructuredGrid" version="0.1">
  <StructuredGrid WholeExtent="0 16 0 16 0 16">
    <Piece Extent="0 16 0 16 0 16">
      <PointData Scalars="temperature" Vectors="velocity">
        <DataArray type="Float32" Name="temperature" format="ascii">
1.000000e+00
5.732183e-01
5.730060e-01
5.730183e-01
5.730204e-01
5.730222e-01
5.730235e-01
5.730245e-01
5.730246e-01
5.730242e-01
5.730227e-01
5.730208e-01
5.730169e-01
5.730111e-01
5.730611e-01
5.722624e-01
0.000000e+00
1.000000e+00
5.730783e-01
5.730067e-01
5.730304e-01
5.730340e-01
5.730355e-01
5.730364e-01
5.730374e-01
5.730379e-01
5.730370e-01
5.730346e-01
5.730313e-01
5.730283e-01
5.730256e-01
5.730077e-01
5.727702e-01
0.000000e+00
1.000000e+00
5.730758e-01
5.730479e-01
5.730697e-01
5.730830e-01
5.730975e-01
5.731091e-01
5.731167e-01
5.731183e-01
5.731136e-01
5.731033e-01
5.730910e-01
5.730810e-01
5.730658e-01
5.730339e-01
5.733338e-01
0.000000e+00
1.000000e+00
5.730733e-01
5.731002e-01
5.731410e-01
5.731805e-01
5.732249e-01
5.732616e-01
5.732854e-01
5.732926e-01
5.732824e-01
5.732587e-01
5.732249e-01
5.731839e-01
5.731395e-01
5.731043e-01
5.729118e-01
0.000000e+00
1.000000e+00
5.730933e-01
5.731703e-01
5.732637e-01
5.733562e-01
5.734440e-01
5.735150e-01
5.735613e-01
5.735755e-01
5.735578e-01
5.735119e-01
5.734444e-01
5.733569e-01
5.732630e-01
5.732166e-01
5.725883e-01
0.000000e+00
1.000000e+00
5.731507e-01
5.732756e-01
5.734297e-01
5.735767e-01
5.737167e-01
5.738362e-01
5.739167e-01
5.739453e-01
5.739219e-01
5.738495e-01
5.737345e-01
5.735890e-01
5.734326e-01
5.733534e-01
5.725122e-01
0.000000e+00
1.000000e+00
5.732308e-01
5.733987e-01
5.736175e-01
5.738334e-01
5.740412e-01
5.742206e-01
5.743459e-01
5.743947e-01
5.743611e-01
5.742567e-01
5.740882e-01
5.738760e-01
5.736441e-01
5.734893e-01
5.726234e-01
0.000000e+00
1.000000e+00
5.733059e-01
5.735355e-01
5.738356e-01
5.741337e-01
5.744215e-01
5.746676e-01
5.748413e-01
5.749132e-01
5.748722e-01
5.747357e-01
5.745066e-01
5.742109e-01
5.738903e-01
5.736742e-01
5.726250e-01
0.000000e+00
1.000000e+00
5.733927e-01
5.736836e-01
5.740708e-01
5.744572e-01
5.748290e-01
5.751497e-01
5.753807e-01
5.754840e-01
5.754409e-01
5.752721e-01
5.749743e-01
5.745827e-01
5.741600e-01
5.739014e-01
5.725193e-01
0.000000e+00
1.000000e+00
5.734816e-01
5.738258e-01
5.742962e-01
5.747660e-01
5.752174e-01
5.756120e-01
5.759040e-01
5.760502e-01
5.760485e-01
5.758540e-01
5.754776e-01
5.749815e-01
5.744441e-01
5.741220e-01
5.720059e-01
0.000000e+00
1.000000e+00
5.735693e-01
5.739585e-01
5.745045e-01
5.750460e-01
5.755692e-01
5.760283e-01
5.763604e-01
5.765468e-01
5.766430e-01
5.764445e-01
5.759750e-01
5.753693e-01
5.747144e-01
5.742983e-01
5.717767e-01
0.000000e+00
1.000000e+00
5.736437e-01
5.740902e-01
5.746988e-01
5.753069e-01
5.758959e-01
5.764105e-01
5.767917e-01
5.770432e-01
5.771641e-01
5.769784e-01
5.764339e-01
5.757285e-01
5.749690e-01
5.744366e-01
5.720122e-01
0.000000e+00
1.000000e+00
5.737113e-01
5.742099e-01
5.748748e-01
5.755454e-01
5.761932e-01
5.767592e-01
5.771932e-01
5.774909e-01
5.775971e-01
5.774206e-01
5.768278e-01
5.760475e-01
5.752070e-01
5.745338e-01
5.723025e-01
0.000000e+00
1.000000e+00
5.737639e-01
5.743092e-01
5.750217e-01
5.757500e-01
5.764540e-01
5.770747e-01
5.775522e-01
5.778658e-01
5.779710e-01
5.777612e-01
5.771269e-01
5.762950e-01
5.753939e-01
5.745955e-01
5.727740e-01
0.000000e+00
1.000000e+00
5.738045e-01
5.743863e-01
5.751365e-01
5.759108e-01
5.766614e-01
5.773291e-01
5.778386e-01
5.781470e-01
5.782465e-01
5.780027e-01
5.773314e-01
5.764568e-01
5.755133e-01
5.746496e-01
5.731858e-01
0.000000e+00
1.000000e+00
5.738393e-01
5.744405e-01
5.752239e-01
5.760228e-01
5.768034e-01
5.775054e-01
5.780396e-01
5.783505e-01
5.784458e-01
5.781439e-01
5.774431e-01
5.765354e-01
5.755568e-01
5.746701e-01
5.733299e-01
0.000000e+00
1.000000e+00
5.738161e-01
5.744473e-01
5.752378e-01
5.760335e-01
5.768273e-01
5.775549e-01
5.781179e-01
5.784632e-01
5.785268e-01
5.782250e-01
5.775207e-01
5.766050e-01
5.756126e-01
5.747029e-01
5.728958e-01
0.000000e+00
1.000000e+00
5.730898e-01
5.729981e-01
5.729897e-01
5.729792e-01
5.729688e-01
5.729603e-01
5.729544e-01
5.729523e-01
5.729539e-01
5.729596e-01
5.729676e-01
5.729780e-01
5.729908e-01
5.733200e-01
5.714256e-01
0.000000e+00
1.000000e+00
5.729765e-01
5.730262e-01
5.730377e-01
5.730412e-01
5.730411e-01
5.730406e-01
5.730405e-01
5.730396e-01
5.730369e-01
5.730353e-01
5.730323e-01
5.730314e-01
5.730286e-01
5.730651e-01
5.722298e-01
0.000000e+00
1.000000e+00
5.730361e-01
5.730751e-01
5.730959e-01
5.731271e-01
5.731606e-01
5.731869e-01
5.732037e-01
5.732083e-01
5.732005e-01
5.731824e-01
5.731584e-01
5.731396e-01
5.731127e-01
5.730870e-01
5.731136e-01
0.000000e+00
1.000000e+00
5.730881e-01
5.731525e-01
5.732262e-01
5.733078e-01
5.733820e-01
5.734429e-01
5.734822e-01
5.734931e-01
5.734747e-01
5.734346e-01
5.733806e-01
5.733045e-01
5.732271e-01
5.731677e-01
5.732994e-01
0.000000e+00
1.000000e+00
5.731313e-01
5.732597e-01
5.733982e-01
5.735386e-01
5.736699e-01
5.737777e-01
5.738477e-01
5.738697e-01
5.738410e-01
5.737728e-01
5.736745e-01
5.735414e-01
5.733961e-01
5.733090e-01
5.731586e-01
0.000000e+00
1.000000e+00
5.732083e-01
5.733967e-01
5.736062e-01
5.738176e-01
5.740205e-01
5.741913e-01
5.743069e-01
5.743472e-01
5.743099e-01
5.742139e-01
5.740550e-01
5.738433e-01
5.736170e-01
5.734799e-01
5.729890e-01
0.000000e+00
1.000000e+00
5.732910e-01
5.735440e-01
5.738376e-01
5.741335e-01
5.744177e-01
5.746637e-01
5.748385e-01
5.749081e-01
5.748656e-01
5.747384e-01
5.745023e-01
5.741966e-01
5.738752e-01
5.736617e-01
5.730578e-01
0.000000e+00
1.000000e+00
5.733883e-01
5.737046e-01
5.740909e-01
5.744815e-01
5.748573e-01
5.751849e-01
5.754230e-01
5.755321e-01
5.754910e-01
5.753195e-01
5.749983e-01
5.745919e-01
5.741626e-01
5.739195e-01
5.729156e-01
0.000000e+00
1.000000e+00
5.734933e-01
5.738745e-01
5.743549e-01
5.748420e-01
5.753118e-01
5.757243e-01
5.760300e-01
5.761938e-01
5.761791e-01
5.759405e-01
5.755330e-01
5.750147e-01
5.744623e-01
5.742314e-01
5.723955e-01
0.000000e+00
1.000000e+00
5.735891e-01
5.740402e-01
5.746054e-01
5.751799e-01
5.757373e-01
5.762303e-01
5.765986e-01
5.768217e-01
5.768732e-01
5.765803e-01
5.760742e-01
5.754349e-01
5.747545e-01
5.745068e-01
5.715605e-01
0.000000e+00
1.000000e+00
5.736801e-01
5.741915e-01
5.748339e-01
5.754872e-01
5.761205e-01
5.766805e-01
5.770958e-01
5.773675e-01
5.774947e-01
5.772072e-01
5.765938e-01
5.758306e-01
5.750292e-01
5.746543e-01
5.714089e-01
0.000000e+00
1.000000e+00
5.737634e-01
5.743258e-01
5.750368e-01
5.757543e-01
5.764461e-01
5.770598e-01
5.775437e-01
5.779183e-01
5.780074e-01
5.777620e-01
5.770685e-01
5.761902e-01
5.752819e-01
5.747434e-01
5.715187e-01
0.000000e+00
1.000000e+00
5.738296e-01
5.744409e-01
5.752083e-01
5.759828e-01
5.767229e-01
5.773873e-01
5.779416e-01
5.783590e-01
5.784334e-01
5.782028e-01
5.774656e-01
5.764921e-01
5.754888e-01
5.747890e-01
5.719070e-01
0.000000e+00
1.000000e+00
5.738795e-01
5.745335e-01
5.753438e-01
5.761637e-01
5.769458e-01
5.776525e-01
5.782568e-01
5.786992e-01
5.787646e-01
5.785221e-01
5.777549e-01
5.767130e-01
5.756399e-01
5.748172e-01
5.724981e-01
0.000000e+00
1.000000e+00
5.739258e-01
5.745996e-01
5.754456e-01
5.762957e-01
5.771101e-01
5.778500e-01
5.784763e-01
5.789284e-01
5.789897e-01
5.787234e-01
5.779295e-01
5.768435e-01
5.757279e-01
5.748365e-01
5.729685e-01
0.000000e+00
1.000000e+00
5.739574e-01
5.746287e-01
5.754981e-01
5.763688e-01
5.772101e-01
5.779746e-01
5.786061e-01
5.790434e-01
5.791167e-01
5.788336e-01
5.780365e-01
5.769397e-01
5.757728e-01
5.748176e-01
5.731329e-01
0.000000e+00
1.000000e+00
5.739402e-01
5.745915e-01
5.754453e-01
5.762886e-01
5.771294e-01
5.779212e-01
5.785876e-01
5.790442e-01
5.790656e-01
5.788133e-01
5.780892e-01
5.770707e-01
5.759474e-01
5.748623e-01
5.733921e-01
0.000000e+00
1.000000e+00
5.730307e-01
5.729554e-01
5.729134e-01
5.728766e-01
5.728415e-01
5.728122e-01
5.727932e-01
5.727875e-01
5.727950e-01
5.728144e-01
5.728446e-01
5.728800e-01
5.729173e-01
5.731167e-01
5.723599e-01
0.000000e+00
1.000000e+00
5.729023e-01
5.730164e-01
5.730093e-01
5.729994e-01
5.729868e-01
5.729750e-01
5.729661e-01
5.729600e-01
5.729574e-01
5.729610e-01
5.729689e-01
5.729793e-01
5.729906e-01
5.730564e-01
5.723493e-01
0.000000e+00
1.000000e+00
5.730180e-01
5.730744e-01
5.730948e-01
5.731312e-01
5.731663e-01
5.731952e-01
5.732145e-01
5.732216e-01
5.732145e-01
5.731960e-01
5.731693e-01
5.731420e-01
5.731107e-01
5.731559e-01
5.725160e-01
0.000000e+00
1.000000e+00
5.731039e-01
5.731835e-01
5.732841e-01
5.733830e-01
5.734729e-01
5.735466e-01
5.735934e-01
5.736064e-01
5.735830e-01
5.735312e-01
5.734654e-01
5.733804e-01
5.732792e-01
5.732810e-01
5.728621e-01
0.000000e+00
1.000000e+00
5.731635e-01
5.733266e-01
5.734958e-01
5.736706e-01
5.738363e-01
5.739730e-01
5.740638e-01
5.740943e-01
5.740603e-01
5.739777e-01
5.738556e-01
5.736893e-01
5.735057e-01
5.734433e-01
5.728205e-01
0.000000e+00
1.000000e+00
5.732536e-01
5.734922e-01
5.737497e-01
5.740122e-01
5.742650e-01
5.744810e-01
5.746313e-01
5.746867e-01
5.746412e-01
5.745272e-01
5.743292e-01
5.740625e-01
5.737801e-01
5.736396e-01
5.726959e-01
0.000000e+00
1.000000e+00
5.733501e-01
5.736636e-01
5.740235e-01
5.743910e-01
5.747427e-01
5.750490e-01
5.752714e-01
5.753633e-01
5.753128e-01
5.751661e-01
5.748738e-01
5.744929e-01
5.740912e-01
5.738909e-01
5.726093e-01
0.000000e+00
1.000000e+00
5.734634e-01
5.738516e-01
5.743150e-01
5.747881e-01
5.752438e-01
5.756445e-01
5.759442e-01
5.760961e-01
5.760741e-01
5.758611e-01
5.754635e-01
5.749619e-01
5.744285e-01
5.742198e-01
5.721481e-01
0.000000e+00
1.000000e+00
5.735763e-01
5.740439e-01
5.746091e-01
5.751857e-01
5.757446e-01
5.762402e-01
5.766062e-01
5.768244e-01
5.768668e-01
5.765723e-01
5.760689e-01
5.754400e-01
5.747699e-01
5.745341e-01
5.715932e-01
0.000000e+00
1.000000e+00
5.736796e-01
5.742348e-01
5.748933e-01
5.755676e-01
5.762217e-01
5.767995e-01
5.772146e-01
5.774809e-01
5.776036e-01
5.772921e-01
5.766729e-01
5.759026e-01
5.750938e-01
5.747620e-01
5.712245e-01
0.000000e+00
1.000000e+00
5.737776e-01
5.744049e-01
5.751516e-01
5.759067e-01
5.766286e-01
5.772642e-01
5.777557e-01
5.781113e-01
5.782427e-01
5.779661e-01
5.772479e-01
5.763336e-01
5.753921e-01
5.748745e-01
5.710365e-01
0.000000e+00
1.000000e+00
5.738672e-01
5.745536e-01
5.753774e-01
5.761876e-01
5.769532e-01
5.776420e-01
5.782445e-01
5.787016e-01
5.787329e-01
5.785120e-01
5.777550e-01
5.767099e-01
5.756465e-01
5.749146e-01
5.715333e-01
0.000000e+00
1.000000e+00
5.739381e-01
5.746759e-01
5.755596e-01
5.764094e-01
5.772077e-01
5.779552e-01
5.786486e-01
5.791450e-01
5.791272e-01
5.789048e-01
5.781500e-01
5.770089e-01
5.758425e-01
5.749429e-01
5.722328e-01
0.000000e+00
1.000000e+00
5.739805e-01
5.747668e-01
5.756879e-01
5.765679e-01
5.773958e-01
5.781884e-01
5.789279e-01
5.794404e-01
5.794223e-01
5.791683e-01
5.784061e-01
5.772106e-01
5.759780e-01
5.749775e-01
5.727840e-01
0.000000e+00
1.000000e+00
5.740064e-01
5.748236e-01
5.757625e-01
5.766598e-01
5.775065e-01
5.783233e-01
5.790715e-01
5.795895e-01
5.796123e-01
5.793248e-01
5.785353e-01
5.773135e-01
5.760476e-01
5.750029e-01
5.731437e-01
0.000000e+00
1.000000e+00
5.740250e-01
5.748054e-01
5.757367e-01
5.766358e-01
5.775065e-01
5.783446e-01
5.790939e-01
5.796089e-01
5.796790e-01
5.793921e-01
5.785958e-01
5.773744e-01
5.760700e-01
5.749804e-01
5.732896e-01
0.000000e+00
1.000000e+00
5.740052e-01
5.747107e-01
5.756111e-01
5.764842e-01
5.773567e-01
5.782113e-01
5.789841e-01
5.795203e-01
5.795331e-01
5.792747e-01
5.785819e-01
5.774907e-01
5.762559e-01
5.750354e-01
5.734514e-01
0.000000e+00
1.000000e+00
5.729768e-01
5.728853e-01
5.728019e-01
5.727237e-01
5.726491e-01
5.725867e-01
5.725452e-01
5.725314e-01
5.725461e-01
5.725880e-01
5.726494e-01
5.727231e-01
5.728016e-01
5.729750e-01
5.724925e-01
0.000000e+00
1.000000e+00
5.728579e-01
5.729699e-01
5.729299e-01
5.728925e-01
5.728540e-01
5.728206e-01
5.727967e-01
5.727838e-01
5.727869e-01
5.728073e-01
5.728370e-01
5.728729e-01
5.729095e-01
5.730178e-01
5.722454e-01
0.000000e+00
1.000000e+00
5.729671e-01
5.730571e-01
5.730612e-01
5.730799e-01
5.731025e-01
5.731215e-01
5.731350e-01
5.731402e-01
5.731381e-01
5.731283e-01
5.731138e-01
5.730991e-01
5.730832e-01
5.731630e-01
5.724186e-01
0.000000e+00
1.000000e+00
5.731159e-01
5.731903e-01
5.732961e-01
5.733946e-01
5.734877e-01
5.735652e-01
5.736158e-01
5.736316e-01
5.736102e-01
5.735570e-01
5.734852e-01
5.733962e-01
5.732888e-01
5.733200e-01
5.727396e-01
0.000000e+00
1.000000e+00
5.731790e-01
5.733667e-01
5.735531e-01
5.737446e-01
5.739310e-01
5.740878e-01
5.741938e-01
5.742310e-01
5.741935e-01
5.741001e-01
5.739601e-01
5.737724e-01
5.735676e-01
5.735200e-01
5.727010e-01
0.000000e+00
1.000000e+00
5.732863e-01
5.735571e-01
5.738536e-01
5.741566e-01
5.744473e-01
5.746971e-01
5.748729e-01
5.749393e-01
5.748836e-01
5.747573e-01
5.745312e-01
5.742238e-01
5.738974e-01
5.737738e-01
5.724513e-01
0.000000e+00
1.000000e+00
5.734024e-01
5.737597e-01
5.741694e-01
5.745921e-01
5.749982e-01
5.753536e-01
5.756166e-01
5.757347e-01
5.756808e-01
5.755188e-01
5.751804e-01
5.747379e-01
5.742657e-01
5.740767e-01
5.721087e-01
0.000000e+00
1.000000e+00
5.735292e-01
5.739729e-01
5.744981e-01
5.750372e-01
5.755591e-01
5.760215e-01
5.763695e-01
5.765595e-01
5.765772e-01
5.763241e-01
5.758602e-01
5.752779e-01
5.746511e-01
5.744025e-01
5.716476e-01
0.000000e+00
1.000000e+00
5.736520e-01
5.741882e-01
5.748261e-01
5.754779e-01
5.761122e-01
5.766769e-01
5.770905e-01
5.773423e-01
5.774589e-01
5.771422e-01
5.765494e-01
5.758141e-01
5.750264e-01
5.746953e-01
5.709404e-01
0.000000e+00
1.000000e+00
5.737636e-01
5.743963e-01
5.751356e-01
5.758886e-01
5.766162e-01
5.772627e-01
5.777501e-01
5.780793e-01
5.782173e-01
5.779393e-01
5.772299e-01
5.763266e-01
5.753795e-01
5.748715e-01
5.706514e-01
0.000000e+00
1.000000e+00
5.738672e-01
5.745799e-01
5.754154e-01
5.762473e-01
5.770352e-01
5.777421e-01
5.783484e-01
5.788049e-01
5.788481e-01
5.786148e-01
5.778580e-01
5.767972e-01
5.757008e-01
5.749339e-01
5.711341e-01
0.000000e+00
1.000000e+00
5.739572e-01
5.747358e-01
5.756522e-01
5.765321e-01
5.773591e-01
5.781395e-01
5.788737e-01
5.793827e-01
5.793572e-01
5.791117e-01
5.783791e-01
5.772028e-01
5.759613e-01
5.749913e-01
5.716821e-01
0.000000e+00
1.000000e+00
5.740211e-01
5.748534e-01
5.758251e-01
5.767322e-01
5.775961e-01
5.784585e-01
5.792719e-01
5.797924e-01
5.797389e-01
5.794412e-01
5.787393e-01
5.775141e-01
5.761549e-01
5.750444e-01
5.723224e-01
0.000000e+00
1.000000e+00
5.740548e-01
5.749225e-01
5.759241e-01
5.768535e-01
5.777533e-01
5.786664e-01
5.795031e-01
5.800327e-01
5.799896e-01
5.796475e-01
5.789353e-01
5.776988e-01
5.762757e-01
5.750906e-01
5.728797e-01
0.000000e+00
1.000000e+00
5.740693e-01
5.749535e-01
5.759608e-01
5.769028e-01
5.778145e-01
5.787346e-01
5.795656e-01
5.801071e-01
5.801269e-01
5.797635e-01
5.790022e-01
5.777503e-01
5.763099e-01
5.751121e-01
5.732487e-01
0.000000e+00
1.000000e+00
5.740686e-01
5.748996e-01
5.758690e-01
5.767919e-01
5.777125e-01
5.786436e-01
5.794815e-01
5.800352e-01
5.801149e-01
5.797831e-01
5.790040e-01
5.777491e-01
5.762934e-01
5.750769e-01
5.733303e-01
0.000000e+00
1.000000e+00
5.740591e-01
5.747948e-01
5.757239e-01
5.766053e-01
5.775089e-01
5.784326e-01
5.792866e-01
5.798559e-01
5.798874e-01
5.795925e-01
5.789212e-01
5.778128e-01
5.764804e-01
5.751386e-01
5.734962e-01
0.000000e+00
1.000000e+00
5.729345e-01
5.727870e-01
5.726488e-01
5.725137e-01
5.723854e-01
5.722777e-01
5.722064e-01
5.721810e-01
5.722054e-01
5.722760e-01
5.723828e-01
5.725116e-01
5.726471e-01
5.728543e-01
5.725447e-01
0.000000e+00
1.000000e+00
5.728158e-01
5.728906e-01
5.728018e-01
5.727207e-01
5.726422e-01
5.725756e-01
5.725293e-01
5.725090e-01
5.725236e-01
5.725665e-01
5.726305e-01
5.727084e-01
5.727904e-01
5.729357e-01
5.723045e-01
0.000000e+00
1.000000e+00
5.728856e-01
5.730147e-01
5.730075e-01
5.729950e-01
5.729844e-01
5.729749e-01
5.729669e-01
5.729631e-01
5.729662e-01
5.729716e-01
5.729787e-01
5.729883e-01
5.729988e-01
5.730780e-01
5.723660e-01
0.000000e+00
1.000000e+00
5.731129e-01
5.731575e-01
5.732522e-01
5.733396e-01
5.734230e-01
5.734935e-01
5.735401e-01
5.735553e-01
5.735359e-01
5.734853e-01
5.734162e-01
5.733381e-01
5.732530e-01
5.732636e-01
5.728025e-01
0.000000e+00
1.000000e+00
5.731841e-01
5.733771e-01
5.735792e-01
5.737817e-01
5.739717e-01
5.741271e-01
5.742282e-01
5.742588e-01
5.742109e-01
5.741052e-01
5.739624e-01
5.737797e-01
5.735788e-01
5.735323e-01
5.727799e-01
0.000000e+00
1.000000e+00
5.732991e-01
5.735920e-01
5.739131e-01
5.742429e-01
5.745589e-01
5.748262e-01
5.750125e-01
5.750808e-01
5.750137e-01
5.748762e-01
5.746389e-01
5.743117e-01
5.739624e-01
5.738499e-01
5.724136e-01
0.000000e+00
1.000000e+00
5.734328e-01
5.738274e-01
5.742733e-01
5.747328e-01
5.751771e-01
5.755661e-01
5.758549e-01
5.759902e-01
5.759241e-01
5.757490e-01
5.753802e-01
5.748979e-01
5.743824e-01
5.741829e-01
5.720444e-01
0.000000e+00
1.000000e+00
5.735711e-01
5.740668e-01
5.746430e-01
5.752347e-01
5.758077e-01
5.763125e-01
5.766856e-01
5.768924e-01
5.769602e-01
5.766771e-01
5.761550e-01
5.755068e-01
5.748118e-01
5.744998e-01
5.715625e-01
0.000000e+00
1.000000e+00
5.737033e-01
5.743050e-01
5.750008e-01
5.757109e-01
5.764000e-01
5.770075e-01
5.774500e-01
5.777441e-01
5.778918e-01
5.776108e-01
5.769412e-01
5.761070e-01
5.752292e-01
5.747420e-01
5.709277e-01
0.000000e+00
1.000000e+00
5.738219e-01
5.745281e-01
5.753294e-01
5.761365e-01
5.769113e-01
5.776025e-01
5.781725e-01
5.785820e-01
5.786711e-01
5.784494e-01
5.776994e-01
5.766727e-01
5.756166e-01
5.748633e-01
5.712348e-01
0.000000e+00
1.000000e+00
5.739294e-01
5.747245e-01
5.756210e-01
5.765016e-01
5.773365e-01
5.781166e-01
5.788364e-01
5.793315e-01
5.793226e-01
5.790943e-01
5.783566e-01
5.771841e-01
5.759527e-01
5.749403e-01
5.719038e-01
0.000000e+00
1.000000e+00
5.740162e-01
5.748778e-01
5.758472e-01
5.767689e-01
5.776610e-01
5.785483e-01
5.793772e-01
5.798943e-01
5.798576e-01
5.795475e-01
5.788408e-01
5.776139e-01
5.762264e-01
5.750236e-01
5.723763e-01
0.000000e+00
1.000000e+00
5.740710e-01
5.749819e-01
5.759911e-01
5.769433e-01
5.779006e-01
5.788762e-01
5.797446e-01
5.802684e-01
5.802320e-01
5.798309e-01
5.791181e-01
5.779233e-01
5.764360e-01
5.750955e-01
5.729441e-01
0.000000e+00
1.000000e+00
5.741027e-01
5.750221e-01
5.760513e-01
5.770344e-01
5.780437e-01
5.790513e-01
5.799173e-01
5.804538e-01
5.804436e-01
5.799867e-01
5.792253e-01
5.780653e-01
5.765551e-01
5.751601e-01
5.733049e-01
0.000000e+00
1.000000e+00
5.741142e-01
5.750234e-01
5.760634e-01
5.770585e-01
5.780595e-01
5.790503e-01
5.799065e-01
5.804589e-01
5.805045e-01
5.800663e-01
5.792441e-01
5.780516e-01
5.765544e-01
5.751857e-01
5.734005e-01
0.000000e+00
1.000000e+00
5.740959e-01
5.749411e-01
5.759256e-01
5.768774e-01
5.778624e-01
5.788592e-01
5.797329e-01
5.803044e-01
5.803933e-01
5.800227e-01
5.792149e-01
5.779902e-01
5.764846e-01
5.751396e-01
5.733613e-01
0.000000e+00
1.000000e+00
5.740926e-01
5.748479e-01
5.757856e-01
5.766658e-01
5.775971e-01
5.785720e-01
5.794601e-01
5.800391e-01
5.800822e-01
5.797609e-01
5.790901e-01
5.780078e-01
5.766455e-01
5.751974e-01
5.735261e-01
0.000000e+00
1.000000e+00
5.728777e-01
5.726638e-01
5.724567e-01
5.722502e-01
5.720542e-01
5.718900e-01
5.717799e-01
5.717402e-01
5.717769e-01
5.718865e-01
5.720512e-01
5.722475e-01
5.724542e-01
5.727282e-01
5.724234e-01
0.000000e+00
1.000000e+00
5.727902e-01
5.727895e-01
5.726360e-01
5.724950e-01
5.723610e-01
5.722485e-01
5.721701e-01
5.721413e-01
5.721667e-01
5.722401e-01
5.723520e-01
5.724866e-01
5.726283e-01
5.728293e-01
5.722953e-01
0.000000e+00
1.000000e+00
5.728166e-01
5.729386e-01
5.728912e-01
5.728356e-01
5.727804e-01
5.727315e-01
5.726941e-01
5.726814e-01
5.726926e-01
5.727214e-01
5.727644e-01
5.728159e-01
5.728680e-01
5.729881e-01
5.722673e-01
0.000000e+00
1.000000e+00
5.730583e-01
5.731019e-01
5.731585e-01
5.732173e-01
5.732734e-01
5.733214e-01
5.733532e-01
5.733658e-01
5.733553e-01
5.733229e-01
5.732769e-01
5.732250e-01
5.731749e-01
5.732136e-01
5.726972e-01
0.000000e+00
1.000000e+00
5.731869e-01
5.733474e-01
5.735388e-01
5.737299e-01
5.739068e-01
5.740517e-01
5.741460e-01
5.741747e-01
5.741316e-01
5.740286e-01
5.738894e-01
5.737207e-01
5.735389e-01
5.735243e-01
5.727680e-01
0.000000e+00
1.000000e+00
5.732861e-01
5.735967e-01
5.739205e-01
5.742544e-01
5.745755e-01
5.748446e-01
5.750289e-01
5.750930e-01
5.750144e-01
5.748589e-01
5.746229e-01
5.743085e-01
5.739661e-01
5.738872e-01
5.723341e-01
0.000000e+00
1.000000e+00
5.734334e-01
5.738672e-01
5.743359e-01
5.748185e-01
5.752834e-01
5.756860e-01
5.759765e-01
5.761070e-01
5.760086e-01
5.758308e-01
5.754601e-01
5.749642e-01
5.744301e-01
5.742072e-01
5.719194e-01
0.000000e+00
1.000000e+00
5.735772e-01
5.741270e-01
5.747342e-01
5.753605e-01
5.759624e-01
5.764864e-01
5.768655e-01
5.770610e-01
5.772102e-01
5.768942e-01
5.763326e-01
5.756421e-01
5.749046e-01
5.744962e-01
5.714772e-01
0.000000e+00
1.000000e+00
5.737174e-01
5.743820e-01
5.751128e-01
5.758597e-01
5.765753e-01
5.771980e-01
5.776577e-01
5.779451e-01
5.781703e-01
5.779235e-01
5.772066e-01
5.763006e-01
5.753628e-01
5.747011e-01
5.713193e-01
0.000000e+00
1.000000e+00
5.738450e-01
5.746209e-01
5.754626e-01
5.763011e-01
5.770929e-01
5.778052e-01
5.784483e-01
5.789319e-01
5.789305e-01
5.787657e-01
5.780314e-01
5.769172e-01
5.757741e-01
5.748377e-01
5.718600e-01
0.000000e+00
1.000000e+00
5.739554e-01
5.748253e-01
5.757598e-01
5.766611e-01
5.775166e-01
5.783555e-01
5.791653e-01
5.796801e-01
5.796228e-01
5.793766e-01
5.786953e-01
5.774699e-01
5.761256e-01
5.749592e-01
5.725420e-01
0.000000e+00
1.000000e+00
5.740408e-01
5.749746e-01
5.759722e-01
5.769182e-01
5.778626e-01
5.788297e-01
5.797075e-01
5.802219e-01
5.801710e-01
5.798078e-01
5.791136e-01
5.779081e-01
5.764275e-01
5.750764e-01
5.729956e-01
0.000000e+00
1.000000e+00
5.740969e-01
5.750540e-01
5.760882e-01
5.770918e-01
5.781275e-01
5.791575e-01
5.800327e-01
5.805552e-01
5.805447e-01
5.800867e-01
5.792949e-01
5.781392e-01
5.766557e-01
5.751734e-01
5.734050e-01
0.000000e+00
1.000000e+00
5.741268e-01
5.750620e-01
5.761370e-01
5.771945e-01
5.782685e-01
5.792925e-01
5.801490e-01
5.806872e-01
5.807327e-01
5.802318e-01
5.793280e-01
5.781678e-01
5.767578e-01
5.752466e-01
5.735125e-01
0.000000e+00
1.000000e+00
5.741284e-01
5.750549e-01
5.761472e-01
5.771848e-01
5.782223e-01
5.792211e-01
5.800730e-01
5.806289e-01
5.807071e-01
5.802412e-01
5.793160e-01
5.781076e-01
5.766966e-01
5.752580e-01
5.734621e-01
0.000000e+00
1.000000e+00
5.740937e-01
5.749452e-01
5.759438e-01
5.769124e-01
5.779284e-01
5.789447e-01
5.798245e-01
5.804024e-01
5.804902e-01
5.800982e-01
5.792675e-01
5.780493e-01
5.765837e-01
5.751810e-01
5.733580e-01
0.000000e+00
1.000000e+00
5.740896e-01
5.748515e-01
5.757846e-01
5.766623e-01
5.776023e-01
5.785914e-01
5.794828e-01
5.800612e-01
5.801130e-01
5.797839e-01
5.791069e-01
5.780391e-01
5.767068e-01
5.752129e-01
5.734807e-01
0.000000e+00
1.000000e+00
5.728203e-01
5.725181e-01
5.722320e-01
5.719418e-01
5.716664e-01
5.714354e-01
5.712803e-01
5.712239e-01
5.712767e-01
5.714318e-01
5.716628e-01
5.719380e-01
5.722281e-01
5.725832e-01
5.723492e-01
0.000000e+00
1.000000e+00
5.727780e-01
5.726601e-01
5.724375e-01
5.722229e-01
5.720194e-01
5.718481e-01
5.717308e-01
5.716896e-01
5.717270e-01
5.718403e-01
5.720111e-01
5.722152e-01
5.724302e-01
5.726991e-01
5.723521e-01
0.000000e+00
1.000000e+00
5.727546e-01
5.728314e-01
5.727167e-01
5.726016e-01
5.724906e-01
5.723945e-01
5.723265e-01
5.723054e-01
5.723267e-01
5.723870e-01
5.724779e-01
5.725873e-01
5.727025e-01
5.728748e-01
5.722903e-01
0.000000e+00
1.000000e+00
5.729521e-01
5.730325e-01
5.730459e-01
5.730518e-01
5.730586e-01
5.730644e-01
5.730690e-01
5.730724e-01
5.730709e-01
5.730649e-01
5.730568e-01
5.730501e-01
5.730477e-01
5.731066e-01
5.725763e-01
0.000000e+00
1.000000e+00
5.731741e-01
5.732822e-01
5.734397e-01
5.735944e-01
5.737421e-01
5.738661e-01
5.739494e-01
5.739765e-01
5.739415e-01
5.738484e-01
5.737218e-01
5.735877e-01
5.734436e-01
5.734271e-01
5.727720e-01
0.000000e+00
1.000000e+00
5.732701e-01
5.735778e-01
5.738992e-01
5.742247e-01
5.745280e-01
5.747695e-01
5.749233e-01
5.749657e-01
5.748754e-01
5.747031e-01
5.744909e-01
5.742228e-01
5.739073e-01
5.738254e-01
5.724245e-01
0.000000e+00
1.000000e+00
5.734324e-01
5.738635e-01
5.743362e-01
5.748241e-01
5.752917e-01
5.756879e-01
5.759625e-01
5.760734e-01
5.759419e-01
5.757715e-01
5.754317e-01
5.749487e-01
5.744159e-01
5.741013e-01
5.722286e-01
0.000000e+00
1.000000e+00
5.735836e-01
5.741369e-01
5.747492e-01
5.753787e-01
5.759824e-01
5.765068e-01
5.768921e-01
5.770936e-01
5.772399e-01
5.769456e-01
5.763761e-01
5.756759e-01
5.749290e-01
5.743821e-01
5.721271e-01
0.000000e+00
1.000000e+00
5.737287e-01
5.744040e-01
5.751508e-01
5.759071e-01
5.766252e-01
5.772442e-01
5.777066e-01
5.780135e-01
5.782670e-01
5.780281e-01
5.773038e-01
5.763688e-01
5.754082e-01
5.746084e-01
5.722202e-01
0.000000e+00
1.000000e+00
5.738526e-01
5.746570e-01
5.755173e-01
5.763634e-01
5.771555e-01
5.778748e-01
5.785549e-01
5.790856e-01
5.790140e-01
5.788745e-01
5.781700e-01
5.770214e-01
5.758374e-01
5.747880e-01
5.727058e-01
0.000000e+00
1.000000e+00
5.739569e-01
5.748665e-01
5.758139e-01
5.767156e-01
5.775792e-01
5.784484e-01
5.793025e-01
5.798337e-01
5.797329e-01
5.794644e-01
5.788312e-01
5.776054e-01
5.762071e-01
5.749709e-01
5.731871e-01
0.000000e+00
1.000000e+00
5.740376e-01
5.750060e-01
5.760075e-01
5.769549e-01
5.779259e-01
5.789313e-01
5.798331e-01
5.803506e-01
5.802811e-01
5.798786e-01
5.791883e-01
5.780211e-01
5.765280e-01
5.751225e-01
5.733362e-01
0.000000e+00
1.000000e+00
5.740897e-01
5.750726e-01
5.761116e-01
5.771290e-01
5.781959e-01
5.792446e-01
5.801228e-01
5.806423e-01
5.806395e-01
5.801654e-01
5.793293e-01
5.781616e-01
5.767146e-01
5.752219e-01
5.735020e-01
0.000000e+00
1.000000e+00
5.741147e-01
5.750831e-01
5.761690e-01
5.772417e-01
5.783235e-01
5.793441e-01
5.801946e-01
5.807226e-01
5.807781e-01
5.802964e-01
5.793623e-01
5.781385e-01
5.767448e-01
5.752744e-01
5.735183e-01
0.000000e+00
1.000000e+00
5.741097e-01
5.750518e-01
5.761402e-01
5.771782e-01
5.782180e-01
5.792149e-01
5.800623e-01
5.806058e-01
5.806774e-01
5.802149e-01
5.792909e-01
5.780646e-01
5.766554e-01
5.752516e-01
5.735246e-01
0.000000e+00
1.000000e+00
5.740664e-01
5.749368e-01
5.759148e-01
5.768680e-01
5.778703e-01
5.788779e-01
5.797516e-01
5.803190e-01
5.803999e-01
5.800101e-01
5.791955e-01
5.779856e-01
5.765312e-01
5.751651e-01
5.733837e-01
0.000000e+00
1.000000e+00
5.740466e-01
5.748324e-01
5.757371e-01
5.766034e-01
5.775168e-01
5.784733e-01
5.793440e-01
5.799115e-01
5.799741e-01
5.796627e-01
5.789940e-01
5.779246e-01
5.766169e-01
5.751698e-01
5.734620e-01
0.000000e+00
1.000000e+00
5.727417e-01
5.723567e-01
5.719833e-01
5.716009e-01
5.712381e-01
5.709336e-01
5.707271e-01
5.706522e-01
5.707242e-01
5.709288e-01
5.712330e-01
5.715956e-01
5.719780e-01
5.724229e-01
5.722375e-01
0.000000e+00
1.000000e+00
5.727417e-01
5.725133e-01
5.722117e-01
5.719132e-01
5.716298e-01
5.713906e-01
5.712292e-01
5.711703e-01
5.712240e-01
5.713834e-01
5.716213e-01
5.719048e-01
5.722038e-01
5.725565e-01
5.722423e-01
0.000000e+00
1.000000e+00
5.727359e-01
5.726980e-01
5.725095e-01
5.723211e-01
5.721416e-01
5.719875e-01
5.718842e-01
5.718496e-01
5.718831e-01
5.719820e-01
5.721316e-01
5.723109e-01
5.725002e-01
5.727426e-01
5.722970e-01
0.000000e+00
1.000000e+00
5.728888e-01
5.729273e-01
5.728870e-01
5.728301e-01
5.727743e-01
5.727248e-01
5.726931e-01
5.726839e-01
5.726932e-01
5.727210e-01
5.727642e-01
5.728164e-01
5.728689e-01
5.729789e-01
5.724002e-01
0.000000e+00
1.000000e+00
5.731782e-01
5.731906e-01
5.732958e-01
5.734018e-01
5.735017e-01
5.735840e-01
5.736399e-01
5.736590e-01
5.736352e-01
5.735712e-01
5.734838e-01
5.733909e-01
5.732984e-01
5.733400e-01
5.726760e-01
0.000000e+00
1.000000e+00
5.732733e-01
5.735105e-01
5.737966e-01
5.740891e-01
5.743555e-01
5.745593e-01
5.746828e-01
5.747129e-01
5.746331e-01
5.744732e-01
5.742888e-01
5.740694e-01
5.738039e-01
5.737176e-01
5.726285e-01
0.000000e+00
1.000000e+00
5.734224e-01
5.738061e-01
5.742452e-01
5.747019e-01
5.751463e-01
5.755248e-01
5.757824e-01
5.758820e-01
5.757523e-01
5.755855e-01
5.752845e-01
5.748429e-01
5.743387e-01
5.739478e-01
5.728942e-01
0.000000e+00
1.000000e+00
5.735791e-01
5.740954e-01
5.746811e-01
5.752807e-01
5.758618e-01
5.763762e-01
5.767627e-01
5.769633e-01
5.770763e-01
5.768003e-01
5.762598e-01
5.755877e-01
5.748697e-01
5.742429e-01
5.730630e-01
0.000000e+00
1.000000e+00
5.737306e-01
5.743776e-01
5.751117e-01
5.758535e-01
5.765581e-01
5.771671e-01
5.776134e-01
5.779198e-01
5.781452e-01
5.779106e-01
5.771995e-01
5.762946e-01
5.753598e-01
5.745204e-01
5.730801e-01
0.000000e+00
1.000000e+00
5.738570e-01
5.746374e-01
5.754983e-01
5.763401e-01
5.771265e-01
5.778317e-01
5.784807e-01
5.790060e-01
5.789422e-01
5.787981e-01
5.780830e-01
5.769596e-01
5.757998e-01
5.747475e-01
5.734126e-01
0.000000e+00
1.000000e+00
5.739464e-01
5.748486e-01
5.757955e-01
5.766893e-01
5.775459e-01
5.783944e-01
5.792257e-01
5.797644e-01
5.796714e-01
5.794095e-01
5.787556e-01
5.775375e-01
5.761681e-01
5.749532e-01
5.736273e-01
0.000000e+00
1.000000e+00
5.740123e-01
5.749921e-01
5.759859e-01
5.769194e-01
5.778687e-01
5.788480e-01
5.797392e-01
5.802586e-01
5.802136e-01
5.798322e-01
5.791268e-01
5.779330e-01
5.764628e-01
5.750933e-01
5.734435e-01
0.000000e+00
1.000000e+00
5.740555e-01
5.750615e-01
5.760861e-01
5.770704e-01
5.780983e-01
5.791279e-01
5.800054e-01
5.805158e-01
5.805204e-01
5.800889e-01
5.792817e-01
5.780873e-01
5.766169e-01
5.751081e-01
5.734986e-01
0.000000e+00
1.000000e+00
5.740709e-01
5.750656e-01
5.760918e-01
5.771001e-01
5.781526e-01
5.791802e-01
5.800417e-01
5.805520e-01
5.805637e-01
5.801121e-01
5.792720e-01
5.780798e-01
5.766288e-01
5.750741e-01
5.735465e-01
0.000000e+00
1.000000e+00
5.740634e-01
5.750106e-01
5.760145e-01
5.769918e-01
5.780087e-01
5.790141e-01
5.798702e-01
5.803880e-01
5.803964e-01
5.799597e-01
5.791545e-01
5.779904e-01
5.765505e-01
5.749471e-01
5.737019e-01
0.000000e+00
1.000000e+00
5.740136e-01
5.748829e-01
5.758206e-01
5.767290e-01
5.776770e-01
5.786520e-01
5.795130e-01