<?xml version="1.0"?>
<VTKFile type="StructuredGrid" version="0.1">
  <StructuredGrid WholeExtent="0 16 0 16 0 16">
    <Piece Extent="0 16 0 16 0 16">
      <PointData Scalars="temperature" Vectors="velocity">
        <DataArray type="Float32" Name="temperature" format="ascii">
1.000000e+00
6.321063e-01
5.680653e-01
5.945582e-01
6.064294e-01
6.122761e-01
6.174223e-01
6.210150e-01
6.228187e-01
6.226446e-01
6.204459e-01
6.162589e-01
6.101830e-01
6.023103e-01
5.852267e-01
5.311054e-01
0.000000e+00
1.000000e+00
6.245322e-01
5.745222e-01
5.947679e-01
6.055943e-01
6.114632e-01
6.165339e-01
6.200741e-01
6.218558e-01
6.216723e-01
6.194888e-01
6.153803e-01
6.094829e-01
6.020439e-01
5.912904e-01
5.751012e-01
0.000000e+00
1.000000e+00
6.141871e-01
5.815691e-01
5.945706e-01
6.032942e-01
6.090766e-01
6.139081e-01
6.172903e-01
6.190016e-01
6.188074e-01
6.167196e-01
6.129186e-01
6.075463e-01
6.007018e-01
5.931962e-01
5.910774e-01
0.000000e+00
1.000000e+00
6.051000e-01
5.833492e-01
5.930662e-01
5.999002e-01
6.052186e-01
6.096195e-01
6.127446e-01
6.143542e-01
6.141771e-01
6.123099e-01
6.090418e-01
6.043144e-01
5.979516e-01
5.904667e-01
5.911615e-01
0.000000e+00
1.000000e+00
5.975286e-01
5.826415e-01
5.902865e-01
5.956121e-01
6.001000e-01
6.038426e-01
6.065888e-01
6.080849e-01
6.079688e-01
6.064509e-01
6.038455e-01
5.997760e-01
5.941791e-01
5.871716e-01
5.895771e-01
0.000000e+00
1.000000e+00
5.903934e-01
5.808033e-01
5.864659e-01
5.904578e-01
5.939371e-01
5.968470e-01
5.990613e-01
6.004169e-01
6.004345e-01
5.993977e-01
5.974706e-01
5.941434e-01
5.896928e-01
5.837835e-01
5.867950e-01
0.000000e+00
1.000000e+00
5.833729e-01
5.783018e-01
5.818528e-01
5.845217e-01
5.869229e-01
5.889426e-01
5.905095e-01
5.916079e-01
5.918646e-01
5.914390e-01
5.901191e-01
5.877552e-01
5.847106e-01
5.803399e-01
5.829896e-01
0.000000e+00
1.000000e+00
5.765333e-01
5.753805e-01
5.767255e-01
5.780217e-01
5.793052e-01
5.804645e-01
5.813903e-01
5.820433e-01
5.826112e-01
5.827668e-01
5.821214e-01
5.809440e-01
5.793975e-01
5.768839e-01
5.783664e-01
0.000000e+00
1.000000e+00
5.700380e-01
5.721843e-01
5.712688e-01
5.711062e-01
5.711862e-01
5.714593e-01
5.718514e-01
5.723931e-01
5.732081e-01
5.737070e-01
5.738867e-01
5.739671e-01
5.739264e-01
5.734907e-01
5.731856e-01
0.000000e+00
1.000000e+00
5.639953e-01
5.688521e-01
5.657460e-01
5.641112e-01
5.629680e-01
5.623549e-01
5.622894e-01
5.628083e-01
5.637469e-01
5.648008e-01
5.658936e-01
5.671140e-01
5.685207e-01
5.702335e-01
5.677022e-01
0.000000e+00
1.000000e+00
5.587211e-01
5.653509e-01
5.603761e-01
5.573109e-01
5.550312e-01
5.536500e-01
5.532188e-01
5.536367e-01
5.545048e-01
5.562504e-01
5.583523e-01
5.606489e-01
5.634005e-01
5.672676e-01
5.619859e-01
0.000000e+00
1.000000e+00
5.545467e-01
5.617032e-01
5.553606e-01
5.509849e-01
5.477341e-01
5.457101e-01
5.449118e-01
5.451203e-01
5.461256e-01
5.483424e-01
5.514145e-01
5.547973e-01
5.587970e-01
5.647624e-01
5.561757e-01
0.000000e+00
1.000000e+00
5.517493e-01
5.579509e-01
5.509060e-01
5.454463e-01
5.413992e-01
5.387963e-01
5.376060e-01
5.376544e-01
5.388463e-01
5.414490e-01
5.452902e-01
5.497243e-01
5.549749e-01
5.629788e-01
5.502959e-01
0.000000e+00
1.000000e+00
5.506482e-01
5.543163e-01
5.472438e-01
5.409797e-01
5.362571e-01
5.331213e-01
5.315834e-01
5.315389e-01
5.329196e-01
5.358418e-01
5.402160e-01
5.454808e-01
5.521677e-01
5.624519e-01
5.439052e-01
0.000000e+00
1.000000e+00
5.530438e-01
5.516832e-01
5.445874e-01
5.377494e-01
5.324525e-01
5.288801e-01
5.270869e-01
5.270012e-01
5.285450e-01
5.317221e-01
5.364318e-01
5.421121e-01
5.505629e-01
5.646975e-01
5.359746e-01
0.000000e+00
1.000000e+00
5.765836e-01
5.533448e-01
5.431516e-01
5.357685e-01
5.300669e-01
5.262263e-01
5.242925e-01
5.242036e-01
5.258637e-01
5.292084e-01
5.341074e-01
5.398413e-01
5.500756e-01
5.727967e-01
5.262093e-01
0.000000e+00
1.000000e+00
6.195733e-01
5.572675e-01
5.427331e-01
5.350456e-01
5.292196e-01
5.253057e-01
5.233362e-01
5.232546e-01
5.249569e-01
5.283554e-01
5.333129e-01
5.390252e-01
5.500491e-01
5.804428e-01
5.181135e-01
0.000000e+00
1.000000e+00
6.296124e-01
5.701342e-01
5.941419e-01
6.057634e-01
6.115111e-01
6.165665e-01
6.200942e-01
6.218649e-01
6.216744e-01
6.194821e-01
6.153591e-01
6.094233e-01
6.018353e-01
5.878368e-01
5.542670e-01
0.000000e+00
1.000000e+00
6.236750e-01
5.750525e-01
5.942731e-01
6.049507e-01
6.107173e-01
6.156998e-01
6.191761e-01
6.209230e-01
6.207202e-01
6.185402e-01
6.144978e-01
6.087498e-01
6.015457e-01
5.917352e-01
5.784008e-01
0.000000e+00
1.000000e+00
6.144860e-01
5.810735e-01
5.940496e-01
6.026985e-01
6.083747e-01
6.131260e-01
6.164501e-01
6.181270e-01
6.179108e-01
6.158231e-01
6.120958e-01
6.068757e-01
6.002048e-01
5.928498e-01
5.892634e-01
0.000000e+00
1.000000e+00
6.051914e-01
5.829375e-01
5.926368e-01
5.993748e-01
6.045920e-01
6.089184e-01
6.119929e-01
6.135718e-01
6.133712e-01
6.115052e-01
6.083150e-01
6.037205e-01
5.974890e-01
5.902436e-01
5.903563e-01
0.000000e+00
1.000000e+00
5.973601e-01
5.824004e-01
5.899622e-01
5.951823e-01
5.995782e-01
6.032514e-01
6.059527e-01
6.074234e-01
6.072849e-01
6.057712e-01
6.032379e-01
5.992668e-01
5.937661e-01
5.869619e-01
5.891397e-01
0.000000e+00
1.000000e+00
5.901336e-01
5.806745e-01
5.862389e-01
5.901449e-01
5.935480e-01
5.963946e-01
5.985669e-01
5.999010e-01
5.998985e-01
5.988675e-01
5.969939e-01
5.937309e-01
5.893539e-01
5.835840e-01
5.865234e-01
0.000000e+00
1.000000e+00
5.831638e-01
5.782466e-01
5.817217e-01
5.843362e-01
5.866829e-01
5.886523e-01
5.901799e-01
5.912573e-01
5.914960e-01
5.910731e-01
5.897814e-01
5.874552e-01
5.844635e-01
5.801774e-01
5.828039e-01
0.000000e+00
1.000000e+00
5.764515e-01
5.753808e-01
5.766953e-01
5.779691e-01
5.792228e-01
5.803497e-01
5.812443e-01
5.818761e-01
5.824229e-01
5.825706e-01
5.819309e-01
5.807706e-01
5.792530e-01
5.767818e-01
5.782576e-01
0.000000e+00
1.000000e+00
5.701238e-01
5.722388e-01
5.713467e-01
5.711906e-01
5.712655e-01
5.715241e-01
5.718956e-01
5.724115e-01
5.731987e-01
5.736814e-01
5.738515e-01
5.739274e-01
5.738877e-01
5.734606e-01
5.731608e-01
0.000000e+00
1.000000e+00
5.641724e-01
5.689736e-01
5.659212e-01
5.643186e-01
5.631921e-01
5.625812e-01
5.625063e-01
5.630070e-01
5.639177e-01
5.649420e-01
5.660065e-01
5.671985e-01
5.685784e-01
5.702561e-01
5.678213e-01
0.000000e+00
1.000000e+00
5.589737e-01
5.655266e-01
5.606494e-01
5.576402e-01
5.553975e-01
5.540348e-01
5.536071e-01
5.540140e-01
5.548513e-01
5.565579e-01
5.586191e-01
5.608636e-01
5.635573e-01
5.673460e-01
5.622217e-01
0.000000e+00
1.000000e+00
5.549039e-01
5.619051e-01
5.557228e-01
5.514251e-01
5.482320e-01
5.462450e-01
5.454627e-01
5.456624e-01
5.466274e-01
5.487975e-01
5.518215e-01
5.551343e-01
5.590457e-01
5.649108e-01
5.564471e-01
0.000000e+00
1.000000e+00
5.523059e-01
5.581572e-01
5.513418e-01
5.459834e-01
5.420155e-01
5.394659e-01
5.383004e-01
5.383382e-01
5.394829e-01
5.420301e-01
5.458181e-01
5.501728e-01
5.553172e-01
5.632392e-01
5.504525e-01
0.000000e+00
1.000000e+00
5.516769e-01
5.545586e-01
5.477370e-01
5.416007e-01
5.369756e-01
5.339039e-01
5.323940e-01
5.323366e-01
5.336656e-01
5.365256e-01
5.408389e-01
5.460213e-01
5.526085e-01
5.628789e-01
5.438793e-01
0.000000e+00
1.000000e+00
5.549336e-01
5.520765e-01
5.451305e-01
5.384382e-01
5.332502e-01
5.297461e-01
5.279814e-01
5.278819e-01
5.293733e-01
5.324835e-01
5.371231e-01
5.427231e-01
5.510699e-01
5.651038e-01
5.359001e-01
0.000000e+00
1.000000e+00
5.712324e-01
5.530778e-01
5.437103e-01
5.365061e-01
5.309153e-01
5.271414e-01
5.252359e-01
5.251341e-01
5.267440e-01
5.300215e-01
5.348446e-01
5.405136e-01
5.505190e-01
5.714228e-01
5.278679e-01
0.000000e+00
1.000000e+00
5.955301e-01
5.555532e-01
5.432720e-01
5.358005e-01
5.300837e-01
5.262355e-01
5.242948e-01
5.242019e-01
5.258566e-01
5.291903e-01
5.340705e-01
5.397258e-01
5.503912e-01
5.765153e-01
5.223932e-01
0.000000e+00
1.000000e+00
6.217852e-01
5.754948e-01
5.934935e-01
6.037265e-01
6.092640e-01
6.140475e-01
6.173786e-01
6.190405e-01
6.188112e-01
6.166763e-01
6.127969e-01
6.073369e-01
6.004967e-01
5.913774e-01
5.789362e-01
0.000000e+00
1.000000e+00
6.190376e-01
5.774036e-01
5.933622e-01
6.029926e-01
6.085147e-01
6.132319e-01
6.165172e-01
6.181562e-01
6.179129e-01
6.157873e-01
6.119948e-01
6.067153e-01
6.000913e-01
5.920814e-01
5.828223e-01
0.000000e+00
1.000000e+00
6.121196e-01
5.806846e-01
5.928771e-01
6.009340e-01
6.063097e-01
6.108079e-01
6.139546e-01
6.155289e-01
6.152683e-01
6.132320e-01
6.097564e-01
6.049535e-01
5.986876e-01
5.916744e-01
5.874723e-01
0.000000e+00
1.000000e+00
6.039495e-01
5.821331e-01
5.915139e-01
5.978513e-01
6.027582e-01
6.068453e-01
6.097580e-01
6.112439e-01
6.109973e-01
6.091800e-01
6.062242e-01
6.019684e-01
5.960767e-01
5.893068e-01
5.888196e-01
0.000000e+00
1.000000e+00
5.963601e-01
5.817829e-01
5.890358e-01
5.939372e-01
5.980603e-01
6.015140e-01
6.040675e-01
6.054553e-01
6.052714e-01
6.038022e-01
6.014641e-01
5.977494e-01
5.925340e-01
5.862204e-01
5.880489e-01
0.000000e+00
1.000000e+00
5.892893e-01
5.802849e-01
5.855587e-01
5.892240e-01
5.924105e-01
5.950719e-01
5.971102e-01
5.983683e-01
5.983211e-01
5.973241e-01
5.955876e-01
5.925061e-01
5.883573e-01
5.829734e-01
5.857316e-01
0.000000e+00
1.000000e+00
5.825861e-01
5.780510e-01
5.813157e-01
5.837764e-01
5.859720e-01
5.878013e-01
5.892161e-01
5.902218e-01
5.904131e-01
5.900004e-01
5.887819e-01
5.865717e-01
5.837432e-01
5.797124e-01
5.822545e-01
0.000000e+00
1.000000e+00
5.762506e-01
5.753538e-01
5.765872e-01
5.777951e-01
5.789662e-01
5.800038e-01
5.808156e-01
5.813871e-01
5.818732e-01
5.819930e-01
5.813711e-01
5.802650e-01
5.788340e-01
5.764972e-01
5.779385e-01
0.000000e+00
1.000000e+00
5.703722e-01
5.723823e-01
5.715585e-01
5.714209e-01
5.714836e-01
5.717051e-01
5.720236e-01
5.724704e-01
5.731766e-01
5.736096e-01
5.737531e-01
5.738168e-01
5.737800e-01
5.733807e-01
5.730872e-01
0.000000e+00
1.000000e+00
5.647206e-01
5.693143e-01
5.664349e-01
5.649292e-01
5.638563e-01
5.632564e-01
5.631557e-01
5.635999e-01
5.644278e-01
5.653686e-01
5.663535e-01
5.674655e-01
5.687661e-01
5.703456e-01
5.681193e-01
0.000000e+00
1.000000e+00
5.597621e-01
5.660357e-01
5.614568e-01
5.586178e-01
5.564877e-01
5.551809e-01
5.547583e-01
5.551275e-01
5.558843e-01
5.574749e-01
5.594122e-01
5.615108e-01
5.640398e-01
5.676076e-01
5.628221e-01
0.000000e+00
1.000000e+00
5.559522e-01
5.625440e-01
5.567973e-01
5.527349e-01
5.497106e-01
5.478250e-01
5.470826e-01
5.472588e-01
5.481243e-01
5.501559e-01
5.530220e-01
5.561309e-01
5.597951e-01
5.653616e-01
5.572357e-01
0.000000e+00
1.000000e+00
5.537079e-01
5.589342e-01
5.526407e-01
5.475775e-01
5.438306e-01
5.414285e-01
5.403337e-01
5.403522e-01
5.413802e-01
5.437676e-01
5.473749e-01
5.514817e-01
5.563065e-01
5.639132e-01
5.513183e-01
0.000000e+00
1.000000e+00
5.535354e-01
5.555730e-01
5.492076e-01
5.434200e-01
5.390675e-01
5.361832e-01
5.347644e-01
5.346882e-01
5.358889e-01
5.385693e-01
5.426846e-01
5.475997e-01
5.537847e-01
5.637002e-01
5.449572e-01
0.000000e+00
1.000000e+00
5.562009e-01
5.532752e-01
5.467169e-01
5.404151e-01
5.355491e-01
5.322608e-01
5.305987e-01
5.304805e-01
5.318381e-01
5.347551e-01
5.391801e-01
5.445418e-01
5.522697e-01
5.652249e-01
5.382384e-01
0.000000e+00
1.000000e+00
5.623497e-01
5.528669e-01
5.452938e-01
5.385825e-01
5.333476e-01
5.298002e-01
5.280009e-01
5.278818e-01
5.293586e-01
5.324387e-01
5.370316e-01
5.425292e-01
5.514564e-01
5.679525e-01
5.329899e-01
0.000000e+00
1.000000e+00
5.660317e-01
5.531619e-01
5.448073e-01
5.379201e-01
5.325645e-01
5.289417e-01
5.271074e-01
5.269987e-01
5.285229e-01
5.316595e-01
5.363050e-01
5.418260e-01
5.511056e-01
5.692038e-01
5.313646e-01
0.000000e+00
1.000000e+00
6.116064e-01
5.795468e-01
5.923679e-01
6.004047e-01
6.055741e-01
6.099173e-01
6.129420e-01
6.144393e-01
6.141793e-01
6.122014e-01
6.087838e-01
6.040392e-01
5.979119e-01
5.908694e-01
5.858786e-01
0.000000e+00
1.000000e+00
6.107377e-01
5.797516e-01
5.920454e-01
5.997984e-01
6.049055e-01
6.091850e-01
6.121699e-01
6.136472e-01
6.133724e-01
6.114043e-01
6.080743e-01
6.034747e-01
5.974638e-01
5.905993e-01
5.854698e-01
0.000000e+00
1.000000e+00
6.067080e-01
5.806516e-01
5.912488e-01
5.980696e-01
6.029437e-01
6.070106e-01
6.098697e-01
6.112905e-01
6.109971e-01
6.091143e-01
6.060733e-01
6.018378e-01
5.960785e-01
5.895576e-01
5.863765e-01
0.000000e+00
1.000000e+00
6.007620e-01
5.812017e-01
5.898187e-01
5.953950e-01
5.997909e-01
6.034623e-01
6.060999e-01
6.074419e-01
6.071611e-01
6.054833e-01
6.028933e-01
5.990836e-01
5.936945e-01
5.875322e-01
5.869061e-01
0.000000e+00
1.000000e+00
5.943105e-01
5.808361e-01
5.875373e-01
5.919227e-01
5.956097e-01
5.986938e-01
6.009880e-01
6.022382e-01
6.020176e-01
6.006635e-01
5.986012e-01
5.952415e-01
5.905053e-01
5.848854e-01
5.862828e-01
0.000000e+00
1.000000e+00
5.878922e-01
5.795965e-01
5.844151e-01
5.877114e-01
5.905640e-01
5.929298e-01
5.947408e-01
5.958635e-01
5.957722e-01
5.948518e-01
5.932975e-01
5.904966e-01
5.867463e-01
5.819697e-01
5.843483e-01
0.000000e+00
1.000000e+00
5.817330e-01
5.776649e-01
5.806126e-01
5.828341e-01
5.847983e-01
5.864165e-01
5.876546e-01
5.885348e-01
5.886638e-01
5.882688e-01
5.871527e-01
5.851412e-01
5.825912e-01
5.789916e-01
5.812905e-01
0.000000e+00
1.000000e+00
5.759819e-01
5.752581e-01
5.763709e-01
5.774708e-01
5.785146e-01
5.794205e-01
5.801127e-01
5.805928e-01
5.809859e-01
5.810558e-01
5.804673e-01
5.794582e-01
5.781708e-01
5.760697e-01
5.773877e-01
0.000000e+00
1.000000e+00
5.707597e-01
5.725780e-01
5.718613e-01
5.717508e-01
5.717976e-01
5.719681e-01
5.722136e-01
5.725641e-01
5.731443e-01
5.734982e-01
5.736058e-01
5.736535e-01
5.736219e-01
5.732711e-01
5.729771e-01
0.000000e+00
1.000000e+00
5.656262e-01
5.698228e-01
5.672425e-01
5.658953e-01
5.649160e-01
5.643433e-01
5.642083e-01
5.645625e-01
5.652601e-01
5.660724e-01
5.669372e-01
5.679275e-01
5.691009e-01
5.705260e-01
5.685697e-01
0.000000e+00
1.000000e+00
5.611004e-01
5.668245e-01
5.627467e-01
5.601910e-01
5.582533e-01
5.570413e-01
5.566235e-01
5.569268e-01
5.575690e-01
5.589709e-01
5.607028e-01
5.625794e-01
5.648535e-01
5.680779e-01
5.637491e-01
0.000000e+00
1.000000e+00
5.577258e-01
5.636108e-01
5.585314e-01
5.548642e-01
5.521141e-01
5.503849e-01
5.496959e-01
5.498375e-01
5.505700e-01
5.523774e-01
5.549639e-01
5.577498e-01
5.610384e-01
5.661282e-01
5.585674e-01
0.000000e+00
1.000000e+00
5.558928e-01
5.603696e-01
5.547610e-01
5.501790e-01
5.467750e-01
5.445939e-01
5.436056e-01
5.436094e-01
5.444831e-01
5.466183e-01
5.498965e-01
5.535836e-01
5.578965e-01
5.649238e-01
5.531520e-01
0.000000e+00
1.000000e+00
5.557003e-01
5.574899e-01
5.516323e-01
5.463767e-01
5.424374e-01
5.398429e-01
5.385770e-01
5.384967e-01
5.395250e-01
5.419311e-01
5.456944e-01
5.501317e-01
5.555645e-01
5.646040e-01
5.478069e-01
0.000000e+00
1.000000e+00
5.565608e-01
5.554173e-01
5.493292e-01
5.435986e-01
5.392254e-01
5.362882e-01
5.348109e-01
5.346941e-01
5.358680e-01
5.384930e-01
5.425577e-01
5.474722e-01
5.539964e-01
5.649635e-01
5.432713e-01
0.000000e+00
1.000000e+00
5.571724e-01
5.543552e-01
5.479589e-01
5.418985e-01
5.372214e-01
5.340584e-01
5.324571e-01
5.323411e-01
5.336308e-01
5.364079e-01
5.406304e-01
5.457674e-01
5.529774e-01
5.652139e-01
5.408595e-01
0.000000e+00
1.000000e+00
5.560338e-01
5.540338e-01
5.474838e-01
5.412963e-01
5.365146e-01
5.332806e-01
5.316452e-01
5.315396e-01
5.328775e-01
5.357083e-01
5.399769e-01
5.451736e-01
5.525330e-01
5.649359e-01
5.408325e-01
0.000000e+00
1.000000e+00
6.021996e-01
5.808216e-01
5.901499e-01
5.961050e-01
6.005823e-01
6.042965e-01
6.069185e-01
6.082281e-01
6.079659e-01
6.062601e-01
6.034891e-01
5.995279e-01
5.941172e-01
5.879294e-01
5.867934e-01
0.000000e+00
1.000000e+00
6.018967e-01
5.806131e-01
5.898159e-01
5.956296e-01
6.000255e-01
6.036784e-01
6.062650e-01
6.075583e-01
6.072816e-01
6.055878e-01
6.028962e-01
5.990385e-01
5.937173e-01
5.876590e-01
5.861550e-01
0.000000e+00
1.000000e+00
5.997653e-01
5.804326e-01
5.889432e-01
5.942623e-01
5.984002e-01
6.018488e-01
6.043179e-01
6.055622e-01
6.052678e-01
6.036520e-01
6.011931e-01
5.975869e-01
5.925002e-01
5.867218e-01
5.855172e-01
0.000000e+00
1.000000e+00
5.959584e-01
5.802013e-01
5.875289e-01
5.920854e-01
5.957863e-01
5.988733e-01
6.011284e-01
6.022981e-01
6.020147e-01
6.005774e-01
5.984596e-01
5.951667e-01
5.904769e-01
5.851238e-01
5.849347e-01
0.000000e+00
1.000000e+00
5.911581e-01
5.796535e-01
5.854927e-01
5.891866e-01
5.922947e-01
5.948738e-01
5.968065e-01
5.978810e-01
5.976511e-01
5.964905e-01
5.947694e-01
5.918505e-01
5.877911e-01
5.830293e-01
5.840380e-01
0.000000e+00
1.000000e+00
5.859037e-01
5.786286e-01
5.828243e-01
5.856349e-01
5.880496e-01
5.900260e-01
5.915272e-01
5.924682e-01
5.923503e-01
5.915558e-01
5.902221e-01
5.877985e-01
5.846089e-01
5.806143e-01
5.824470e-01
0.000000e+00
1.000000e+00
5.806118e-01
5.770732e-01
5.796094e-01
5.815124e-01
5.831760e-01
5.845246e-01
5.855348e-01
5.862477e-01
5.863150e-01
5.859531e-01
5.849706e-01
5.832393e-01
5.810745e-01
5.780605e-01
5.799648e-01
0.000000e+00
1.000000e+00
5.756403e-01
5.750681e-01
5.760236e-01
5.769742e-01
5.778527e-01
5.785949e-01
5.791430e-01
5.795108e-01
5.797935e-01
5.798045e-01
5.792709e-01
5.784014e-01
5.773097e-01
5.755355e-01
5.766622e-01
0.000000e+00
1.000000e+00
5.712456e-01
5.727889e-01
5.722085e-01
5.721298e-01
5.721593e-01
5.722733e-01
5.724373e-01
5.726779e-01
5.731058e-01
5.733636e-01
5.734326e-01
5.734632e-01
5.734387e-01
5.731521e-01
5.728599e-01
0.000000e+00
1.000000e+00
5.668219e-01
5.704462e-01
5.682739e-01
5.671392e-01
5.662936e-01
5.657714e-01
5.656054e-01
5.658510e-01
5.663888e-01
5.670403e-01
5.677528e-01
5.685857e-01
5.695875e-01
5.708063e-01
5.691649e-01
0.000000e+00
1.000000e+00
5.629268e-01
5.678311e-01
5.644306e-01
5.622612e-01
5.605941e-01
5.595221e-01
5.591180e-01
5.593399e-01
5.598478e-01
5.610048e-01
5.624597e-01
5.640470e-01
5.659852e-01
5.687581e-01
5.649659e-01
0.000000e+00
1.000000e+00
5.601607e-01
5.650543e-01
5.608208e-01
5.576970e-01
5.553255e-01
5.538097e-01
5.531922e-01
5.532992e-01
5.538817e-01
5.553982e-01
5.575920e-01
5.599453e-01
5.627453e-01
5.671869e-01
5.604324e-01
0.000000e+00
1.000000e+00
5.586224e-01
5.623848e-01
5.575856e-01
5.536610e-01
5.507176e-01
5.488274e-01
5.479830e-01
5.479881e-01
5.486880e-01
5.505015e-01
5.533095e-01
5.564135e-01
5.600463e-01
5.661763e-01
5.559645e-01
0.000000e+00
1.000000e+00
5.577861e-01
5.601137e-01
5.548848e-01
5.503459e-01
5.469473e-01
5.447317e-01
5.436791e-01
5.436226e-01
5.444550e-01
5.465172e-01
5.497764e-01
5.535188e-01
5.579559e-01
5.655619e-01
5.521217e-01
0.000000e+00
1.000000e+00
5.568645e-01
5.584353e-01
5.528634e-01
5.478859e-01
5.441403e-01
5.416642e-01
5.404516e-01
5.403707e-01
5.413319e-01
5.435950e-01
5.471479e-01
5.513393e-01
5.564425e-01
5.650480e-01
5.494892e-01
0.000000e+00
1.000000e+00
5.555870e-01
5.574956e-01
5.516355e-01
5.463756e-01
5.423962e-01
5.397441e-01
5.384308e-01
5.383534e-01
5.394224e-01
5.418220e-01
5.455271e-01
5.499671e-01
5.554575e-01
5.644438e-01
5.484965e-01
0.000000e+00
1.000000e+00
5.544200e-01
5.572505e-01
5.512172e-01
5.458532e-01
5.417896e-01
5.390771e-01
5.377323e-01
5.376641e-01
5.387796e-01
5.412279e-01
5.449744e-01
5.494881e-01
5.550754e-01
5.640211e-01
5.486930e-01
0.000000e+00
1.000000e+00
5.936102e-01
5.802221e-01
5.867979e-01
5.910226e-01
5.945153e-01
5.974074e-01
5.995157e-01
6.006359e-01
6.004238e-01
5.991176e-01
5.970920e-01
5.939045e-01
5.894815e-01
5.842504e-01
5.853639e-01
0.000000e+00
1.000000e+00
5.934164e-01
5.800305e-01
5.865361e-01
5.906736e-01
5.940949e-01
5.969307e-01
5.990059e-01
6.001128e-01
5.998882e-01
5.985958e-01
5.966312e-01
5.935116e-01
5.891625e-01
5.840639e-01
5.849970e-01
0.000000e+00
1.000000e+00
5.922560e-01
5.796260e-01
5.857960e-01
5.896595e-01
5.928663e-01
5.955262e-01
5.974908e-01
5.985525e-01
5.983119e-01
5.970853e-01
5.952796e-01
5.923307e-01
5.882007e-01
5.834059e-01
5.841348e-01
0.000000e+00
1.000000e+00
5.900566e-01
5.790641e-01
5.845895e-01
5.880148e-01
5.908818e-01
5.932485e-01
5.950153e-01
5.959985e-01
5.957646e-01
5.946754e-01
5.930856e-01
5.903770e-01
5.866290e-01
5.822749e-01
5.829712e-01
0.000000e+00
1.000000e+00
5.869778e-01
5.783521e-01
5.829223e-01
5.857862e-01
5.882065e-01
5.901811e-01
5.916650e-01
5.925398e-01
5.923460e-01
5.914640e-01
5.901246e-01
5.877385e-01
5.845432e-01
5.807570e-01
5.816485e-01
0.000000e+00
1.000000e+00
5.832641e-01
5.774516e-01
5.808114e-01
5.830296e-01
5.849224e-01
5.864409e-01
5.875716e-01
5.883015e-01
5.881909e-01
5.875782e-01
5.864980e-01
5.845462e-01
5.820546e-01
5.789474e-01
5.801527e-01
0.000000e+00
1.000000e+00
5.792102e-01
5.762734e-01
5.783079e-01
5.798202e-01
5.811265e-01
5.821643e-01
5.829142e-01
5.834352e-01
5.834587e-01
5.831559e-01
5.823402e-01
5.809644e-01
5.792741e-01
5.769573e-01
5.782853e-01
0.000000e+00
1.000000e+00
5.752247e-01
5.747554e-01
5.755197e-01
5.762817e-01
5.769657e-01
5.775250e-01
5.779188e-01
5.781675e-01
5.783415e-01
5.783015e-01
5.778492e-01
5.771587e-01
5.763058e-01
5.749349e-01
5.757898e-01
0.000000e+00
1.000000e+00
5.717856e-01
5.729734e-01
5.725461e-01
5.724990e-01
5.725133e-01
5.725740e-01
5.726607e-01
5.727947e-01
5.730665e-01
5.732261e-01
5.732595e-01
5.732749e-01
5.732583e-01
5.730460e-01
5.727590e-01
0.000000e+00
1.000000e+00
5.682430e-01
5.711266e-01
5.694485e-01
5.685688e-01
5.678942e-01
5.674515e-01
5.672704e-01
5.674069e-01
5.677773e-01
5.682524e-01
5.687902e-01
5.694376e-01
5.702293e-01
5.711948e-01
5.698884e-01
0.000000e+00
1.000000e+00
5.651989e-01
5.689974e-01
5.664014e-01
5.647044e-01
5.633797e-01
5.624975e-01
5.621280e-01
5.622689e-01
5.626400e-01
5.635171e-01
5.646387e-01
5.658812e-01
5.674138e-01
5.696435e-01
5.664337e-01
0.000000e+00
1.000000e+00
5.631016e-01
5.668217e-01
5.635345e-01
5.610806e-01
5.591860e-01
5.579449e-01
5.574232e-01
5.575089e-01
5.579421e-01
5.591237e-01
5.608306e-01
5.626612e-01
5.648727e-01
5.684670e-01
5.628462e-01
0.000000e+00
1.000000e+00
5.614821e-01
5.648514e-01
5.609565e-01
5.578490e-01
5.554831e-01
5.539507e-01
5.532850e-01
5.533210e-01
5.538482e-01
5.552922e-01
5.575031e-01
5.598919e-01
5.627187e-01
5.675361e-01
5.597175e-01
0.000000e+00
1.000000e+00
5.598149e-01
5.632356e-01
5.587864e-01
5.551556e-01
5.524193e-01
5.506528e-01
5.498622e-01
5.498733e-01
5.505086e-01
5.521784e-01
5.547796e-01
5.576436e-01
5.609956e-01
5.666787e-01
5.574034e-01
0.000000e+00
1.000000e+00
5.581270e-01
5.620744e-01
5.571407e-01
5.531282e-01
5.501219e-01
5.481779e-01
5.472914e-01
5.472995e-01
5.480438e-01
5.498944e-01
5.527617e-01
5.559768e-01
5.597265e-01
5.658817e-01
5.560359e-01
0.000000e+00
1.000000e+00
5.568408e-01
5.614485e-01
5.561226e-01
5.518766e-01
5.486971e-01
5.466336e-01
5.456809e-01
5.456976e-01
5.465366e-01
5.485057e-01
5.515144e-01
5.549420e-01
5.589395e-01
5.652702e-01
5.555446e-01
0.000000e+00
1.000000e+00
5.561794e-01
5.612950e-01
5.557752e-01
5.514493e-01
5.482085e-01
5.461011e-01
5.451243e-01
5.451482e-01
5.460296e-01
5.480397e-01
5.510873e-01
5.545846e-01
5.586643e-01
5.650035e-01
5.555736e-01
0.000000e+00
1.000000e+00
5.856027e-01
5.784320e-01
5.824853e-01
5.852327e-01
5.876039e-01
5.895545e-01
5.910204e-01
5.919219e-01
5.918526e-01
5.910848e-01
5.897691e-01
5.874394e-01
5.843519e-01
5.804117e-01
5.824229e-01
0.000000e+00
1.000000e+00
5.854556e-01
5.783291e-01
5.823196e-01
5.850125e-01
5.873341e-01
5.892414e-01
5.906766e-01
5.915651e-01
5.914856e-01
5.907306e-01
5.894487e-01
5.871585e-01
5.841246e-01
5.802784e-01
5.822441e-01
0.000000e+00
1.000000e+00
5.848080e-01
5.780431e-01
5.818260e-01
5.843594e-01
5.865370e-01
5.883177e-01
5.896593e-01
5.905011e-01
5.904049e-01
5.896935e-01
5.884942e-01
5.863187e-01
5.834517e-01
5.798559e-01
5.816352e-01
0.000000e+00
1.000000e+00
5.836715e-01
5.775682e-01
5.810001e-01
5.832817e-01
5.852351e-01
5.868173e-01
5.880031e-01
5.887599e-01
5.886577e-01
5.880248e-01
5.869343e-01
5.849467e-01
5.823670e-01
5.791514e-01
5.806260e-01
0.000000e+00
1.000000e+00
5.820398e-01
5.769328e-01
5.798569e-01
5.818012e-01
5.834599e-01
5.847845e-01
5.857616e-01
5.864009e-01
5.863114e-01
5.857920e-01
5.848345e-01
5.831112e-01
5.809291e-01
5.781951e-01
5.793028e-01
0.000000e+00
1.000000e+00
5.799470e-01
5.761745e-01
5.784201e-01
5.799513e-01
5.812566e-01
5.822828e-01
5.830159e-01
5.835096e-01
5.834579e-01
5.830838e-01
5.822823e-01
5.809042e-01
5.792082e-01
5.770295e-01
5.778137e-01
0.000000e+00
1.000000e+00
5.774574e-01
5.753106e-01
5.767271e-01
5.777827e-01
5.786856e-01
5.793898e-01
5.798720e-01
5.801927e-01
5.802070e-01
5.799973e-01
5.793869e-01
5.784328e-01
5.772799e-01
5.757089e-01
5.763214e-01
0.000000e+00
1.000000e+00
5.747333e-01
5.742998e-01
5.748422e-01
5.753798e-01
5.758478e-01
5.762177e-01
5.764627e-01
5.765988e-01
5.766863e-01
5.766196e-01
5.762803e-01
5.758019e-01
5.752188e-01
5.743053e-01
5.747496e-01
0.000000e+00
1.000000e+00
5.723372e-01
5.730912e-01
5.728211e-01
5.728010e-01
5.728041e-01
5.728235e-01
5.728495e-01
5.728963e-01
5.730322e-01
5.731067e-01
5.731133e-01
5.731175e-01
5.731084e-01
5.729752e-01
5.727062e-01
0.000000e+00
1.000000e+00
5.698475e-01
5.718047e-01
5.706780e-01
5.700816e-01
5.696103e-01
5.692810e-01
5.691143e-01
5.691609e-01
5.693789e-01
5.696794e-01
5.700315e-01
5.704731e-01
5.710230e-01
5.717012e-01
5.707080e-01
0.000000e+00
1.000000e+00
5.678252e-01
5.702776e-01
5.685415e-01
5.673792e-01
5.664582e-01
5.658212e-01
5.655207e-01
5.655960e-01
5.658442e-01
5.664312e-01
5.671803e-01
5.680363e-01
5.691040e-01
5.706961e-01
5.681107e-01
0.000000e+00
1.000000e+00
5.660927e-01
5.688458e-01
5.665247e-01
5.648351e-01
5.635089e-01
5.626129e-01
5.622166e-01
5.622999e-01
5.626042e-01
5.634332e-01
5.645770e-01
5.658243e-01
5.673612e-01
5.698221e-01
5.658664e-01
0.000000e+00
1.000000e+00
5.642314e-01
5.676171e-01
5.646922e-01
5.625358e-01
5.608659e-01
5.597655e-01
5.592989e-01
5.593973e-01
5.597784e-01
5.608308e-01
5.623250e-01
5.639260e-01
5.658670e-01
5.689661e-01
5.642298e-01
0.000000e+00
1.000000e+00
5.624551e-01
5.666322e-01
5.631309e-01
5.605903e-01
5.586476e-01
5.573929e-01
5.568768e-01
5.570018e-01
5.574722e-01
5.587215e-01
5.604991e-01
5.623980e-01
5.646685e-01
5.681869e-01
5.631093e-01
0.000000e+00
1.000000e+00
5.610744e-01
5.659230e-01
5.619292e-01
5.591046e-01
5.569651e-01
5.556021e-01
5.550523e-01
5.552075e-01
5.557691e-01
5.571745e-01
5.591552e-01
5.612818e-01
5.638013e-01
5.675839e-01
5.624261e-01
0.000000e+00
1.000000e+00
5.602630e-01
5.655079e-01
5.611688e-01
5.581725e-01
5.559143e-01
5.544842e-01
5.539101e-01
5.540862e-01
5.547268e-01
5.562303e-01
5.583280e-01
5.606045e-01
5.632879e-01
5.672196e-01
5.621034e-01
0.000000e+00
1.000000e+00
5.599279e-01
5.653830e-01
5.609053e-01
5.578521e-01
5.555543e-01
5.541015e-01
5.535174e-01
5.537003e-01
5.543758e-01
5.559122e-01
5.580471e-01
5.603783e-01
5.631208e-01
5.670967e-01
5.620195e-01
0.000000e+00
1.000000e+00
5.782007e-01
5.758506e-01
5.774957e-01
5.788435e-01
5.800610e-01
5.810744e-01
5.818461e-01
5.823768e-01
5.825668e-01
5.824535e-01
5.817549e-01
5.805226e-01
5.789596e-01
5.766425e-01
5.783338e-01
0.000000e+00
1.000000e+00
5.781365e-01
5.758204e-01
5.774341e-01
5.787579e-01
5.799496e-01
5.809378e-01
5.816870e-01
5.822028e-01
5.823836e-01
5.822700e-01
5.815806e-01
5.803671e-01
5.788326e-01
5.765612e-01
5.782637e-01
0.000000e+00
1.000000e+00
5.778653e-01
5.757169e-01
5.772373e-01
5.784894e-01
5.796074e-01
5.805250e-01
5.812126e-01
5.816855e-01
5.818421e-01
5.817246e-01
5.810625e-01
5.799090e-01
5.784626e-01
5.763300e-01
5.779393e-01
0.000000e+00
1.000000e+00
5.774436e-01
5.755126e-01
5.768879e-01
5.780237e-01
5.790268e-01
5.798388e-01
5.804347e-01
5.808398e-01
5.809634e-01
5.808390e-01
5.802212e-01
5.791737e-01
5.778749e-01
5.759722e-01
5.773848e-01
0.000000e+00
1.000000e+00
5.768611e-01
5.752019e-01
5.763830e-01
5.773598e-01
5.782117e-01
5.788898e-01
5.793717e-01
5.796905e-01
5.797798e-01
5.796523e-01
5.790990e-01
5.782019e-01
5.771041e-01
5.755066e-01
5.766129e-01
0.000000e+00
1.000000e+00
5.761136e-01
5.747873e-01
5.757246e-01
5.765026e-01
5.771727e-01
5.776964e-01
5.780524e-01
5.782748e-01
5.783365e-01
5.782163e-01
5.777513e-01
5.770447e-01
5.761900e-01
5.749523e-01
5.756436e-01
0.000000e+00
1.000000e+00
5.751890e-01
5.742865e-01
5.749233e-01
5.754670e-01
5.759297e-01
5.762860e-01
5.765163e-01
5.766418e-01
5.766879e-01
5.765898e-01
5.762440e-01
5.757601e-01
5.751772e-01
5.743295e-01
5.745325e-01
0.000000e+00
1.000000e+00
5.740351e-01
5.737330e-01
5.740041e-01
5.742857e-01
5.745227e-01
5.747025e-01
5.748129e-01
5.748546e-01
5.748920e-01
5.748340e-01
5.746475e-01
5.744048e-01
5.741092e-01
5.736577e-01
5.734811e-01
0.000000e+00
1.000000e+00
5.729047e-01
5.731241e-01
5.729922e-01
5.729895e-01
5.729869e-01
5.729824e-01
5.729736e-01
5.729672e-01
5.730085e-01
5.730267e-01
5.730201e-01
5.730184e-01
5.730148e-01
5.729561e-01
5.727371e-01
0.000000e+00
1.000000e+00
5.716009e-01
5.724270e-01
5.718727e-01
5.715724e-01
5.713290e-01
5.711502e-01
5.710439e-01
5.710382e-01
5.711391e-01
5.712795e-01
5.714459e-01
5.716711e-01
5.719543e-01
5.723190e-01
5.714450e-01
0.000000e+00
1.000000e+00
5.702654e-01
5.716854e-01
5.707455e-01
5.701541e-01
5.696809e-01
5.693443e-01
5.691658e-01
5.691874e-01
5.693493e-01
5.696461e-01
5.700021e-01
5.704419e-01
5.709922e-01
5.717659e-01
5.702369e-01
0.000000e+00
1.000000e+00
5.688513e-01
5.710555e-01
5.696545e-01
5.687869e-01
5.681011e-01
5.676290e-01
5.674069e-01
5.674684e-01
5.677151e-01
5.681618e-01
5.687000e-01
5.693342e-01
5.701246e-01
5.711876e-01
5.695990e-01
0.000000e+00
1.000000e+00
5.675417e-01
5.704815e-01
5.686266e-01
5.675095e-01
5.666405e-01
5.660653e-01
5.658273e-01
5.659439e-01
5.662952e-01
5.668888e-01
5.675944e-01
5.684021e-01
5.693998e-01
5.706826e-01
5.690625e-01
0.000000e+00
1.000000e+00
5.664889e-01
5.699799e-01
5.677227e-01
5.663957e-01
5.653801e-01
5.647324e-01
5.644970e-01
5.646756e-01
5.651398e-01
5.658666e-01
5.667154e-01
5.676713e-01
5.688397e-01
5.703002e-01
5.686424e-01
0.000000e+00
1.000000e+00
5.657265e-01
5.695723e-01
5.670028e-01
5.655168e-01
5.643963e-01
5.637042e-01
5.634823e-01
5.637183e-01
5.642881e-01
5.651220e-01
5.660834e-01
5.671569e-01
5.684544e-01
5.700489e-01
5.683464e-01
0.000000e+00
1.000000e+00
5.652867e-01
5.692925e-01
5.665292e-01
5.649438e-01
5.637621e-01
5.630493e-01
5.628422e-01