<?xml version="1.0"?>
<VTKFile type="StructuredGrid" version="0.1">
  <StructuredGrid WholeExtent="0 16 0 16 0 16">
    <Piece Extent="0 16 0 16 0 16">
      <PointData Scalars="temperature" Vectors="velocity">
        <DataArray type="Float32" Name="temperature" format="ascii">
1.000000e+00
6.027884e-01
5.744525e-01
5.994236e-01
6.069310e-01
6.132635e-01
6.181753e-01
6.214430e-01
6.228844e-01
6.223833e-01
6.199220e-01
6.155565e-01
6.094149e-01
6.017121e-01
5.873144e-01
5.476275e-01
0.000000e+00
1.000000e+00
6.052230e-01
5.786581e-01
5.988375e-01
6.062323e-01
6.124592e-01
6.172861e-01
6.204988e-01
6.219188e-01
6.214219e-01
6.189930e-01
6.147117e-01
6.087122e-01
6.012409e-01
5.911849e-01
5.779164e-01
0.000000e+00
1.000000e+00
6.027478e-01
5.834135e-01
5.972215e-01
6.041983e-01
6.100901e-01
6.146600e-01
6.177080e-01
6.190609e-01
6.185839e-01
6.162794e-01
6.122942e-01
6.067464e-01
5.997945e-01
5.922680e-01
5.880227e-01
0.000000e+00
1.000000e+00
5.970989e-01
5.845910e-01
5.947282e-01
6.009401e-01
6.062405e-01
6.103815e-01
6.131663e-01
6.144190e-01
6.139894e-01
6.119264e-01
6.084412e-01
6.035086e-01
5.971506e-01
5.898660e-01
5.873867e-01
0.000000e+00
1.000000e+00
5.918323e-01
5.836792e-01
5.914153e-01
5.966209e-01
6.010853e-01
6.046129e-01
6.070324e-01
6.081688e-01
6.078235e-01
6.061153e-01
6.032575e-01
5.990211e-01
5.935150e-01
5.868956e-01
5.859215e-01
0.000000e+00
1.000000e+00
5.866682e-01
5.816863e-01
5.873275e-01
5.913777e-01
5.948448e-01
5.976015e-01
5.995383e-01
6.005373e-01
6.003336e-01
5.990847e-01
5.969015e-01
5.935024e-01
5.891555e-01
5.836903e-01
5.836060e-01
0.000000e+00
1.000000e+00
5.814666e-01
5.790249e-01
5.825951e-01
5.853590e-01
5.877401e-01
5.896455e-01
5.910062e-01
5.917908e-01
5.918057e-01
5.911130e-01
5.896062e-01
5.872422e-01
5.842582e-01
5.802960e-01
5.805809e-01
0.000000e+00
1.000000e+00
5.762992e-01
5.759338e-01
5.774232e-01
5.787953e-01
5.800358e-01
5.810791e-01
5.818512e-01
5.823107e-01
5.825572e-01
5.824429e-01
5.816911e-01
5.805176e-01
5.789946e-01
5.767913e-01
5.769911e-01
0.000000e+00
1.000000e+00
5.713218e-01
5.725858e-01
5.719910e-01
5.718895e-01
5.719260e-01
5.720786e-01
5.723043e-01
5.726031e-01
5.730882e-01
5.734115e-01
5.735132e-01
5.735802e-01
5.735518e-01
5.732780e-01
5.730311e-01
0.000000e+00
1.000000e+00
5.666478e-01
5.691540e-01
5.665309e-01
5.649475e-01
5.637688e-01
5.630234e-01
5.627298e-01
5.629318e-01
5.635904e-01
5.644615e-01
5.654750e-01
5.667133e-01
5.681456e-01
5.698564e-01
5.688789e-01
0.000000e+00
1.000000e+00
5.624713e-01
5.656563e-01
5.612476e-01
5.582366e-01
5.559022e-01
5.543306e-01
5.535846e-01
5.536905e-01
5.543717e-01
5.558445e-01
5.578237e-01
5.601846e-01
5.629864e-01
5.666903e-01
5.646034e-01
0.000000e+00
1.000000e+00
5.590422e-01
5.621530e-01
5.563370e-01
5.520168e-01
5.486503e-01
5.463582e-01
5.452038e-01
5.451428e-01
5.459651e-01
5.478882e-01
5.507653e-01
5.542307e-01
5.582801e-01
5.639523e-01
5.603284e-01
0.000000e+00
1.000000e+00
5.565605e-01
5.586999e-01
5.519844e-01
5.465506e-01
5.423185e-01
5.394035e-01
5.378588e-01
5.376428e-01
5.386362e-01
5.409545e-01
5.445436e-01
5.490378e-01
5.542274e-01
5.618766e-01
5.560939e-01
0.000000e+00
1.000000e+00
5.551988e-01
5.554248e-01
5.483937e-01
5.420967e-01
5.371591e-01
5.337074e-01
5.318201e-01
5.314912e-01
5.326460e-01
5.353076e-01
5.394196e-01
5.447329e-01
5.509537e-01
5.608916e-01
5.516344e-01
0.000000e+00
1.000000e+00
5.556207e-01
5.530332e-01
5.457940e-01
5.388476e-01
5.333446e-01
5.294674e-01
5.273217e-01
5.269220e-01
5.282078e-01
5.311419e-01
5.356247e-01
5.414679e-01
5.484757e-01
5.620370e-01
5.464638e-01
0.000000e+00
1.000000e+00
5.730615e-01
5.541296e-01
5.442839e-01
5.368573e-01
5.309757e-01
5.268340e-01
5.245372e-01
5.241048e-01
5.254784e-01
5.285868e-01
5.333018e-01
5.394275e-01
5.468184e-01
5.670036e-01
5.414314e-01
0.000000e+00
1.000000e+00
6.080114e-01
5.567633e-01
5.437509e-01
5.361521e-01
5.301520e-01
5.259308e-01
5.235896e-01
5.231503e-01
5.245546e-01
5.277198e-01
5.325125e-01
5.387278e-01
5.462002e-01
5.717133e-01
5.384813e-01
0.000000e+00
1.000000e+00
6.051418e-01
5.756114e-01
5.988803e-01
6.062656e-01
6.124841e-01
6.173043e-01
6.205109e-01
6.219248e-01
6.214238e-01
6.189896e-01
6.146994e-01
6.086783e-01
6.011679e-01
5.888874e-01
5.636229e-01
0.000000e+00
1.000000e+00
6.057421e-01
5.788406e-01
5.983113e-01
6.055821e-01
6.116978e-01
6.164353e-01
6.195878e-01
6.209794e-01
6.204806e-01
6.180757e-01
6.138705e-01
6.079988e-01
6.007158e-01
5.914053e-01
5.800630e-01
0.000000e+00
1.000000e+00
6.028595e-01
5.829253e-01
5.967351e-01
6.035870e-01
6.093741e-01
6.138615e-01
6.168541e-01
6.181790e-01
6.176972e-01
6.154131e-01
6.115075e-01
6.060907e-01
5.992957e-01
5.919315e-01
5.867421e-01
0.000000e+00
1.000000e+00
5.971065e-01
5.841776e-01
5.943031e-01
6.003955e-01
6.055986e-01
6.096655e-01
6.124014e-01
6.136288e-01
6.131924e-01
6.111479e-01
6.077426e-01
6.029253e-01
5.966918e-01
5.896163e-01
5.868398e-01
0.000000e+00
1.000000e+00
5.916900e-01
5.834170e-01
5.910679e-01
5.961684e-01
6.005453e-01
6.040068e-01
6.063843e-01
6.074999e-01
6.071470e-01
6.054565e-01
6.026697e-01
5.985219e-01
5.931155e-01
5.866712e-01
5.856025e-01
0.000000e+00
1.000000e+00
5.864702e-01
5.815284e-01
5.870691e-01
5.910372e-01
5.944325e-01
5.971325e-01
5.990324e-01
6.000144e-01
5.998032e-01
5.985699e-01
5.964393e-01
5.931026e-01
5.888341e-01
5.834907e-01
5.833993e-01
0.000000e+00
1.000000e+00
5.813064e-01
5.789399e-01
5.824326e-01
5.851423e-01
5.874729e-01
5.893351e-01
5.906644e-01
5.914336e-01
5.914410e-01
5.907583e-01
5.892816e-01
5.869575e-01
5.840290e-01
5.801425e-01
5.804363e-01
0.000000e+00
1.000000e+00
5.762275e-01
5.759071e-01
5.773622e-01
5.787093e-01
5.799236e-01
5.809410e-01
5.816905e-01
5.821357e-01
5.823713e-01
5.822563e-01
5.815149e-01
5.803604e-01
5.788669e-01
5.767016e-01
5.769098e-01
0.000000e+00
1.000000e+00
5.713709e-01
5.726158e-01
5.720356e-01
5.719383e-01
5.719725e-01
5.721171e-01
5.723309e-01
5.726147e-01
5.730833e-01
5.733963e-01
5.734925e-01
5.735561e-01
5.735288e-01
5.732602e-01
5.730191e-01
0.000000e+00
1.000000e+00
5.667790e-01
5.692538e-01
5.666758e-01
5.651238e-01
5.639652e-01
5.632286e-01
5.629338e-01
5.631267e-01
5.637675e-01
5.646159e-01
5.656058e-01
5.668169e-01
5.682222e-01
5.698974e-01
5.689726e-01
0.000000e+00
1.000000e+00
5.626667e-01
5.658161e-01
5.614913e-01
5.585373e-01
5.562439e-01
5.546971e-01
5.539614e-01
5.540644e-01
5.547250e-01
5.561649e-01
5.581068e-01
5.604176e-01
5.631634e-01
5.667909e-01
5.647831e-01
0.000000e+00
1.000000e+00
5.593114e-01
5.623501e-01
5.566706e-01
5.524310e-01
5.491257e-01
5.468749e-01
5.457424e-01
5.456822e-01
5.464768e-01
5.483578e-01
5.511872e-01
5.545845e-01
5.585503e-01
5.641223e-01
5.605391e-01
0.000000e+00
1.000000e+00
5.569561e-01
5.589145e-01
5.523945e-01
5.470635e-01
5.429121e-01
5.400537e-01
5.385403e-01
5.383258e-01
5.392861e-01
5.415532e-01
5.450847e-01
5.495000e-01
5.545846e-01
5.621457e-01
5.562371e-01
0.000000e+00
1.000000e+00
5.559095e-01
5.556825e-01
5.488674e-01
5.426927e-01
5.378524e-01
5.344689e-01
5.326181e-01
5.322904e-01
5.334090e-01
5.360120e-01
5.400553e-01
5.452830e-01
5.513880e-01
5.612941e-01
5.516863e-01
0.000000e+00
1.000000e+00
5.571470e-01
5.533943e-01
5.463154e-01
5.395083e-01
5.341144e-01
5.303114e-01
5.282046e-01
5.278063e-01
5.290552e-01
5.319266e-01
5.363302e-01
5.420798e-01
5.489726e-01
5.624306e-01
5.464904e-01
0.000000e+00
1.000000e+00
5.688422e-01
5.539814e-01
5.448378e-01
5.375634e-01
5.317941e-01
5.277277e-01
5.254706e-01
5.250405e-01
5.263784e-01
5.294240e-01
5.340542e-01
5.400789e-01
5.473657e-01
5.662710e-01
5.420805e-01
0.000000e+00
1.000000e+00
5.883467e-01
5.556961e-01
5.443199e-01
5.368748e-01
5.309860e-01
5.268402e-01
5.245392e-01
5.241034e-01
5.254737e-01
5.285772e-01
5.332840e-01
5.393950e-01
5.467695e-01
5.693882e-01
5.397416e-01
0.000000e+00
1.000000e+00
6.051504e-01
5.789518e-01
5.973209e-01
6.043133e-01
6.101900e-01
6.147379e-01
6.177603e-01
6.190863e-01
6.185882e-01
6.162547e-01
6.122200e-01
6.066117e-01
5.996651e-01
5.909731e-01
5.802106e-01
0.000000e+00
1.000000e+00
6.044652e-01
5.802055e-01
5.967978e-01
6.036699e-01
6.094490e-01
6.139205e-01
6.168936e-01
6.181980e-01
6.177001e-01
6.153925e-01
6.114454e-01
6.059856e-01
5.992119e-01
5.913864e-01
5.826621e-01
0.000000e+00
1.000000e+00
6.012436e-01
5.824186e-01
5.953424e-01
6.017964e-01
6.072596e-01
6.114976e-01
6.143234e-01
6.155652e-01
6.150797e-01
6.128861e-01
6.092357e-01
6.041952e-01
5.978053e-01
5.908265e-01
5.853008e-01
0.000000e+00
1.000000e+00
5.961165e-01
5.833435e-01
5.930786e-01
5.988062e-01
6.037076e-01
6.075456e-01
6.101319e-01
6.112845e-01
6.108400e-01
6.088782e-01
6.057086e-01
6.012047e-01
5.953165e-01
5.887015e-01
5.857233e-01
0.000000e+00
1.000000e+00
5.909011e-01
5.827414e-01
5.900518e-01
5.948459e-01
5.989601e-01
6.022184e-01
6.044638e-01
6.055148e-01
6.051507e-01
6.035324e-01
6.009421e-01
5.970417e-01
5.919322e-01
5.859302e-01
5.847855e-01
0.000000e+00
1.000000e+00
5.858127e-01
5.810631e-01
5.863004e-01
5.900329e-01
5.932201e-01
5.957523e-01
5.975380e-01
5.984640e-01
5.982387e-01
5.970616e-01
5.950734e-01
5.919204e-01
5.878890e-01
5.828880e-01
5.827921e-01
0.000000e+00
1.000000e+00
5.808489e-01
5.786665e-01
5.819420e-01
5.844949e-01
5.866817e-01
5.884213e-01
5.896593e-01
5.903783e-01
5.903661e-01
5.897145e-01
5.883222e-01
5.861201e-01
5.833580e-01
5.796989e-01
5.800135e-01
0.000000e+00
1.000000e+00
5.760408e-01
5.758091e-01
5.771708e-01
5.784446e-01
5.795837e-01
5.805289e-01
5.812168e-01
5.816216e-01
5.818265e-01
5.817069e-01
5.809965e-01
5.799004e-01
5.784942e-01
5.764471e-01
5.766713e-01
0.000000e+00
1.000000e+00
5.715145e-01
5.726949e-01
5.721575e-01
5.720721e-01
5.721008e-01
5.722250e-01
5.724085e-01
5.726532e-01
5.730734e-01
5.733546e-01
5.734354e-01
5.734894e-01
5.734651e-01
5.732132e-01
5.729793e-01
0.000000e+00
1.000000e+00
5.671775e-01
5.695366e-01
5.671019e-01
5.656434e-01
5.645462e-01
5.638388e-01
5.635431e-01
5.637083e-01
5.642950e-01
5.650788e-01
5.660011e-01
5.671342e-01
5.684592e-01
5.700336e-01
5.692081e-01
0.000000e+00
1.000000e+00
5.632644e-01
5.662795e-01
5.622110e-01
5.594276e-01
5.572581e-01
5.557870e-01
5.550806e-01
5.551701e-01
5.557755e-01
5.571196e-01
5.589479e-01
5.611146e-01
5.636975e-01
5.671080e-01
5.652428e-01
0.000000e+00
1.000000e+00
5.601023e-01
5.629579e-01
5.576586e-01
5.536600e-01
5.505364e-01
5.484056e-01
5.473336e-01
5.472739e-01
5.479981e-01
5.497580e-01
5.524365e-01
5.556312e-01
5.593566e-01
5.646286e-01
5.611513e-01
0.000000e+00
1.000000e+00
5.579919e-01
5.596632e-01
5.536151e-01
5.485854e-01
5.446670e-01
5.419708e-01
5.405464e-01
5.403406e-01
5.412170e-01
5.433383e-01
5.466890e-01
5.508580e-01
5.556333e-01
5.628563e-01
5.569278e-01
0.000000e+00
1.000000e+00
5.573043e-01
5.566512e-01
5.502762e-01
5.444501e-01
5.398887e-01
5.367040e-01
5.349640e-01
5.346491e-01
5.356744e-01
5.381107e-01
5.419458e-01
5.469004e-01
5.526415e-01
5.621332e-01
5.525525e-01
0.000000e+00
1.000000e+00
5.585032e-01
5.545166e-01
5.478438e-01
5.414326e-01
5.363600e-01
5.327834e-01
5.308009e-01
5.304180e-01
5.315691e-01
5.342595e-01
5.384300e-01
5.438920e-01
5.503976e-01
5.627890e-01
5.481335e-01
0.000000e+00
1.000000e+00
5.624776e-01
5.540001e-01
5.464163e-01
5.395932e-01
5.341728e-01
5.303456e-01
5.282183e-01
5.278057e-01
5.290460e-01
5.319049e-01
5.362846e-01
5.420089e-01
5.489276e-01
5.643185e-01
5.449324e-01
0.000000e+00
1.000000e+00
5.652172e-01
5.541964e-01
5.459219e-01
5.389478e-01
5.334121e-01
5.295068e-01
5.273366e-01
5.269195e-01
5.281936e-01
5.311105e-01
5.355620e-01
5.413671e-01
5.483919e-01
5.650197e-01
5.440152e-01
0.000000e+00
1.000000e+00
6.003723e-01
5.815838e-01
5.948488e-01
6.011330e-01
6.064402e-01
6.105503e-01
6.132824e-01
6.144733e-01
6.139950e-01
6.118624e-01
6.082842e-01
6.033369e-01
5.971002e-01
5.901465e-01
5.842502e-01
0.000000e+00
1.000000e+00
5.999130e-01
5.816620e-01
5.943977e-01
6.005614e-01
6.057753e-01
6.098164e-01
6.125052e-01
6.136767e-01
6.131969e-01
6.110881e-01
6.075957e-01
6.027723e-01
5.966531e-01
5.898695e-01
5.838859e-01
0.000000e+00
1.000000e+00
5.975708e-01
5.821637e-01
5.931267e-01
5.988997e-01
6.038139e-01
6.076396e-01
6.101971e-01
6.113138e-01
6.108423e-01
6.088388e-01
6.056167e-01
6.011256e-01
5.953060e-01
5.888786e-01
5.842272e-01
0.000000e+00
1.000000e+00
5.937237e-01
5.823584e-01
5.911119e-01
5.962422e-01
6.006380e-01
6.040914e-01
6.064295e-01
6.074679e-01
6.070327e-01
6.052426e-01
6.024395e-01
5.983859e-01
5.930387e-01
5.870455e-01
5.842393e-01
0.000000e+00
1.000000e+00
5.892899e-01
5.817286e-01
5.883970e-01
5.927049e-01
5.963925e-01
5.993128e-01
6.013335e-01
6.022804e-01
6.019199e-01
6.004444e-01
5.981409e-01
5.946135e-01
5.899971e-01
5.846372e-01
5.834439e-01
0.000000e+00
1.000000e+00
5.846958e-01
5.802799e-01
5.850317e-01
5.883928e-01
5.912514e-01
5.935138e-01
5.951083e-01
5.959372e-01
5.957061e-01
5.946323e-01
5.928481e-01
5.899925e-01
5.863592e-01
5.819000e-01
5.817425e-01
0.000000e+00
1.000000e+00
5.801484e-01
5.781761e-01
5.811214e-01
5.834242e-01
5.853860e-01
5.869354e-01
5.880290e-01
5.886618e-01
5.886262e-01
5.880253e-01
5.867606e-01
5.847648e-01
5.822784e-01
5.790001e-01
5.792838e-01
0.000000e+00
1.000000e+00
5.757754e-01
5.756154e-01
5.768369e-01
5.779908e-01
5.790113e-01
5.798466e-01
5.804432e-01
5.807865e-01
5.809456e-01
5.808151e-01
5.801585e-01
5.791625e-01
5.778987e-01
5.760548e-01
5.762640e-01
0.000000e+00
1.000000e+00
5.717414e-01
5.728028e-01
5.723328e-01
5.722645e-01
5.722860e-01
5.723821e-01
5.725239e-01
5.727145e-01
5.730597e-01
5.732902e-01
5.733503e-01
5.733913e-01
5.733716e-01
5.731487e-01
5.729184e-01
0.000000e+00
1.000000e+00
5.678252e-01
5.699676e-01
5.677782e-01
5.664716e-01
5.654774e-01
5.648230e-01
5.645316e-01
5.646537e-01
5.651534e-01
5.658369e-01
5.666544e-01
5.676662e-01
5.688611e-01
5.702769e-01
5.695675e-01
0.000000e+00
1.000000e+00
5.642554e-01
5.670038e-01
5.633662e-01
5.608630e-01
5.589003e-01
5.575567e-01
5.568981e-01
5.569611e-01
5.574845e-01
5.586755e-01
5.603147e-01
5.622559e-01
5.645808e-01
5.676520e-01
5.659620e-01
0.000000e+00
1.000000e+00
5.614246e-01
5.639610e-01
5.592553e-01
5.556539e-01
5.528286e-01
5.508912e-01
5.499110e-01
5.498493e-01
5.504755e-01
5.520448e-01
5.544619e-01
5.573287e-01
5.606784e-01
5.654654e-01
5.621861e-01
0.000000e+00
1.000000e+00
5.596487e-01
5.610001e-01
5.556028e-01
5.510644e-01
5.475188e-01
5.450763e-01
5.437898e-01
5.436022e-01
5.443621e-01
5.462581e-01
5.492971e-01
5.530463e-01
5.573306e-01
5.639247e-01
5.583405e-01
0.000000e+00
1.000000e+00
5.590612e-01
5.584078e-01
5.525817e-01
5.473103e-01
5.431862e-01
5.403144e-01
5.387537e-01
5.384708e-01
5.393647e-01
5.415449e-01
5.450348e-01
5.495087e-01
5.546390e-01
5.631492e-01
5.546475e-01
0.000000e+00
1.000000e+00
5.592792e-01
5.565064e-01
5.503495e-01
5.445485e-01
5.399798e-01
5.367686e-01
5.349956e-01
5.346530e-01
5.356634e-01
5.380742e-01
5.418733e-01
5.468340e-01
5.526383e-01
5.629985e-01
5.515847e-01
0.000000e+00
1.000000e+00
5.594417e-01
5.554893e-01
5.490046e-01
5.428600e-01
5.379959e-01
5.345648e-01
5.326613e-01
5.322927e-01
5.333892e-01
5.359556e-01
5.399415e-01
5.451597e-01
5.513609e-01
5.628988e-01
5.499551e-01
0.000000e+00
1.000000e+00
5.585387e-01
5.551817e-01
5.485432e-01
5.422753e-01
5.373099e-01
5.338068e-01
5.318630e-01
5.314906e-01
5.326211e-01
5.352425e-01
5.392910e-01
5.445856e-01
5.509026e-01
5.626120e-01
5.498564e-01
0.000000e+00
1.000000e+00
5.945286e-01
5.821354e-01
5.915870e-01
5.968699e-01
6.013689e-01
6.048772e-01
6.072278e-01
6.082587e-01
6.078276e-01
6.060018e-01
6.030513e-01
5.988816e-01
5.934712e-01
5.874106e-01
5.842693e-01
0.000000e+00
1.000000e+00
5.942884e-01
5.819210e-01
5.912180e-01
5.963952e-01
6.008091e-01
6.042556e-01
6.065692e-01
6.075844e-01
6.071505e-01
6.053469e-01
6.024722e-01
5.983942e-01
5.930779e-01
5.871444e-01
5.838042e-01
0.000000e+00
1.000000e+00
5.928391e-01
5.816293e-01
5.901614e-01
5.950143e-01
5.991621e-01
6.024143e-01
6.046122e-01
6.055815e-01
6.051528e-01
6.034420e-01
6.007866e-01
5.969519e-01
5.919033e-01
5.862703e-01
5.832342e-01
0.000000e+00
1.000000e+00
5.902222e-01
5.812164e-01
5.884580e-01
5.927926e-01
5.964983e-01
5.994187e-01
6.014172e-01
6.023178e-01
6.019203e-01
6.003924e-01
5.980616e-01
5.945720e-01
5.899755e-01
5.847992e-01
5.826114e-01
0.000000e+00
1.000000e+00
5.868637e-01
5.804498e-01
5.861504e-01
5.898118e-01
5.929274e-01
5.953868e-01
5.970971e-01
5.979116e-01
5.975802e-01
5.963193e-01
5.943779e-01
5.913396e-01
5.874038e-01
5.828522e-01
5.817139e-01
0.000000e+00
1.000000e+00
5.831012e-01
5.792063e-01
5.832960e-01
5.861622e-01
5.885857e-01
5.904887e-01
5.918227e-01
5.925218e-01
5.923029e-01
5.913808e-01
5.898553e-01
5.874042e-01
5.843171e-01
5.805648e-01
5.803097e-01
0.000000e+00
1.000000e+00
5.792118e-01
5.774681e-01
5.799848e-01
5.819522e-01
5.836173e-01
5.849193e-01
5.858242e-01
5.863415e-01
5.862874e-01
5.857599e-01
5.846649e-01
5.829556e-01
5.808445e-01
5.780835e-01
5.782936e-01
0.000000e+00
1.000000e+00
5.754324e-01
5.753152e-01
5.763546e-01
5.773451e-01
5.782091e-01
5.789040e-01
5.793874e-01
5.796548e-01
5.797607e-01
5.796204e-01
5.790426e-01
5.781872e-01
5.771151e-01
5.755518e-01
5.757326e-01
0.000000e+00
1.000000e+00
5.720277e-01
5.729189e-01
5.725348e-01
5.724864e-01
5.724999e-01
5.725646e-01
5.726596e-01
5.727893e-01
5.730437e-01
5.732123e-01
5.732503e-01
5.732772e-01
5.732628e-01
5.730780e-01
5.728565e-01
0.000000e+00
1.000000e+00
5.686725e-01
5.705102e-01
5.686566e-01
5.675531e-01
5.667011e-01
5.661259e-01
5.658498e-01
5.659213e-01
5.663126e-01
5.668691e-01
5.675506e-01
5.684037e-01
5.694231e-01
5.706275e-01
5.700413e-01
0.000000e+00
1.000000e+00
5.655889e-01
5.679429e-01
5.648906e-01
5.627662e-01
5.610881e-01
5.599241e-01
5.593358e-01
5.593660e-01
5.597900e-01
5.607819e-01
5.621649e-01
5.638084e-01
5.657896e-01
5.684140e-01
5.669102e-01
0.000000e+00
1.000000e+00
5.632411e-01
5.653211e-01
5.613786e-01
5.583162e-01
5.558986e-01
5.542259e-01
5.533699e-01
5.533090e-01
5.538196e-01
5.551426e-01
5.571971e-01
5.596218e-01
5.624747e-01
5.666042e-01
5.636266e-01
0.000000e+00
1.000000e+00
5.617740e-01
5.628659e-01
5.582591e-01
5.543876e-01
5.513466e-01
5.492445e-01
5.481416e-01
5.479868e-01
5.486093e-01
5.502180e-01
5.528232e-01
5.559890e-01
5.596230e-01
5.652802e-01
5.604526e-01
0.000000e+00
1.000000e+00
5.608704e-01
5.607981e-01
5.556716e-01
5.511538e-01
5.476141e-01
5.451575e-01
5.438384e-01
5.436121e-01
5.443490e-01
5.462052e-01
5.492212e-01
5.530063e-01
5.573208e-01
5.643564e-01
5.577428e-01
0.000000e+00
1.000000e+00
5.599927e-01
5.592641e-01
5.537360e-01
5.487496e-01
5.448398e-01
5.421114e-01
5.406252e-01
5.403540e-01
5.411936e-01
5.432506e-01
5.465498e-01
5.507716e-01
5.556177e-01
5.636422e-01
5.558592e-01
0.000000e+00
1.000000e+00
5.589674e-01
5.583800e-01
5.525503e-01
5.472732e-01
5.431258e-01
5.402209e-01
5.386280e-01
5.383365e-01
5.392552e-01
5.414485e-01
5.449118e-01
5.493768e-01
5.545531e-01
5.629979e-01
5.550841e-01
0.000000e+00
1.000000e+00
5.581277e-01
5.581301e-01
5.521474e-01
5.467686e-01
5.425381e-01
5.395725e-01
5.379442e-01
5.376493e-01
5.386009e-01
5.408431e-01
5.443584e-01
5.488964e-01
5.541791e-01
5.626261e-01
5.551422e-01
0.000000e+00
1.000000e+00
5.886448e-01
5.811116e-01
5.876052e-01
5.916995e-01
5.951901e-01
5.979348e-01
5.998107e-01
6.006749e-01
6.003328e-01
5.989206e-01
5.966953e-01
5.933654e-01
5.890299e-01
5.840114e-01
5.827654e-01
0.000000e+00
1.000000e+00
5.884754e-01
5.809169e-01
5.873255e-01
5.913383e-01
5.947596e-01
5.974515e-01
5.992957e-01
6.001476e-01
5.998024e-01
5.984103e-01
5.962427e-01
5.929774e-01
5.887197e-01
5.838202e-01
5.824994e-01
0.000000e+00
1.000000e+00
5.876006e-01
5.804715e-01
5.865094e-01
5.902810e-01
5.934931e-01
5.960232e-01
5.977667e-01
5.985800e-01
5.982376e-01
5.969206e-01
5.949076e-01
5.918197e-01
5.877940e-01
5.831854e-01
5.818375e-01
0.000000e+00
1.000000e+00
5.859749e-01
5.798276e-01
5.851785e-01
5.885665e-01
5.914419e-01
5.937043e-01
5.952737e-01
5.960227e-01
5.957045e-01
5.945281e-01
5.927351e-01
5.899221e-01
5.862876e-01
5.821106e-01
5.809091e-01
0.000000e+00
1.000000e+00
5.837251e-01
5.789812e-01
5.833707e-01
5.862496e-01
5.886796e-01
5.905816e-01
5.919060e-01
5.925677e-01
5.923017e-01
5.913270e-01
5.898036e-01
5.873677e-01
5.842776e-01
5.806635e-01
5.798204e-01
0.000000e+00
1.000000e+00
5.810178e-01
5.779062e-01
5.811388e-01
5.834011e-01
5.853016e-01
5.867764e-01
5.877958e-01
5.883410e-01
5.881614e-01
5.874411e-01
5.862213e-01
5.842727e-01
5.818561e-01
5.789236e-01
5.785707e-01
0.000000e+00
1.000000e+00
5.780372e-01
5.765554e-01
5.785546e-01
5.801107e-01
5.814193e-01
5.824301e-01
5.831153e-01
5.834984e-01
5.834399e-01
5.830132e-01
5.821278e-01
5.807765e-01
5.791239e-01
5.769853e-01
5.770455e-01
0.000000e+00
1.000000e+00
5.750174e-01
5.748984e-01
5.757200e-01
5.765074e-01
5.771838e-01
5.777168e-01
5.780750e-01
5.782605e-01
5.783166e-01
5.781765e-01
5.777036e-01
5.770254e-01
5.761864e-01
5.749701e-01
5.750947e-01
0.000000e+00
1.000000e+00
5.723477e-01
5.730186e-01
5.727321e-01
5.727034e-01
5.727098e-01
5.727447e-01
5.727954e-01
5.728660e-01
5.730273e-01
5.731326e-01
5.731504e-01
5.731643e-01
5.731554e-01
5.730150e-01
5.728056e-01
0.000000e+00
1.000000e+00
5.696731e-01
5.711223e-01
5.696797e-01
5.688207e-01
5.681462e-01
5.676772e-01
5.674328e-01
5.674560e-01
5.677313e-01
5.681455e-01
5.686679e-01
5.693320e-01
5.701365e-01
5.710838e-01
5.706146e-01
0.000000e+00
1.000000e+00
5.672429e-01
5.690513e-01
5.667025e-01
5.650392e-01
5.637141e-01
5.627801e-01
5.622883e-01
5.622888e-01
5.626068e-01
5.633682e-01
5.644411e-01
5.657270e-01
5.672907e-01
5.693778e-01
5.680576e-01
0.000000e+00
1.000000e+00
5.654650e-01
5.669967e-01
5.639247e-01
5.615200e-01
5.596073e-01
5.582671e-01
5.575686e-01
5.575184e-01
5.579080e-01
5.589444e-01
5.605505e-01
5.624388e-01
5.646912e-01
5.679828e-01
5.654711e-01
0.000000e+00
1.000000e+00
5.640725e-01
5.651604e-01
5.614542e-01
5.584018e-01
5.559866e-01
5.543061e-01
5.534280e-01
5.533260e-01
5.538043e-01
5.550812e-01
5.571407e-01
5.595891e-01
5.624455e-01
5.668352e-01
5.632113e-01
0.000000e+00
1.000000e+00
5.627099e-01
5.636602e-01
5.593958e-01
5.558156e-01
5.529976e-01
5.510445e-01
5.500169e-01
5.498772e-01
5.504476e-01
5.519326e-01
5.543450e-01
5.572633e-01
5.606251e-01
5.658413e-01
5.615046e-01
0.000000e+00
1.000000e+00
5.614045e-01
5.625771e-01
5.578455e-01
5.538765e-01
5.507634e-01
5.486086e-01
5.474677e-01
5.473053e-01
5.479611e-01
5.496135e-01
5.522733e-01
5.555353e-01
5.592826e-01
5.650003e-01
5.604430e-01
0.000000e+00
1.000000e+00
5.604577e-01
5.619738e-01
5.568871e-01
5.526794e-01
5.493825e-01
5.470990e-01
5.458833e-01
5.457094e-01
5.464339e-01
5.481987e-01
5.509980e-01
5.544644e-01
5.584579e-01
5.643943e-01
5.600041e-01
0.000000e+00
1.000000e+00
5.599990e-01
5.618107e-01
5.565618e-01
5.522725e-01
5.489122e-01
5.465835e-01
5.453412e-01
5.451647e-01
5.459186e-01
5.477236e-01
5.505654e-01
5.540977e-01
5.581763e-01
5.641455e-01
5.599734e-01
0.000000e+00
1.000000e+00
5.828769e-01
5.790123e-01
5.829822e-01
5.857767e-01
5.881484e-01
5.900153e-01
5.913156e-01
5.919878e-01
5.918058e-01
5.909100e-01
5.894167e-01
5.870506e-01
5.840484e-01
5.803618e-01
5.802646e-01
0.000000e+00
1.000000e+00
5.827549e-01
5.788962e-01
5.827993e-01
5.855397e-01
5.878635e-01
5.896914e-01
5.909654e-01
5.916270e-01
5.914419e-01
5.905618e-01
5.891024e-01
5.867776e-01
5.838309e-01
5.802270e-01
5.801245e-01
0.000000e+00
1.000000e+00
5.822443e-01
5.785702e-01
5.822561e-01
5.848375e-01
5.870208e-01
5.887338e-01
5.899280e-01
5.905542e-01
5.903678e-01
5.895381e-01
5.881679e-01
5.859663e-01
5.831876e-01
5.798100e-01
5.796638e-01
0.000000e+00
1.000000e+00
5.813488e-01
5.780386e-01
5.813604e-01
5.836873e-01
5.856481e-01
5.871781e-01
5.882406e-01
5.888041e-01
5.886280e-01
5.878847e-01
5.866434e-01
5.846461e-01
5.821475e-01
5.791190e-01
5.789044e-01
0.000000e+00
1.000000e+00
5.800792e-01
5.773266e-01
5.801374e-01
5.821221e-01
5.837877e-01
5.850769e-01
5.859620e-01
5.864389e-01
5.862892e-01
5.856669e-01
5.845912e-01
5.828772e-01
5.807596e-01
5.781813e-01
5.779020e-01
0.000000e+00
1.000000e+00
5.784763e-01
5.764677e-01
5.786232e-01
5.801881e-01
5.814975e-01
5.825022e-01
5.831772e-01
5.835456e-01
5.834419e-01
5.829714e-01
5.820959e-01
5.807397e-01
5.790852e-01
5.770370e-01
5.767570e-01
0.000000e+00
1.000000e+00
5.766010e-01
5.754860e-01
5.768669e-01
5.779468e-01
5.788508e-01
5.795415e-01
5.799938e-01
5.802336e-01
5.801938e-01
5.798985e-01
5.792606e-01
5.783268e-01
5.771945e-01
5.757359e-01
5.755833e-01
0.000000e+00
1.000000e+00
5.745352e-01
5.743620e-01
5.749360e-01
5.754858e-01
5.759510e-01
5.763098e-01
5.765414e-01
5.766477e-01
5.766682e-01
5.765479e-01
5.762059e-01
5.757358e-01
5.751610e-01
5.743412e-01
5.743389e-01
0.000000e+00
1.000000e+00
5.726749e-01
5.730780e-01
5.728935e-01
5.728815e-01
5.728828e-01
5.728944e-01
5.729101e-01
5.729329e-01
5.730129e-01
5.730631e-01
5.730659e-01
5.730699e-01
5.730660e-01
5.729736e-01
5.727871e-01
0.000000e+00
1.000000e+00
5.707984e-01
5.717608e-01
5.707837e-01
5.701985e-01
5.697305e-01
5.693948e-01
5.692041e-01
5.691918e-01
5.693582e-01
5.696272e-01
5.699758e-01
5.704294e-01
5.709869e-01
5.716428e-01
5.712620e-01
0.000000e+00
1.000000e+00
5.691702e-01
5.702932e-01
5.687097e-01
5.675684e-01
5.666520e-01
5.659948e-01
5.656311e-01
5.656132e-01
5.658299e-01
5.663460e-01
5.670695e-01
5.679535e-01
5.690388e-01
5.705029e-01
5.693674e-01
0.000000e+00
1.000000e+00
5.677823e-01
5.689291e-01
5.667720e-01
5.651153e-01
5.637888e-01
5.628463e-01
5.623407e-01
5.623121e-01
5.625891e-01
5.633170e-01
5.644038e-01
5.656917e-01
5.672563e-01
5.694932e-01
5.677246e-01
0.000000e+00
1.000000e+00
5.663521e-01
5.677592e-01
5.650379e-01
5.629257e-01
5.612440e-01
5.600632e-01
5.594442e-01
5.594096e-01
5.597567e-01
5.606770e-01
5.620831e-01
5.637347e-01
5.657142e-01
5.685552e-01
5.664773e-01
0.000000e+00
1.000000e+00
5.650280e-01
5.668232e-01
5.635834e-01
5.610946e-01
5.591253e-01
5.577569e-01
5.570512e-01
5.570183e-01
5.574387e-01
5.585270e-01
5.601911e-01
5.621464e-01
5.644666e-01
5.677374e-01
5.655843e-01
0.000000e+00
1.000000e+00
5.640210e-01
5.661502e-01
5.624796e-01
5.597098e-01
5.575294e-01
5.560261e-01
5.552590e-01
5.552316e-01
5.557214e-01
5.569427e-01
5.587926e-01
5.609769e-01
5.635540e-01
5.671120e-01
5.650120e-01
0.000000e+00
1.000000e+00
5.634394e-01
5.657533e-01
5.617882e-01
5.588457e-01
5.565367e-01
5.549515e-01
5.541455e-01
5.541205e-01
5.546664e-01
5.559738e-01
5.579321e-01
5.602620e-01
5.630036e-01
5.667278e-01
5.647224e-01
0.000000e+00
1.000000e+00
5.632053e-01
5.656304e-01
5.615510e-01
5.585500e-01
5.561979e-01
5.545853e-01
5.537656e-01
5.537407e-01
5.543103e-01
5.556478e-01
5.576408e-01
5.600219e-01
5.628211e-01
5.665970e-01
5.646381e-01
0.000000e+00
1.000000e+00
5.773656e-01
5.761872e-01
5.778755e-01
5.792810e-01
5.804899e-01
5.814513e-01
5.821292e-01
5.825109e-01
5.825512e-01
5.822674e-01
5.814829e-01
5.802636e-01
5.787372e-01
5.766532e-01
5.769973e-01
0.000000e+00
1.000000e+00
5.773079e-01
5.761413e-01
5.777960e-01
5.791758e-01
5.803604e-01
5.813001e-01
5.819605e-01
5.823319e-01
5.823682e-01
5.820882e-01
5.813161e-01
5.801172e-01
5.786197e-01
5.765763e-01
5.769392e-01
0.000000e+00
1.000000e+00
5.770790e-01
5.759968e-01
5.775526e-01
5.788556e-01
5.799693e-01
5.808472e-01
5.814588e-01
5.818008e-01
5.818271e-01
5.815567e-01
5.808216e-01
5.796859e-01
5.782757e-01
5.763544e-01
5.766967e-01
0.000000e+00
1.000000e+00
5.767163e-01
5.757391e-01
5.771405e-01
5.783184e-01
5.793196e-01
5.801020e-01
5.806391e-01
5.809348e-01
5.809485e-01
5.806934e-01
5.800189e-01
5.789912e-01
5.777245e-01
5.760047e-01
5.762904e-01
0.000000e+00
1.000000e+00
5.762172e-01
5.753699e-01
5.765658e-01
5.775738e-01
5.784252e-01
5.790839e-01
5.795264e-01
5.797626e-01
5.797651e-01
5.795345e-01
5.789448e-01
5.780672e-01
5.769941e-01
5.755435e-01
5.757274e-01
0.000000e+00
1.000000e+00
5.755849e-01
5.748981e-01
5.758406e-01
5.766385e-01
5.773084e-01
5.778212e-01
5.781560e-01
5.783246e-01
5.783218e-01
5.781282e-01
5.776476e-01
5.769570e-01
5.761183e-01
5.749886e-01
5.750201e-01
0.000000e+00
1.000000e+00
5.748239e-01
5.743440e-01
5.749839e-01
5.755377e-01
5.760002e-01
5.763512e-01
5.765738e-01
5.766731e-01
5.766729e-01
5.765311e-01
5.761851e-01
5.757109e-01
5.751364e-01
5.743605e-01
5.742065e-01
0.000000e+00
1.000000e+00
5.739086e-01
5.737377e-01
5.740247e-01
5.743094e-01
5.745462e-01
5.747246e-01
5.748345e-01
5.748726e-01
5.748783e-01
5.748031e-01
5.746205e-01
5.743808e-01
5.740891e-01
5.736803e-01
5.734220e-01
0.000000e+00
1.000000e+00
5.730222e-01
5.730870e-01
5.729942e-01
5.729930e-01
5.729917e-01
5.729898e-01
5.729853e-01
5.729795e-01
5.730031e-01
5.730165e-01
5.730118e-01
5.730106e-01
5.730097e-01
5.729654e-01
5.728245e-01
0.000000e+00
1.000000e+00
5.720338e-01
5.723872e-01
5.719018e-01
5.716062e-01
5.713659e-01
5.711890e-01
5.710811e-01
5.710570e-01
5.711344e-01
5.712650e-01
5.714344e-01
5.716647e-01
5.719513e-01
5.722886e-01
5.718620e-01
0.000000e+00
1.000000e+00
5.710168e-01
5.716680e-01
5.708223e-01
5.702408e-01
5.697718e-01
5.694316e-01
5.692342e-01
5.692094e-01
5.693415e-01
5.696072e-01
5.699586e-01
5.704104e-01
5.709682e-01
5.716791e-01
5.709693e-01
0.000000e+00
1.000000e+00
5.699929e-01
5.710500e-01
5.697982e-01
5.689483e-01
5.682674e-01
5.677810e-01
5.675132e-01
5.674983e-01
5.676973e-01
5.680913e-01
5.686151e-01
5.692697e-01
5.700744e-01
5.710787e-01
5.704382e-01
0.000000e+00
1.000000e+00
5.690634e-01
5.705019e-01
5.688605e-01
5.677701e-01
5.669045e-01
5.662975e-01
5.659808e-01
5.659864e-01
5.662623e-01
5.667789e-01
5.674583e-01
5.682936e-01
5.693128e-01
5.705527e-01
5.699811e-01
0.000000e+00
1.000000e+00
5.683266e-01
5.700375e-01
5.680568e-01
5.667653e-01
5.657494e-01
5.650495e-01
5.647021e-01
5.647341e-01
5.650892e-01
5.657149e-01
5.665254e-01
5.675131e-01
5.687083e-01
5.701400e-01
5.696176e-01
0.000000e+00
1.000000e+00
5.677941e-01
5.696721e-01
5.674321e-01
5.659884e-01
5.648623e-01
5.640986e-01
5.637354e-01
5.637939e-01
5.642203e-01
5.649332e-01
5.658442e-01
5.669502e-01
5.682771e-01
5.698530e-01
5.693566e-01
0.000000e+00
1.000000e+00
5.674822e-01
5.694287e-01
5.670296e-01
5.654907e-01
5.642981e-01
5.634988e-01
5.631304e-01