<?xml version="1.0"?>
<VTKFile type="StructuredGrid" version="0.1">
  <StructuredGrid WholeExtent="0 16 0 16 0 16">
    <Piece Extent="0 16 0 16 0 16">
      <PointData Scalars="temperature" Vectors="velocity">
        <DataArray type="Float32" Name="temperature" format="ascii">
1.000000e+00
6.317386e-01
5.681913e-01
5.946291e-01
6.064427e-01
6.122954e-01
6.174381e-01
6.210251e-01
6.228220e-01
6.226409e-01
6.204362e-01
6.162449e-01
6.101674e-01
6.022983e-01
5.852904e-01
5.315272e-01
0.000000e+00
1.000000e+00
6.242159e-01
5.746100e-01
5.948280e-01
6.056091e-01
6.114826e-01
6.165497e-01
6.200843e-01
6.218592e-01
6.216688e-01
6.194796e-01
6.153670e-01
6.094675e-01
6.020281e-01
5.912924e-01
5.751625e-01
0.000000e+00
1.000000e+00
6.139423e-01
5.816135e-01
5.946116e-01
6.033119e-01
6.090961e-01
6.139239e-01
6.173004e-01
6.190051e-01
6.188043e-01
6.167115e-01
6.129063e-01
6.075303e-01
6.006838e-01
5.931726e-01
5.909993e-01
0.000000e+00
1.000000e+00
6.049166e-01
5.833791e-01
5.930939e-01
5.999195e-01
6.052381e-01
6.096352e-01
6.127549e-01
6.143580e-01
6.141747e-01
6.123031e-01
6.090302e-01
6.042983e-01
5.979354e-01
5.904525e-01
5.910701e-01
0.000000e+00
1.000000e+00
5.973945e-01
5.826660e-01
5.903066e-01
5.956309e-01
6.001190e-01
6.038585e-01
6.065995e-01
6.080891e-01
6.079672e-01
6.064454e-01
6.038343e-01
5.997609e-01
5.941654e-01
5.871662e-01
5.894881e-01
0.000000e+00
1.000000e+00
5.903043e-01
5.808238e-01
5.864820e-01
5.904755e-01
5.939550e-01
5.968627e-01
5.990727e-01
6.004220e-01
6.004337e-01
5.993930e-01
5.974600e-01
5.941305e-01
5.896815e-01
5.837828e-01
5.867166e-01
0.000000e+00
1.000000e+00
5.833267e-01
5.783181e-01
5.818672e-01
5.845383e-01
5.869396e-01
5.889576e-01
5.905211e-01
5.916143e-01
5.918647e-01
5.914341e-01
5.901095e-01
5.877447e-01
5.847009e-01
5.803403e-01
5.829290e-01
0.000000e+00
1.000000e+00
5.765273e-01
5.753922e-01
5.767394e-01
5.780376e-01
5.793207e-01
5.804782e-01
5.814010e-01
5.820504e-01
5.826130e-01
5.827616e-01
5.821133e-01
5.809351e-01
5.793889e-01
5.768827e-01
5.783301e-01
0.000000e+00
1.000000e+00
5.700688e-01
5.721914e-01
5.712833e-01
5.711222e-01
5.712017e-01
5.714728e-01
5.718618e-01
5.723996e-01
5.732080e-01
5.737016e-01
5.738796e-01
5.739589e-01
5.739184e-01
5.734862e-01
5.731782e-01
0.000000e+00
1.000000e+00
5.640582e-01
5.688554e-01
5.657615e-01
5.641280e-01
5.629842e-01
5.623688e-01
5.622995e-01
5.628134e-01
5.637452e-01
5.647946e-01
5.658854e-01
5.671055e-01
5.685126e-01
5.702249e-01
5.677267e-01
0.000000e+00
1.000000e+00
5.588097e-01
5.653527e-01
5.603930e-01
5.573288e-01
5.550482e-01
5.536639e-01
5.532276e-01
5.536394e-01
5.545028e-01
5.562434e-01
5.583419e-01
5.606389e-01
5.633915e-01
5.672542e-01
5.620451e-01
0.000000e+00
1.000000e+00
5.546528e-01
5.617075e-01
5.553790e-01
5.510043e-01
5.477516e-01
5.457232e-01
5.449189e-01
5.451213e-01
5.461222e-01
5.483345e-01
5.514021e-01
5.547851e-01
5.587858e-01
5.647435e-01
5.562717e-01
0.000000e+00
1.000000e+00
5.518632e-01
5.579624e-01
5.509258e-01
5.454668e-01
5.414166e-01
5.388084e-01
5.376116e-01
5.376538e-01
5.388412e-01
5.414397e-01
5.452763e-01
5.497100e-01
5.549592e-01
5.629531e-01
5.504308e-01
0.000000e+00
1.000000e+00
5.507587e-01
5.543387e-01
5.472650e-01
5.410005e-01
5.362741e-01
5.331325e-01
5.315879e-01
5.315370e-01
5.329127e-01
5.358309e-01
5.402010e-01
5.454656e-01
5.521440e-01
5.624152e-01
5.440851e-01
0.000000e+00
1.000000e+00
5.531227e-01
5.517143e-01
5.446098e-01
5.377699e-01
5.324690e-01
5.288907e-01
5.270906e-01
5.269981e-01
5.285365e-01
5.317095e-01
5.364160e-01
5.420987e-01
5.505255e-01
5.646350e-01
5.362143e-01
0.000000e+00
1.000000e+00
5.764886e-01
5.533542e-01
5.431728e-01
5.357887e-01
5.300834e-01
5.262369e-01
5.242959e-01
5.242000e-01
5.258541e-01
5.291946e-01
5.340911e-01
5.398310e-01
5.500204e-01
5.726688e-01
5.265265e-01
0.000000e+00
1.000000e+00
6.191632e-01
5.572358e-01
5.427524e-01
5.350660e-01
5.292365e-01
5.253164e-01
5.233396e-01
5.232508e-01
5.249470e-01
5.283414e-01
5.332965e-01
5.390165e-01
5.499848e-01
5.802569e-01
5.184960e-01
0.000000e+00
1.000000e+00
6.292576e-01
5.702459e-01
5.942111e-01
6.057765e-01
6.115301e-01
6.165820e-01
6.201042e-01
6.218682e-01
6.216708e-01
6.194730e-01
6.153460e-01
6.094084e-01
6.018223e-01
5.878720e-01
5.545002e-01
0.000000e+00
1.000000e+00
6.233620e-01
5.751349e-01
5.943328e-01
6.049652e-01
6.107364e-01
6.157152e-01
6.191860e-01
6.209263e-01
6.207168e-01
6.185316e-01
6.144853e-01
6.087350e-01
6.015296e-01
5.917303e-01
5.784337e-01
0.000000e+00
1.000000e+00
6.142376e-01
5.811187e-01
5.940911e-01
6.027159e-01
6.083939e-01
6.131414e-01
6.164599e-01
6.181303e-01
6.179078e-01
6.158156e-01
6.120842e-01
6.068602e-01
6.001869e-01
5.928263e-01
5.891986e-01
0.000000e+00
1.000000e+00
6.050064e-01
5.829681e-01
5.926645e-01
5.993937e-01
6.046111e-01
6.089339e-01
6.120029e-01
6.135754e-01
6.133689e-01
6.114989e-01
6.083039e-01
6.037047e-01
5.974729e-01
5.902285e-01
5.902709e-01
0.000000e+00
1.000000e+00
5.972264e-01
5.824248e-01
5.899819e-01
5.952007e-01
5.995967e-01
6.032670e-01
6.059631e-01
6.074274e-01
6.072833e-01
6.057661e-01
6.032271e-01
5.992520e-01
5.937527e-01
5.869560e-01
5.890535e-01
0.000000e+00
1.000000e+00
5.900457e-01
5.806945e-01
5.862545e-01
5.901620e-01
5.935654e-01
5.964100e-01
5.985780e-01
5.999058e-01
5.998977e-01
5.988631e-01
5.969835e-01
5.937183e-01
5.893429e-01
5.835832e-01
5.864464e-01
0.000000e+00
1.000000e+00
5.831185e-01
5.782622e-01
5.817355e-01
5.843521e-01
5.866991e-01
5.886668e-01
5.901912e-01
5.912635e-01
5.914962e-01
5.910685e-01
5.897720e-01
5.874450e-01
5.844542e-01
5.801779e-01
5.827444e-01
0.000000e+00
1.000000e+00
5.764457e-01
5.753919e-01
5.767086e-01
5.779843e-01
5.792377e-01
5.803628e-01
5.812546e-01
5.818831e-01
5.824247e-01
5.825655e-01
5.819230e-01
5.807621e-01
5.792448e-01
5.767809e-01
5.782219e-01
0.000000e+00
1.000000e+00
5.701537e-01
5.722455e-01
5.713605e-01
5.712059e-01
5.712804e-01
5.715371e-01
5.719056e-01
5.724177e-01
5.731986e-01
5.736762e-01
5.738447e-01
5.739196e-01
5.738800e-01
5.734564e-01
5.731537e-01
0.000000e+00
1.000000e+00
5.642341e-01
5.689765e-01
5.659361e-01
5.643347e-01
5.632078e-01
5.625947e-01
5.625162e-01
5.630119e-01
5.639160e-01
5.649361e-01
5.659986e-01
5.671903e-01
5.685707e-01
5.702480e-01
5.678452e-01
0.000000e+00
1.000000e+00
5.590608e-01
5.655282e-01
5.606657e-01
5.576576e-01
5.554140e-01
5.540483e-01
5.536157e-01
5.540167e-01
5.548494e-01
5.565512e-01
5.586090e-01
5.608540e-01
5.635488e-01
5.673332e-01
5.622796e-01
0.000000e+00
1.000000e+00
5.550079e-01
5.619094e-01
5.557407e-01
5.514439e-01
5.482490e-01
5.462578e-01
5.454696e-01
5.456634e-01
5.466243e-01
5.487899e-01
5.518094e-01
5.551224e-01
5.590350e-01
5.648924e-01
5.565417e-01
0.000000e+00
1.000000e+00
5.524163e-01
5.581693e-01
5.513612e-01
5.460034e-01
5.420325e-01
5.394777e-01
5.383058e-01
5.383377e-01
5.394781e-01
5.420212e-01
5.458045e-01
5.501588e-01
5.553018e-01
5.632135e-01
5.505872e-01
0.000000e+00
1.000000e+00
5.517805e-01
5.545817e-01
5.477578e-01
5.416211e-01
5.369922e-01
5.339148e-01
5.323983e-01
5.323347e-01
5.336591e-01
5.365152e-01
5.408244e-01
5.460065e-01
5.525847e-01
5.628412e-01
5.440608e-01
0.000000e+00
1.000000e+00
5.550006e-01
5.521070e-01
5.451525e-01
5.384583e-01
5.332663e-01
5.297564e-01
5.279851e-01
5.278790e-01
5.293652e-01
5.324715e-01
5.371078e-01
5.427098e-01
5.510323e-01
5.650409e-01
5.361421e-01
0.000000e+00
1.000000e+00
5.711755e-01
5.530922e-01
5.437314e-01
5.365257e-01
5.309314e-01
5.271517e-01
5.252393e-01
5.251306e-01
5.267349e-01
5.300083e-01
5.348287e-01
5.405032e-01
5.504653e-01
5.713082e-01
5.281731e-01
0.000000e+00
1.000000e+00
5.952939e-01
5.555415e-01
5.432918e-01
5.358204e-01
5.301001e-01
5.262460e-01
5.242982e-01
5.241983e-01
5.258471e-01
5.291767e-01
5.340545e-01
5.397168e-01
5.503304e-01
5.763616e-01
5.227426e-01
0.000000e+00
1.000000e+00
6.214846e-01
5.755712e-01
5.935508e-01
6.037399e-01
6.092819e-01
6.140620e-01
6.173879e-01
6.190435e-01
6.188079e-01
6.166685e-01
6.127855e-01
6.073227e-01
6.004806e-01
5.913697e-01
5.789609e-01
0.000000e+00
1.000000e+00
6.187539e-01
5.774683e-01
5.934138e-01
6.030071e-01
6.085327e-01
6.132464e-01
6.165264e-01
6.181592e-01
6.179098e-01
6.157800e-01
6.119839e-01
6.067011e-01
6.000743e-01
5.920645e-01
5.828125e-01
0.000000e+00
1.000000e+00
6.118859e-01
5.807280e-01
5.929158e-01
6.009505e-01
6.063278e-01
6.108223e-01
6.139637e-01
6.155319e-01
6.152656e-01
6.132257e-01
6.097463e-01
6.049387e-01
5.986703e-01
5.916525e-01
5.874170e-01
0.000000e+00
1.000000e+00
6.037707e-01
5.821639e-01
5.915400e-01
5.978689e-01
6.027761e-01
6.068597e-01
6.097672e-01
6.112471e-01
6.109951e-01
6.091748e-01
6.062143e-01
6.019534e-01
5.960614e-01
5.892918e-01
5.887437e-01
0.000000e+00
1.000000e+00
5.962323e-01
5.818066e-01
5.890539e-01
5.939542e-01
5.980775e-01
6.015284e-01
6.040770e-01
6.054588e-01
6.052699e-01
6.037979e-01
6.014542e-01
5.977354e-01
5.925216e-01
5.862141e-01
5.879692e-01
0.000000e+00
1.000000e+00
5.892053e-01
5.803034e-01
5.855726e-01
5.892395e-01
5.924264e-01
5.950860e-01
5.971204e-01
5.983727e-01
5.983203e-01
5.973203e-01
5.955779e-01
5.924943e-01
5.883473e-01
5.829726e-01
5.856589e-01
0.000000e+00
1.000000e+00
5.825432e-01
5.780649e-01
5.813278e-01
5.837906e-01
5.859864e-01
5.878144e-01
5.892265e-01
5.902274e-01
5.904132e-01
5.899962e-01
5.887733e-01
5.865625e-01
5.837350e-01
5.797133e-01
5.821981e-01
0.000000e+00
1.000000e+00
5.762448e-01
5.753633e-01
5.765988e-01
5.778084e-01
5.789793e-01
5.800154e-01
5.808249e-01
5.813935e-01
5.818748e-01
5.819884e-01
5.813640e-01
5.802574e-01
5.788267e-01
5.764970e-01
5.779050e-01
0.000000e+00
1.000000e+00
5.703996e-01
5.723879e-01
5.715706e-01
5.714344e-01
5.714967e-01
5.717165e-01
5.720324e-01
5.724761e-01
5.731766e-01
5.736048e-01
5.737470e-01
5.738100e-01
5.737732e-01
5.733772e-01
5.730809e-01
0.000000e+00
1.000000e+00
5.647785e-01
5.693161e-01
5.664482e-01
5.649435e-01
5.638702e-01
5.632685e-01
5.631646e-01
5.636044e-01
5.644263e-01
5.653633e-01
5.663466e-01
5.674584e-01
5.687595e-01
5.703386e-01
5.681419e-01
0.000000e+00
1.000000e+00
5.598444e-01
5.660366e-01
5.614714e-01
5.586334e-01
5.565027e-01
5.551933e-01
5.547663e-01
5.551300e-01
5.558826e-01
5.574689e-01
5.594031e-01
5.615023e-01
5.640324e-01
5.675960e-01
5.628768e-01
0.000000e+00
1.000000e+00
5.560502e-01
5.625483e-01
5.568136e-01
5.527523e-01
5.497263e-01
5.478369e-01
5.470890e-01
5.472597e-01
5.481216e-01
5.501492e-01
5.530108e-01
5.561201e-01
5.597855e-01
5.653443e-01
5.573263e-01
0.000000e+00
1.000000e+00
5.538105e-01
5.589465e-01
5.526586e-01
5.475962e-01
5.438466e-01
5.414396e-01
5.403388e-01
5.403518e-01
5.413761e-01
5.437598e-01
5.473624e-01
5.514686e-01
5.562923e-01
5.638880e-01
5.514489e-01
0.000000e+00
1.000000e+00
5.536286e-01
5.555954e-01
5.492272e-01
5.434392e-01
5.390832e-01
5.361935e-01
5.347685e-01
5.346866e-01
5.358832e-01
5.385602e-01
5.426711e-01
5.475856e-01
5.537621e-01
5.636626e-01
5.451333e-01
0.000000e+00
1.000000e+00
5.562645e-01
5.533036e-01
5.467377e-01
5.404342e-01
5.355644e-01
5.322707e-01
5.306023e-01
5.304781e-01
5.318311e-01
5.347446e-01
5.391661e-01
5.445288e-01
5.522355e-01
5.651673e-01
5.384650e-01
0.000000e+00
1.000000e+00
5.623611e-01
5.528911e-01
5.453148e-01
5.386015e-01
5.333630e-01
5.298101e-01
5.280044e-01
5.278789e-01
5.293507e-01
5.324271e-01
5.370170e-01
5.425181e-01
5.514123e-01
5.678698e-01
5.332564e-01
0.000000e+00
1.000000e+00
5.660133e-01
5.531810e-01
5.448282e-01
5.379393e-01
5.325802e-01
5.289519e-01
5.271110e-01
5.269957e-01
5.285147e-01
5.316475e-01
5.362902e-01
5.418156e-01
5.510589e-01
5.691101e-01
5.316422e-01
0.000000e+00
1.000000e+00
6.113737e-01
5.795957e-01
5.924064e-01
6.004192e-01
6.055906e-01
6.099304e-01
6.129503e-01
6.144420e-01
6.141767e-01
6.121953e-01
6.087740e-01
6.040255e-01
5.978959e-01
5.908510e-01
5.858346e-01
0.000000e+00
1.000000e+00
6.105096e-01
5.797980e-01
5.920821e-01
5.998133e-01
6.049221e-01
6.091982e-01
6.121781e-01
6.136498e-01
6.133698e-01
6.113986e-01
6.080649e-01
6.034610e-01
5.974478e-01
5.905805e-01
5.854280e-01
0.000000e+00
1.000000e+00
6.065073e-01
5.806895e-01
5.912790e-01
5.980852e-01
6.029601e-01
6.070236e-01
6.098777e-01
6.112930e-01
6.109948e-01
6.091095e-01
6.060645e-01
6.018239e-01
5.960632e-01
5.895402e-01
5.863223e-01
0.000000e+00
1.000000e+00
6.006013e-01
5.812310e-01
5.898406e-01
5.954106e-01
5.998069e-01
6.034752e-01
6.061079e-01
6.074444e-01
6.071592e-01
6.054793e-01
6.028846e-01
5.990699e-01
5.936812e-01
5.875200e-01
5.868400e-01
0.000000e+00
1.000000e+00
5.941921e-01
5.808584e-01
5.875526e-01
5.919373e-01
5.956247e-01
5.987065e-01
6.009963e-01
6.022410e-01
6.020162e-01
6.006602e-01
5.985925e-01
5.952291e-01
5.904947e-01
5.848798e-01
5.862125e-01
0.000000e+00
1.000000e+00
5.878148e-01
5.796130e-01
5.844266e-01
5.877244e-01
5.905774e-01
5.929418e-01
5.947495e-01
5.958670e-01
5.957714e-01
5.948488e-01
5.932891e-01
5.904864e-01
5.867381e-01
5.819689e-01
5.842835e-01
0.000000e+00
1.000000e+00
5.816933e-01
5.776764e-01
5.806225e-01
5.828457e-01
5.848102e-01
5.864275e-01
5.876633e-01
5.885395e-01
5.886639e-01
5.882653e-01
5.871452e-01
5.851334e-01
5.825844e-01
5.789928e-01
5.812398e-01
0.000000e+00
1.000000e+00
5.759759e-01
5.752655e-01
5.763803e-01
5.774815e-01
5.785251e-01
5.794299e-01
5.801203e-01
5.805981e-01
5.809873e-01
5.810518e-01
5.804613e-01
5.794520e-01
5.781650e-01
5.760702e-01
5.773578e-01
0.000000e+00
1.000000e+00
5.707832e-01
5.725818e-01
5.718709e-01
5.717615e-01
5.718080e-01
5.719772e-01
5.722208e-01
5.725687e-01
5.731443e-01
5.734943e-01
5.736009e-01
5.736480e-01
5.736165e-01
5.732687e-01
5.729721e-01
0.000000e+00
1.000000e+00
5.656777e-01
5.698234e-01
5.672531e-01
5.659069e-01
5.649273e-01
5.643533e-01
5.642157e-01
5.645663e-01
5.652589e-01
5.660681e-01
5.669317e-01
5.679219e-01
5.690956e-01
5.705205e-01
5.685903e-01
0.000000e+00
1.000000e+00
5.611745e-01
5.668247e-01
5.627588e-01
5.602040e-01
5.582659e-01
5.570518e-01
5.566304e-01
5.569289e-01
5.575677e-01
5.589659e-01
5.606951e-01
5.625724e-01
5.648475e-01
5.680681e-01
5.637990e-01
0.000000e+00
1.000000e+00
5.578138e-01
5.636146e-01
5.585451e-01
5.548790e-01
5.521278e-01
5.503954e-01
5.497016e-01
5.498383e-01
5.505679e-01
5.523719e-01
5.549544e-01
5.577406e-01
5.610305e-01
5.661125e-01
5.586509e-01
0.000000e+00
1.000000e+00
5.559839e-01
5.603806e-01
5.547766e-01
5.501954e-01
5.467893e-01
5.446040e-01
5.436103e-01
5.436092e-01
5.444800e-01
5.466121e-01
5.498856e-01
5.535722e-01
5.578844e-01
5.648999e-01
5.532724e-01
0.000000e+00
1.000000e+00
5.557835e-01
5.575087e-01
5.516497e-01
5.463942e-01
5.424519e-01
5.398526e-01
5.385811e-01
5.384956e-01
5.395207e-01
5.419238e-01
5.456826e-01
5.501190e-01
5.555459e-01
5.645693e-01
5.479653e-01
0.000000e+00
1.000000e+00
5.566301e-01
5.554413e-01
5.493480e-01
5.436165e-01
5.392399e-01
5.362977e-01
5.348147e-01
5.346925e-01
5.358625e-01
5.384845e-01
5.425452e-01
5.474595e-01
5.539705e-01
5.649172e-01
5.434622e-01
0.000000e+00
1.000000e+00
5.572320e-01
5.543807e-01
5.479782e-01
5.419166e-01
5.372362e-01
5.340681e-01
5.324610e-01
5.323393e-01
5.336247e-01
5.363984e-01
5.406175e-01
5.457551e-01
5.529475e-01
5.651603e-01
5.410666e-01
0.000000e+00
1.000000e+00
5.561003e-01
5.540595e-01
5.475035e-01
5.413147e-01
5.365297e-01
5.332906e-01
5.316491e-01
5.315377e-01
5.328711e-01
5.356984e-01
5.399639e-01
5.451616e-01
5.525031e-01
5.648824e-01
5.410376e-01
0.000000e+00
1.000000e+00
6.020284e-01
5.808542e-01
5.901736e-01
5.961193e-01
6.005972e-01
6.043085e-01
6.069261e-01
6.082306e-01
6.079639e-01
6.062556e-01
6.034807e-01
5.995152e-01
5.941041e-01
5.879164e-01
5.867299e-01
0.000000e+00
1.000000e+00
6.017269e-01
5.806457e-01
5.898391e-01
5.956440e-01
6.000404e-01
6.036903e-01
6.062725e-01
6.075607e-01
6.072796e-01
6.055837e-01
6.028880e-01
5.990259e-01
5.937044e-01
5.876460e-01
5.860959e-01
0.000000e+00
1.000000e+00
5.996088e-01
5.804626e-01
5.889637e-01
5.942763e-01
5.984146e-01
6.018604e-01
6.043251e-01
6.055644e-01
6.052660e-01
6.036486e-01
6.011854e-01
5.975745e-01
5.924881e-01
5.867104e-01
5.854600e-01
0.000000e+00
1.000000e+00
5.958264e-01
5.802267e-01
5.875450e-01
5.920986e-01
5.957997e-01
5.988844e-01
6.011354e-01
6.023002e-01
6.020132e-01
6.005745e-01
5.984521e-01
5.951549e-01
5.904666e-01
5.851157e-01
5.848765e-01
0.000000e+00
1.000000e+00
5.910569e-01
5.796732e-01
5.855046e-01
5.891983e-01
5.923067e-01
5.948843e-01
5.968135e-01
5.978832e-01
5.976500e-01
5.964880e-01
5.947620e-01
5.918404e-01
5.877830e-01
5.830253e-01
5.839796e-01
0.000000e+00
1.000000e+00
5.858358e-01
5.786425e-01
5.828331e-01
5.856450e-01
5.880600e-01
5.900355e-01
5.915342e-01
5.924709e-01
5.923496e-01
5.915534e-01
5.902151e-01
5.877905e-01
5.846026e-01
5.806137e-01
5.823931e-01
0.000000e+00
1.000000e+00
5.805765e-01
5.770821e-01
5.796167e-01
5.815210e-01
5.831849e-01
5.845328e-01
5.855415e-01
5.862513e-01
5.863149e-01
5.859502e-01
5.849647e-01
5.832334e-01
5.810695e-01
5.780619e-01
5.799220e-01
0.000000e+00
1.000000e+00
5.756341e-01
5.750731e-01
5.760302e-01
5.769817e-01
5.778602e-01
5.786017e-01
5.791485e-01
5.795147e-01
5.797944e-01
5.798014e-01
5.792664e-01
5.783969e-01
5.773055e-01
5.755366e-01
5.766370e-01
0.000000e+00
1.000000e+00
5.712643e-01
5.727909e-01
5.722152e-01
5.721372e-01
5.721666e-01
5.722797e-01
5.724424e-01
5.726813e-01
5.731058e-01
5.733608e-01
5.734291e-01
5.734593e-01
5.734349e-01
5.731508e-01
5.728565e-01
0.000000e+00
1.000000e+00
5.668650e-01
5.704455e-01
5.682816e-01
5.671476e-01
5.663018e-01
5.657787e-01
5.656111e-01
5.658539e-01
5.663880e-01
5.670371e-01
5.677487e-01
5.685818e-01
5.695839e-01
5.708024e-01
5.691826e-01
0.000000e+00
1.000000e+00
5.629897e-01
5.678307e-01
5.644396e-01
5.622711e-01
5.606038e-01
5.595303e-01
5.591236e-01
5.593416e-01
5.598469e-01
5.610012e-01
5.624538e-01
5.640418e-01
5.659809e-01
5.687502e-01
5.650096e-01
0.000000e+00
1.000000e+00
5.602350e-01
5.650574e-01
5.608315e-01
5.577088e-01
5.553365e-01
5.538184e-01
5.531971e-01
5.533000e-01
5.538804e-01
5.553942e-01
5.575845e-01
5.599382e-01
5.627393e-01
5.671731e-01
5.605058e-01
0.000000e+00
1.000000e+00
5.586995e-01
5.623931e-01
5.575983e-01
5.536746e-01
5.507298e-01
5.488362e-01
5.479873e-01
5.479882e-01
5.486860e-01
5.504968e-01
5.533006e-01
5.564043e-01
5.600372e-01
5.661550e-01
5.560682e-01
0.000000e+00
1.000000e+00
5.578620e-01
5.601271e-01
5.548993e-01
5.503610e-01
5.469602e-01
5.447407e-01
5.436832e-01
5.436223e-01
5.444521e-01
5.465118e-01
5.497664e-01
5.535081e-01
5.579427e-01
5.655334e-01
5.522515e-01
0.000000e+00
1.000000e+00
5.569420e-01
5.584523e-01
5.528795e-01
5.479021e-01
5.441539e-01
5.416735e-01
5.404557e-01
5.403701e-01
5.413282e-01
5.435886e-01
5.471371e-01
5.513277e-01
5.564259e-01
5.650148e-01
5.496360e-01
0.000000e+00
1.000000e+00
5.556705e-01
5.575140e-01
5.516525e-01
5.463925e-01
5.424103e-01
5.397538e-01
5.384352e-01
5.383528e-01
5.394182e-01
5.418147e-01
5.455159e-01
5.499551e-01
5.554395e-01
5.644099e-01
5.486480e-01
0.000000e+00
1.000000e+00
5.545115e-01
5.572686e-01
5.512345e-01
5.458705e-01
5.418041e-01
5.390870e-01
5.377369e-01
5.376635e-01
5.387752e-01
5.412204e-01
5.449631e-01
5.494761e-01
5.550576e-01
5.639886e-01
5.488412e-01
0.000000e+00
1.000000e+00
5.934944e-01
5.802442e-01
5.868122e-01
5.910353e-01
5.945283e-01
5.974183e-01
5.995229e-01
6.006383e-01
6.004225e-01
5.991146e-01
5.970845e-01
5.938937e-01
5.894721e-01
5.842449e-01
5.852991e-01
0.000000e+00
1.000000e+00
5.933012e-01
5.800527e-01
5.865500e-01
5.906861e-01
5.941077e-01
5.969414e-01
5.990129e-01
6.001152e-01
5.998869e-01
5.985930e-01
5.966239e-01
5.935010e-01
5.891533e-01
5.840582e-01
5.849345e-01
0.000000e+00
1.000000e+00
5.921473e-01
5.796472e-01
5.858087e-01
5.896711e-01
5.928783e-01
5.955364e-01
5.974974e-01
5.985547e-01
5.983107e-01
5.970830e-01
5.952726e-01
5.923206e-01
5.881922e-01
5.834007e-01
5.840770e-01
0.000000e+00
1.000000e+00
5.899608e-01
5.790831e-01
5.846001e-01
5.880251e-01
5.908925e-01
5.932578e-01
5.950216e-01
5.960004e-01
5.957636e-01
5.946734e-01
5.930790e-01
5.903679e-01
5.866217e-01
5.822710e-01
5.829190e-01
0.000000e+00
1.000000e+00
5.869006e-01
5.783676e-01
5.829304e-01
5.857949e-01
5.882156e-01
5.901893e-01
5.916708e-01
5.925417e-01
5.923452e-01
5.914622e-01
5.901185e-01
5.877310e-01
5.845375e-01
5.807550e-01
5.816018e-01
0.000000e+00
1.000000e+00
5.832097e-01
5.774625e-01
5.808175e-01
5.830366e-01
5.849298e-01
5.864477e-01
5.875769e-01
5.883036e-01
5.881904e-01
5.875764e-01
5.864927e-01
5.845406e-01
5.820502e-01
5.789472e-01
5.801117e-01
0.000000e+00
1.000000e+00
5.791806e-01
5.762797e-01
5.783126e-01
5.798258e-01
5.811323e-01
5.821698e-01
5.829188e-01
5.834377e-01
5.834586e-01
5.831538e-01
5.823360e-01
5.809604e-01
5.792707e-01
5.769585e-01
5.782524e-01
0.000000e+00
1.000000e+00
5.752186e-01
5.747581e-01
5.755237e-01
5.762863e-01
5.769702e-01
5.775291e-01
5.779223e-01
5.781701e-01
5.783420e-01
5.782993e-01
5.778463e-01
5.771559e-01
5.763031e-01
5.749363e-01
5.757702e-01
0.000000e+00
1.000000e+00
5.717990e-01
5.729738e-01
5.725499e-01
5.725033e-01
5.725175e-01
5.725778e-01
5.726638e-01
5.727969e-01
5.730665e-01
5.732243e-01
5.732574e-01
5.732726e-01
5.732561e-01
5.730458e-01
5.727570e-01
0.000000e+00
1.000000e+00
5.682762e-01
5.711250e-01
5.694531e-01
5.685739e-01
5.678993e-01
5.674562e-01
5.672741e-01
5.674090e-01
5.677768e-01
5.682504e-01
5.687878e-01
5.694353e-01
5.702272e-01
5.711926e-01
5.699027e-01
0.000000e+00
1.000000e+00
5.652479e-01
5.689967e-01
5.664075e-01
5.647111e-01
5.633863e-01
5.625033e-01
5.621320e-01
5.622703e-01
5.626395e-01
5.635147e-01
5.646347e-01
5.658778e-01
5.674110e-01
5.696375e-01
5.664698e-01
0.000000e+00
1.000000e+00
5.631594e-01
5.668237e-01
5.635421e-01
5.610890e-01
5.591941e-01
5.579516e-01
5.574273e-01
5.575098e-01
5.579414e-01
5.591210e-01
5.608252e-01
5.626562e-01
5.648687e-01
5.684557e-01
5.629059e-01
0.000000e+00
1.000000e+00
5.615458e-01
5.648564e-01
5.609660e-01
5.578595e-01
5.554928e-01
5.539582e-01
5.532891e-01
5.533215e-01
5.538470e-01
5.552890e-01
5.574963e-01
5.598853e-01
5.627127e-01
5.675197e-01
5.597976e-01
0.000000e+00
1.000000e+00
5.598857e-01
5.632430e-01
5.587979e-01
5.551680e-01
5.524306e-01
5.506612e-01
5.498665e-01
5.498737e-01
5.505070e-01
5.521746e-01
5.547717e-01
5.576354e-01
5.609876e-01
5.666589e-01
5.574976e-01
0.000000e+00
1.000000e+00
5.582067e-01
5.620831e-01
5.571539e-01
5.531423e-01
5.501344e-01
5.481871e-01
5.472961e-01
5.472999e-01
5.480418e-01
5.498898e-01
5.527528e-01
5.559674e-01
5.597169e-01
5.658608e-01
5.561373e-01
0.000000e+00
1.000000e+00
5.569283e-01
5.614573e-01
5.561369e-01
5.518917e-01
5.487105e-01
5.466434e-01
5.456860e-01
5.456981e-01
5.465342e-01
5.485004e-01
5.515049e-01
5.549319e-01
5.589292e-01
5.652495e-01
5.556472e-01
0.000000e+00
1.000000e+00
5.562712e-01
5.613033e-01
5.557899e-01
5.514649e-01
5.482223e-01
5.461112e-01
5.451297e-01
5.451488e-01
5.460270e-01
5.480341e-01
5.510777e-01
5.545743e-01
5.586538e-01
5.649833e-01
5.556749e-01
0.000000e+00
1.000000e+00
5.855368e-01
5.784461e-01
5.824946e-01
5.852432e-01
5.876147e-01
5.895642e-01
5.910274e-01
5.919250e-01
5.918520e-01
5.910825e-01
5.897624e-01
5.874315e-01
5.843454e-01
5.804112e-01
5.823684e-01
0.000000e+00
1.000000e+00
5.853902e-01
5.783429e-01
5.823286e-01
5.850226e-01
5.873445e-01
5.892508e-01
5.906835e-01
5.915680e-01
5.914850e-01
5.907283e-01
5.894421e-01
5.871508e-01
5.841183e-01
5.802778e-01
5.821906e-01
0.000000e+00
1.000000e+00
5.847457e-01
5.780560e-01
5.818341e-01
5.843686e-01
5.865466e-01
5.883263e-01
5.896657e-01
5.905038e-01
5.904043e-01
5.896915e-01
5.884880e-01
5.863116e-01
5.834460e-01
5.798554e-01
5.815851e-01
0.000000e+00
1.000000e+00
5.836151e-01
5.775796e-01
5.810069e-01
5.832895e-01
5.852432e-01
5.868247e-01
5.880087e-01
5.887622e-01
5.886571e-01
5.880230e-01
5.869287e-01
5.849405e-01
5.823622e-01
5.791510e-01
5.805818e-01
0.000000e+00
1.000000e+00
5.819921e-01
5.769423e-01
5.798622e-01
5.818074e-01
5.834664e-01
5.847905e-01
5.857663e-01
5.864029e-01
5.863110e-01
5.857904e-01
5.848297e-01
5.831063e-01
5.809254e-01
5.781951e-01
5.792661e-01
0.000000e+00
1.000000e+00
5.799110e-01
5.761814e-01
5.784240e-01
5.799559e-01
5.812613e-01
5.822873e-01
5.830196e-01
5.835114e-01
5.834577e-01
5.830822e-01
5.822786e-01
5.809008e-01
5.792054e-01
5.770300e-01
5.777851e-01
0.000000e+00
1.000000e+00
5.774358e-01
5.753145e-01
5.767297e-01
5.777858e-01
5.786889e-01
5.793930e-01
5.798747e-01
5.801944e-01
5.802069e-01
5.799957e-01
5.793843e-01
5.784306e-01
5.772780e-01
5.757099e-01
5.763003e-01
0.000000e+00
1.000000e+00
5.747277e-01
5.743008e-01
5.748441e-01
5.753819e-01
5.758500e-01
5.762196e-01
5.764644e-01
5.766002e-01
5.766865e-01
5.766183e-01
5.762788e-01
5.758005e-01
5.752175e-01
5.743065e-01
5.747364e-01
0.000000e+00
1.000000e+00
5.723453e-01
5.730905e-01
5.728227e-01
5.728027e-01
5.728058e-01
5.728250e-01
5.728508e-01
5.728974e-01
5.730322e-01
5.731058e-01
5.731124e-01
5.731165e-01
5.731075e-01
5.729756e-01
5.727051e-01
0.000000e+00
1.000000e+00
5.698698e-01
5.718028e-01
5.706802e-01
5.700840e-01
5.696128e-01
5.692834e-01
5.691163e-01
5.691622e-01
5.693788e-01
5.696784e-01
5.700304e-01
5.704722e-01
5.710221e-01
5.717002e-01
5.707183e-01
0.000000e+00
1.000000e+00
5.678582e-01
5.702769e-01
5.685449e-01
5.673830e-01
5.664621e-01
5.658248e-01
5.655234e-01
5.655971e-01
5.658440e-01
5.664299e-01
5.671780e-01
5.680345e-01
5.691026e-01
5.706920e-01
5.681381e-01
0.000000e+00
1.000000e+00
5.661344e-01
5.688465e-01
5.665296e-01
5.648407e-01
5.635144e-01
5.626177e-01
5.622198e-01
5.623009e-01
5.626040e-01
5.634316e-01
5.645736e-01
5.658214e-01
5.673588e-01
5.698147e-01
5.659079e-01
0.000000e+00
1.000000e+00
5.642833e-01
5.676186e-01
5.646990e-01
5.625434e-01
5.608733e-01
5.597717e-01
5.593028e-01
5.593983e-01
5.597780e-01
5.608286e-01
5.623202e-01
5.639218e-01
5.658636e-01
5.689567e-01
5.642804e-01
0.000000e+00
1.000000e+00
5.625173e-01
5.666342e-01
5.631397e-01
5.606000e-01
5.586570e-01
5.574006e-01
5.568816e-01
5.570030e-01
5.574715e-01
5.587186e-01
5.604931e-01
5.623925e-01
5.646639e-01
5.681764e-01
5.631653e-01
0.000000e+00
1.000000e+00
5.611447e-01
5.659252e-01
5.619398e-01
5.591162e-01
5.569762e-01
5.556111e-01
5.550579e-01
5.552090e-01
5.557682e-01
5.571709e-01
5.591482e-01
5.612751e-01
5.637958e-01
5.675728e-01
5.624847e-01
0.000000e+00
1.000000e+00
5.603383e-01
5.655099e-01
5.611807e-01
5.581854e-01
5.559266e-01
5.544941e-01
5.539163e-01
5.540880e-01
5.547258e-01
5.562263e-01
5.583204e-01
5.605971e-01
5.632816e-01
5.672081e-01
5.621627e-01
0.000000e+00
1.000000e+00
5.600054e-01
5.653848e-01
5.609176e-01
5.578655e-01
5.555670e-01
5.541118e-01
5.535238e-01
5.537023e-01
5.543747e-01
5.559080e-01
5.580393e-01
5.603706e-01
5.631142e-01
5.670850e-01
5.620788e-01
0.000000e+00
1.000000e+00
5.781792e-01
5.758580e-01
5.775032e-01
5.788523e-01
5.800699e-01
5.810825e-01
5.818527e-01
5.823810e-01
5.825676e-01
5.824506e-01
5.817496e-01
5.805173e-01
5.789548e-01
5.766436e-01
5.782989e-01
0.000000e+00
1.000000e+00
5.781150e-01
5.758275e-01
5.774413e-01
5.787663e-01
5.799581e-01
5.809456e-01
5.816933e-01
5.822068e-01
5.823844e-01
5.822671e-01
5.815755e-01
5.803619e-01
5.788280e-01
5.765624e-01
5.782291e-01
0.000000e+00
1.000000e+00
5.778448e-01
5.757230e-01
5.772435e-01
5.784968e-01
5.796148e-01
5.805319e-01
5.812182e-01
5.816891e-01
5.818428e-01
5.817219e-01
5.810579e-01
5.799044e-01
5.784585e-01
5.763313e-01
5.779066e-01
0.000000e+00
1.000000e+00
5.774246e-01
5.755175e-01
5.768929e-01
5.780296e-01
5.790328e-01
5.798444e-01
5.804393e-01
5.808429e-01
5.809639e-01
5.808366e-01
5.802173e-01
5.791699e-01
5.778716e-01
5.759736e-01
5.773556e-01
0.000000e+00
1.000000e+00
5.768442e-01
5.752055e-01
5.763866e-01
5.773641e-01
5.782161e-01
5.788939e-01
5.793752e-01
5.796928e-01
5.797801e-01
5.796504e-01
5.790959e-01
5.781991e-01
5.771017e-01
5.755080e-01
5.765886e-01
0.000000e+00
1.000000e+00
5.760998e-01
5.747896e-01
5.757269e-01
5.765054e-01
5.771755e-01
5.776990e-01
5.780546e-01
5.782765e-01
5.783367e-01
5.782147e-01
5.777492e-01
5.770429e-01
5.761884e-01
5.749535e-01
5.756254e-01
0.000000e+00
1.000000e+00
5.751796e-01
5.742876e-01
5.749245e-01
5.754684e-01
5.759312e-01
5.762873e-01
5.765176e-01
5.766428e-01
5.766879e-01
5.765887e-01
5.762428e-01
5.757591e-01
5.751763e-01
5.743305e-01
5.745213e-01
0.000000e+00
1.000000e+00
5.740317e-01
5.737329e-01
5.740045e-01
5.742862e-01
5.745232e-01
5.747030e-01
5.748133e-01
5.748551e-01
5.748919e-01
5.748334e-01
5.746469e-01
5.744043e-01
5.741088e-01
5.736584e-01
5.734760e-01
0.000000e+00
1.000000e+00
5.729076e-01
5.731231e-01
5.729923e-01
5.729897e-01
5.729870e-01
5.729826e-01
5.729738e-01
5.729675e-01
5.730085e-01
5.730265e-01
5.730199e-01
5.730182e-01
5.730147e-01
5.729566e-01
5.727357e-01
0.000000e+00
1.000000e+00
5.716117e-01
5.724257e-01
5.718734e-01
5.715732e-01
5.713298e-01
5.711510e-01
5.710447e-01
5.710388e-01
5.711391e-01
5.712792e-01
5.714456e-01
5.716709e-01
5.719542e-01
5.723188e-01
5.714525e-01
0.000000e+00
1.000000e+00
5.702843e-01
5.716845e-01
5.707471e-01
5.701559e-01
5.696828e-01
5.693461e-01
5.691674e-01
5.691883e-01
5.693493e-01
5.696454e-01
5.700012e-01
5.704412e-01
5.709916e-01
5.717645e-01
5.702518e-01
0.000000e+00
1.000000e+00
5.688790e-01
5.710544e-01
5.696574e-01
5.687902e-01
5.681045e-01
5.676322e-01
5.674094e-01
5.674698e-01
5.677150e-01
5.681606e-01
5.686983e-01
5.693328e-01
5.701235e-01
5.711856e-01
5.696162e-01
0.000000e+00
1.000000e+00
5.675779e-01
5.704805e-01
5.686313e-01
5.675148e-01
5.666459e-01
5.660702e-01
5.658310e-01
5.659458e-01
5.662950e-01
5.668870e-01
5.675917e-01
5.683997e-01
5.693979e-01
5.706799e-01
5.690815e-01
0.000000e+00
1.000000e+00
5.665321e-01
5.699792e-01
5.677293e-01
5.664031e-01
5.653876e-01
5.647391e-01
5.645020e-01
5.646781e-01
5.651395e-01
5.658640e-01
5.667116e-01
5.676679e-01
5.688367e-01
5.702967e-01
5.686627e-01
0.000000e+00
1.000000e+00
5.657747e-01
5.695720e-01
5.670112e-01
5.655262e-01
5.644058e-01
5.637126e-01
5.634885e-01
5.637215e-01
5.642876e-01
5.651187e-01
5.660786e-01
5.671524e-01
5.684504e-01
5.700445e-01
5.683675e-01
0.000000e+00
1.000000e+00
5.653379e-01
5.692928e-01
5.665390e-01
5.649547e-01
5.637730e-01
5.630589e-01
5.628493e-01