<?xml version="1.0"?>
<VTKFile type="StructuredGrid" version="0.1">
  <StructuredGrid WholeExtent="0 16 0 16 0 16">
    <Piece Extent="0 16 0 16 0 16">
      <PointData Scalars="temperature" Vectors="velocity">
        <DataArray type="Float32" Name="temperature" format="ascii">
1.000000e+00
5.993605e-01
5.827012e-01
5.999747e-01
6.075231e-01
6.138240e-01
6.186284e-01
6.217271e-01
6.229664e-01
6.222594e-01
6.196203e-01
6.151321e-01
6.089451e-01
6.012988e-01
5.896864e-01
5.640854e-01
0.000000e+00
1.000000e+00
5.967426e-01
5.848086e-01
5.994058e-01
6.068301e-01
6.130213e-01
6.177401e-01
6.207845e-01
6.220040e-01
6.213054e-01
6.187076e-01
6.143045e-01
6.082506e-01
6.008014e-01
5.914807e-01
5.798751e-01
0.000000e+00
1.000000e+00
5.929852e-01
5.868398e-01
5.978018e-01
6.048004e-01
6.106503e-01
6.151118e-01
6.179942e-01
6.191530e-01
6.184858e-01
6.160282e-01
6.119061e-01
6.062660e-01
5.993056e-01
5.915334e-01
5.851148e-01
0.000000e+00
1.000000e+00
5.893034e-01
5.866356e-01
5.952862e-01
6.015397e-01
6.068019e-01
6.108357e-01
6.134560e-01
6.145201e-01
6.139163e-01
6.117098e-01
6.080591e-01
6.030235e-01
5.967021e-01
5.894451e-01
5.844017e-01
0.000000e+00
1.000000e+00
5.859460e-01
5.850407e-01
5.919241e-01
5.971959e-01
6.016431e-01
6.050767e-01
6.073364e-01
6.082824e-01
6.077767e-01
6.059274e-01
6.028865e-01
5.985815e-01
5.931420e-01
5.867536e-01
5.830444e-01
0.000000e+00
1.000000e+00
5.825929e-01
5.826175e-01
5.877924e-01
5.919141e-01
5.953839e-01
5.980718e-01
5.998689e-01
6.006737e-01
6.003090e-01
5.989125e-01
5.965595e-01
5.931322e-01
5.888419e-01
5.836876e-01
5.811006e-01
0.000000e+00
1.000000e+00
5.791529e-01
5.796368e-01
5.830351e-01
5.858635e-01
5.882514e-01
5.901059e-01
5.913582e-01
5.919707e-01
5.918012e-01
5.909365e-01
5.893107e-01
5.869323e-01
5.839822e-01
5.803272e-01
5.786792e-01
0.000000e+00
1.000000e+00
5.756760e-01
5.762890e-01
5.778531e-01
5.792790e-01
5.805160e-01
5.815030e-01
5.821813e-01
5.825234e-01
5.825865e-01
5.822649e-01
5.814431e-01
5.802450e-01
5.787407e-01
5.767760e-01
5.758918e-01
0.000000e+00
1.000000e+00
5.722620e-01
5.727292e-01
5.724283e-01
5.723770e-01
5.724041e-01
5.724941e-01
5.726220e-01
5.727970e-01
5.730689e-01
5.732345e-01
5.732921e-01
5.733240e-01
5.733083e-01
5.731561e-01
5.728769e-01
0.000000e+00
1.000000e+00
5.689831e-01
5.691175e-01
5.669851e-01
5.654496e-01
5.642587e-01
5.634485e-01
5.630474e-01
5.630905e-01
5.635290e-01
5.642562e-01
5.652226e-01
5.664455e-01
5.678978e-01
5.695916e-01
5.697668e-01
0.000000e+00
1.000000e+00
5.659875e-01
5.655477e-01
5.617302e-01
5.587650e-01
5.564120e-01
5.547609e-01
5.538781e-01
5.537803e-01
5.543086e-01
5.556201e-01
5.575079e-01
5.598743e-01
5.627180e-01
5.662386e-01
5.666270e-01
0.000000e+00
1.000000e+00
5.634387e-01
5.621290e-01
5.568583e-01
5.525813e-01
5.491800e-01
5.467782e-01
5.454504e-01
5.451778e-01
5.458617e-01
5.476486e-01
5.503946e-01
5.538542e-01
5.579713e-01
5.632562e-01
5.635531e-01
0.000000e+00
1.000000e+00
5.614796e-01
5.589626e-01
5.525577e-01
5.471551e-01
5.428581e-01
5.397991e-01
5.380584e-01
5.376338e-01
5.384806e-01
5.406788e-01
5.441381e-01
5.485940e-01
5.538523e-01
5.608341e-01
5.605904e-01
0.000000e+00
1.000000e+00
5.602504e-01
5.561758e-01
5.490210e-01
5.427248e-01
5.376911e-01
5.340743e-01
5.319829e-01
5.314445e-01
5.324374e-01
5.349807e-01
5.389887e-01
5.442521e-01
5.505036e-01
5.592637e-01
5.576074e-01
0.000000e+00
1.000000e+00
5.601810e-01
5.541513e-01
5.464390e-01
5.394685e-01
5.338604e-01
5.298136e-01
5.274606e-01
5.268463e-01
5.279552e-01
5.307643e-01
5.351661e-01
5.409835e-01
5.479897e-01
5.591814e-01
5.543071e-01
0.000000e+00
1.000000e+00
5.680200e-01
5.540329e-01
5.449013e-01
5.374671e-01
5.314882e-01
5.271761e-01
5.246668e-01
5.240129e-01
5.251987e-01
5.281758e-01
5.328213e-01
5.389479e-01
5.463608e-01
5.616130e-01
5.507959e-01
0.000000e+00
1.000000e+00
5.831602e-01
5.549304e-01
5.443676e-01
5.367721e-01
5.306737e-01
5.262776e-01
5.237191e-01
5.230544e-01
5.242675e-01
5.273003e-01
5.320282e-01
5.382541e-01
5.457740e-01
5.642158e-01
5.482139e-01
0.000000e+00
1.000000e+00
5.984059e-01
5.831767e-01
5.994328e-01
6.068504e-01
6.130356e-01
6.177501e-01
6.207906e-01
6.220067e-01
6.213060e-01
6.187054e-01
6.142974e-01
6.082308e-01
6.007576e-01
5.903067e-01
5.723612e-01
0.000000e+00
1.000000e+00
5.963336e-01
5.847485e-01
5.988790e-01
6.061718e-01
6.122497e-01
6.168805e-01
6.198676e-01
6.210635e-01
6.203700e-01
6.178090e-01
6.134855e-01
6.075554e-01
6.002763e-01
5.914218e-01
5.809425e-01
0.000000e+00
1.000000e+00
5.929748e-01
5.864310e-01
5.973124e-01
6.041812e-01
6.099240e-01
6.143036e-01
6.171326e-01
6.182683e-01
6.176047e-01
6.151803e-01
6.111380e-01
6.056211e-01
5.988097e-01
5.911954e-01
5.843524e-01
0.000000e+00
1.000000e+00
5.892409e-01
5.862837e-01
5.948534e-01
6.009861e-01
6.061499e-01
6.101095e-01
6.126823e-01
6.137255e-01
6.131236e-01
6.109475e-01
6.073736e-01
6.024479e-01
5.962505e-01
5.891665e-01
5.840320e-01
0.000000e+00
1.000000e+00
5.858080e-01
5.847858e-01
5.915642e-01
5.967313e-01
6.010917e-01
6.044606e-01
6.066796e-01
6.076081e-01
6.071031e-01
6.052811e-01
6.023077e-01
5.980907e-01
5.927528e-01
5.865109e-01
5.828114e-01
0.000000e+00
1.000000e+00
5.824373e-01
5.824404e-01
5.875179e-01
5.915576e-01
5.949574e-01
5.975914e-01
5.993544e-01
6.001451e-01
5.997803e-01
5.984063e-01
5.961049e-01
5.927424e-01
5.885317e-01
5.834850e-01
5.809425e-01
0.000000e+00
1.000000e+00
5.790321e-01
5.795260e-01
5.828548e-01
5.856280e-01
5.879669e-01
5.897819e-01
5.910072e-01
5.916081e-01
5.914373e-01
5.905878e-01
5.889942e-01
5.866586e-01
5.837642e-01
5.801791e-01
5.785698e-01
0.000000e+00
1.000000e+00
5.756184e-01
5.762412e-01
5.777735e-01
5.791726e-01
5.803840e-01
5.813486e-01
5.820095e-01
5.823424e-01
5.824005e-01
5.820838e-01
5.812755e-01
5.800987e-01
5.786234e-01
5.766943e-01
5.758325e-01
0.000000e+00
1.000000e+00
5.722855e-01
5.727470e-01
5.724541e-01
5.724050e-01
5.724303e-01
5.725154e-01
5.726365e-01
5.728028e-01
5.730654e-01
5.732257e-01
5.732803e-01
5.733106e-01
5.732955e-01
5.731464e-01
5.728713e-01
0.000000e+00
1.000000e+00
5.690639e-01
5.692060e-01
5.671125e-01
5.656069e-01
5.644373e-01
5.636394e-01
5.632423e-01
5.632817e-01
5.637086e-01
5.644186e-01
5.653641e-01
5.665617e-01
5.679864e-01
5.696466e-01
5.698355e-01
0.000000e+00
1.000000e+00
5.661176e-01
5.657014e-01
5.619570e-01
5.590482e-01
5.567382e-01
5.551158e-01
5.542480e-01
5.541514e-01
5.546650e-01
5.559490e-01
5.578007e-01
5.601191e-01
5.629069e-01
5.663570e-01
5.667584e-01
0.000000e+00
1.000000e+00
5.636243e-01
5.623349e-01
5.571761e-01
5.529800e-01
5.496422e-01
5.472855e-01
5.459832e-01
5.457151e-01
5.463786e-01
5.481287e-01
5.508259e-01
5.542183e-01
5.582530e-01
5.634404e-01
5.637157e-01
0.000000e+00
1.000000e+00
5.617475e-01
5.592078e-01
5.529539e-01
5.476545e-01
5.434402e-01
5.404408e-01
5.387345e-01
5.383158e-01
5.391378e-01
5.412903e-01
5.446895e-01
5.490641e-01
5.542183e-01
5.610972e-01
5.607278e-01
0.000000e+00
1.000000e+00
5.606875e-01
5.564662e-01
5.494821e-01
5.433082e-01
5.383734e-01
5.348274e-01
5.327762e-01
5.322444e-01
5.332095e-01
5.357001e-01
5.396368e-01
5.448090e-01
5.509418e-01
5.596212e-01
5.577036e-01
0.000000e+00
1.000000e+00
5.609802e-01
5.545021e-01
5.469485e-01
5.401160e-01
5.346182e-01
5.306493e-01
5.283401e-01
5.277334e-01
5.288129e-01
5.315645e-01
5.358857e-01
5.416028e-01
5.484850e-01
5.595506e-01
5.544008e-01
0.000000e+00
1.000000e+00
5.662213e-01
5.541742e-01
5.454426e-01
5.381574e-01
5.322933e-01
5.280620e-01
5.255985e-01
5.249530e-01
5.261095e-01
5.290271e-01
5.335869e-01
5.396071e-01
5.468993e-01
5.613403e-01
5.514218e-01
0.000000e+00
1.000000e+00
5.747100e-01
5.546947e-01
5.449222e-01
5.374772e-01
5.314943e-01
5.271798e-01
5.246679e-01
5.240125e-01
5.251968e-01
5.281706e-01
5.328109e-01
5.389277e-01
5.463306e-01
5.630110e-01
5.495952e-01
0.000000e+00
1.000000e+00
5.954740e-01
5.844942e-01
5.978610e-01
6.048696e-01
6.107088e-01
6.151551e-01
6.180213e-01
6.191644e-01
6.184865e-01
6.160130e-01
6.118623e-01
6.061854e-01
5.992244e-01
5.908540e-01
5.808865e-01
0.000000e+00
1.000000e+00
5.944510e-01
5.850034e-01
5.973490e-01
6.042310e-01
6.099679e-01
6.143365e-01
6.171533e-01
6.182770e-01
6.176050e-01
6.151678e-01
6.111012e-01
6.055579e-01
5.987565e-01
5.909053e-01
5.821298e-01
0.000000e+00
1.000000e+00
5.918335e-01
5.857132e-01
5.958936e-01
6.023612e-01
6.077773e-01
6.119097e-01
6.145789e-01
6.156462e-01
6.150008e-01
6.126930e-01
6.088999e-01
6.037416e-01
5.973356e-01
5.901390e-01
5.833514e-01
0.000000e+00
1.000000e+00
5.885179e-01
5.854365e-01
5.935932e-01
5.993620e-01
6.042252e-01
6.079592e-01
6.103880e-01
6.113693e-01
6.107816e-01
6.087118e-01
6.053662e-01
6.007484e-01
5.949027e-01
5.882522e-01
5.832120e-01
0.000000e+00
1.000000e+00
5.852150e-01
5.840779e-01
5.905061e-01
5.953666e-01
5.994682e-01
6.026401e-01
6.047336e-01
6.056083e-01
6.051135e-01
6.033834e-01
6.006023e-01
5.966357e-01
5.915985e-01
5.857526e-01
5.821869e-01
0.000000e+00
1.000000e+00
5.819458e-01
5.819140e-01
5.867031e-01
5.905047e-01
5.937001e-01
5.961746e-01
5.978333e-01
5.985785e-01
5.982189e-01
5.969173e-01
5.947601e-01
5.915886e-01
5.876162e-01
5.828787e-01
5.804731e-01
0.000000e+00
1.000000e+00
5.786877e-01
5.791859e-01
5.823156e-01
5.849274e-01
5.871252e-01
5.888259e-01
5.899725e-01
5.905356e-01
5.903630e-01
5.895590e-01
5.880574e-01
5.858509e-01
5.831223e-01
5.797464e-01
5.782462e-01
0.000000e+00
1.000000e+00
5.754634e-01
5.760901e-01
5.775317e-01
5.788518e-01
5.799896e-01
5.808903e-01
5.815027e-01
5.818087e-01
5.818532e-01
5.815491e-01
5.807814e-01
5.796685e-01
5.782790e-01
5.764583e-01
5.756572e-01
0.000000e+00
1.000000e+00
5.723542e-01
5.727939e-01
5.725243e-01
5.724811e-01
5.725023e-01
5.725751e-01
5.726788e-01
5.728224e-01
5.730579e-01
5.732017e-01
5.732478e-01
5.732734e-01
5.732598e-01
5.731206e-01
5.728518e-01
0.000000e+00
1.000000e+00
5.693098e-01
5.694618e-01
5.674881e-01
5.660716e-01
5.649662e-01
5.642068e-01
5.638224e-01
5.638503e-01
5.642427e-01
5.649029e-01
5.657877e-01
5.669119e-01
5.682544e-01
5.698174e-01
5.700157e-01
0.000000e+00
1.000000e+00
5.665162e-01
5.661519e-01
5.626279e-01
5.598874e-01
5.577058e-01
5.561698e-01
5.553451e-01
5.552496e-01
5.557229e-01
5.569260e-01
5.586694e-01
5.608481e-01
5.634721e-01
5.667186e-01
5.671072e-01
0.000000e+00
1.000000e+00
5.641750e-01
5.629553e-01
5.581181e-01
5.541624e-01
5.510127e-01
5.487872e-01
5.475581e-01
5.473028e-01
5.479132e-01
5.495558e-01
5.521030e-01
5.552959e-01
5.590908e-01
5.639887e-01
5.641898e-01
0.000000e+00
1.000000e+00
5.624721e-01
5.599838e-01
5.541319e-01
5.491354e-01
5.451619e-01
5.423354e-01
5.407294e-01
5.403312e-01
5.410882e-01
5.431089e-01
5.463236e-01
5.504496e-01
5.552969e-01
5.618294e-01
5.612809e-01
0.000000e+00
1.000000e+00
5.616180e-01
5.574140e-01
5.508516e-01
5.450309e-01
5.403829e-01
5.370455e-01
5.351153e-01
5.346090e-01
5.355003e-01
5.378384e-01
5.415613e-01
5.464501e-01
5.522207e-01
5.604823e-01
5.583788e-01
0.000000e+00
1.000000e+00
5.618514e-01
5.555616e-01
5.484476e-01
5.420142e-01
5.368422e-01
5.331080e-01
5.309338e-01
5.303561e-01
5.313565e-01
5.339408e-01
5.380244e-01
5.434368e-01
5.499244e-01
5.601760e-01
5.555456e-01
0.000000e+00
1.000000e+00
5.635225e-01
5.547805e-01
5.470089e-01
5.401658e-01
5.346519e-01
5.306689e-01
5.283477e-01
5.277337e-01
5.288089e-01
5.315519e-01
5.358575e-01
5.415594e-01
5.484581e-01
5.606491e-01
5.534520e-01
0.000000e+00
1.000000e+00
5.646725e-01
5.546725e-01
5.465155e-01
5.395272e-01
5.338996e-01
5.298363e-01
5.274689e-01
5.268460e-01
5.279492e-01
5.307464e-01
5.351279e-01
5.409216e-01
5.479394e-01
5.609146e-01
5.527951e-01
0.000000e+00
1.000000e+00
5.914695e-01
5.850865e-01
5.953527e-01
6.016512e-01
6.069169e-01
6.109298e-01
6.135171e-01
6.145451e-01
6.139157e-01
6.116709e-01
6.079648e-01
6.029177e-01
5.966682e-01
5.895788e-01
5.826729e-01
0.000000e+00
1.000000e+00
5.910721e-01
5.849869e-01
5.949048e-01
6.010817e-01
6.062517e-01
6.101938e-01
6.127370e-01
6.137477e-01
6.131230e-01
6.109113e-01
6.072852e-01
6.023529e-01
5.962239e-01
5.892881e-01
5.824127e-01
0.000000e+00
1.000000e+00
5.894237e-01
5.848305e-01
5.936186e-01
5.994152e-01
6.042862e-01
6.080118e-01
6.104226e-01
6.113830e-01
6.107811e-01
6.086881e-01
6.053105e-01
6.006986e-01
5.948950e-01
5.883396e-01
5.823946e-01
0.000000e+00
1.000000e+00
5.869246e-01
5.842390e-01
5.915600e-01
5.967363e-01
6.011024e-01
6.044618e-01
6.066534e-01
6.075369e-01
6.069872e-01
6.051117e-01
6.021294e-01
5.979760e-01
5.926865e-01
5.866796e-01
5.820595e-01
0.000000e+00
1.000000e+00
5.840906e-01
5.829623e-01
5.887851e-01
5.931553e-01
5.968369e-01
5.996837e-01
6.015675e-01
6.023547e-01
6.018900e-01
6.003242e-01
5.978372e-01
5.942586e-01
5.897142e-01
5.844743e-01
5.811631e-01
0.000000e+00
1.000000e+00
5.811331e-01
5.810407e-01
5.853679e-01
5.887899e-01
5.916595e-01
5.938764e-01
5.953619e-01
5.960296e-01
5.956892e-01
5.945115e-01
5.925730e-01
5.897090e-01
5.861312e-01
5.818890e-01
5.796728e-01
0.000000e+00
1.000000e+00
5.781575e-01
5.786087e-01
5.814259e-01
5.837789e-01
5.857527e-01
5.872736e-01
5.882937e-01
5.887924e-01
5.886227e-01
5.878920e-01
5.865340e-01
5.845412e-01
5.820854e-01
5.790552e-01
5.776947e-01
0.000000e+00
1.000000e+00
5.752355e-01
5.758269e-01
5.771256e-01
5.783173e-01
5.793379e-01
5.801392e-01
5.806777e-01
5.809420e-01
5.809671e-01
5.806811e-01
5.799809e-01
5.789749e-01
5.777252e-01
5.760865e-01
5.753598e-01
0.000000e+00
1.000000e+00
5.724626e-01
5.728579e-01
5.726242e-01
5.725896e-01
5.726056e-01
5.726618e-01
5.727416e-01
5.728540e-01
5.730473e-01
5.731647e-01
5.731992e-01
5.732186e-01
5.732075e-01
5.730853e-01
5.728221e-01
0.000000e+00
1.000000e+00
5.697126e-01
5.698626e-01
5.680889e-01
5.668174e-01
5.658183e-01
5.651245e-01
5.647640e-01
5.647738e-01
5.651111e-01
5.656933e-01
5.664824e-01
5.674901e-01
5.686996e-01
5.701070e-01
5.702939e-01
0.000000e+00
1.000000e+00
5.671805e-01
5.668694e-01
5.637096e-01
5.612443e-01
5.592750e-01
5.578810e-01
5.571259e-01
5.570297e-01
5.574433e-01
5.585155e-01
5.600806e-01
5.620369e-01
5.643986e-01
5.673221e-01
5.676568e-01
0.000000e+00
1.000000e+00
5.650944e-01
5.639689e-01
5.596437e-01
5.560823e-01
5.532391e-01
5.512251e-01
5.501108e-01
5.498757e-01
5.504098e-01
5.518799e-01
5.541750e-01
5.570443e-01
5.604580e-01
5.648883e-01
5.649794e-01
0.000000e+00
1.000000e+00
5.636301e-01
5.612962e-01
5.560494e-01
5.515453e-01
5.479582e-01
5.454064e-01
5.439591e-01
5.435980e-01
5.442620e-01
5.460737e-01
5.489782e-01
5.526896e-01
5.570452e-01
5.629726e-01
5.623330e-01
0.000000e+00
1.000000e+00
5.628622e-01
5.590325e-01
5.530870e-01
5.478318e-01
5.436393e-01
5.406346e-01
5.389011e-01
5.384438e-01
5.392280e-01
5.413264e-01
5.446971e-01
5.491034e-01
5.542764e-01
5.616870e-01
5.598544e-01
0.000000e+00
1.000000e+00
5.626113e-01
5.573637e-01
5.508960e-01
5.450900e-01
5.404365e-01
5.370825e-01
5.351325e-01
5.346114e-01
5.354950e-01
5.378162e-01
5.415171e-01
5.464115e-01
5.522193e-01
5.609814e-01
5.578223e-01
0.000000e+00
1.000000e+00
5.624702e-01
5.564079e-01
5.495656e-01
5.434084e-01
5.384576e-01
5.348825e-01
5.328000e-01
5.322467e-01
5.332003e-01
5.356662e-01
5.395673e-01
5.447364e-01
5.509269e-01
5.605462e-01
5.567006e-01
0.000000e+00
1.000000e+00
5.619683e-01
5.560999e-01
5.491123e-01
5.428320e-01
5.377799e-01
5.341316e-01
5.320066e-01
5.314455e-01
5.324261e-01
5.349420e-01
5.389104e-01
5.441650e-01
5.504747e-01
5.602523e-01
5.565764e-01
0.000000e+00
1.000000e+00
5.874935e-01
5.842668e-01
5.920183e-01
5.973352e-01
6.018030e-01
6.052235e-01
6.074400e-01
6.083247e-01
6.077736e-01
6.058584e-01
6.027606e-01
5.984953e-01
5.931188e-01
5.870127e-01
5.821358e-01
0.000000e+00
1.000000e+00
5.873016e-01
5.840346e-01
5.916461e-01
5.968579e-01
6.012405e-01
6.045989e-01
6.067777e-01
6.076479e-01
6.071002e-01
6.052147e-01
6.021869e-01
5.980112e-01
5.927328e-01
5.867487e-01
5.818257e-01
0.000000e+00
1.000000e+00
5.863251e-01
5.835204e-01
5.905658e-01
5.954603e-01
5.995819e-01
6.027491e-01
6.048126e-01
6.056399e-01
6.051110e-01
6.033289e-01
6.005068e-01
5.965794e-01
5.915834e-01
5.859231e-01
5.813402e-01
0.000000e+00
1.000000e+00
5.846209e-01
5.827078e-01
5.888187e-01
5.932039e-01
5.968961e-01
5.997426e-01
6.016122e-01
6.023725e-01
6.018884e-01
6.002928e-01
5.977884e-01
5.942329e-01
5.897029e-01
5.845553e-01
5.807105e-01
0.000000e+00
1.000000e+00
5.824446e-01
5.814958e-01
5.864576e-01
5.901731e-01
5.932911e-01
5.956973e-01
5.972946e-01
5.979683e-01
5.975582e-01
5.962258e-01
5.941211e-01
5.910555e-01
5.871840e-01
5.827320e-01
5.798269e-01
0.000000e+00
1.000000e+00
5.800018e-01
5.798515e-01
5.835547e-01
5.864695e-01
5.889048e-01
5.907772e-01
5.920278e-01
5.925918e-01
5.922892e-01
5.912847e-01
5.896308e-01
5.871827e-01
5.841419e-01
5.805548e-01
5.785843e-01
0.000000e+00
1.000000e+00
5.774549e-01
5.778064e-01
5.802102e-01
5.822159e-01
5.838919e-01
5.851758e-01
5.860287e-01
5.864412e-01
5.862834e-01
5.856533e-01
5.844874e-01
5.827868e-01
5.807005e-01
5.781379e-01
5.769455e-01
0.000000e+00
1.000000e+00
5.749408e-01
5.754522e-01
5.765604e-01
5.775783e-01
5.784433e-01
5.791155e-01
5.795599e-01
5.797714e-01
5.797756e-01
5.795164e-01
5.789105e-01
5.780511e-01
5.769899e-01
5.755999e-01
5.749669e-01
0.000000e+00
1.000000e+00
5.726001e-01
5.729271e-01
5.727387e-01
5.727142e-01
5.727244e-01
5.727621e-01
5.728154e-01
5.728923e-01
5.730347e-01
5.731201e-01
5.731422e-01
5.731549e-01
5.731467e-01
5.730468e-01
5.727924e-01
0.000000e+00
1.000000e+00
5.702465e-01
5.703816e-01
5.688793e-01
5.678021e-01
5.669485e-01
5.663474e-01
5.660245e-01
5.660141e-01
5.662822e-01
5.667638e-01
5.674271e-01
5.682804e-01
5.693107e-01
5.705095e-01
5.706616e-01
0.000000e+00
1.000000e+00
5.680818e-01
5.678152e-01
5.651478e-01
5.630540e-01
5.613739e-01
5.601757e-01
5.595171e-01
5.594222e-01
5.597617e-01
5.606614e-01
5.619861e-01
5.636461e-01
5.656569e-01
5.681509e-01
5.683837e-01
0.000000e+00
1.000000e+00
5.663498e-01
5.653336e-01
5.616822e-01
5.586538e-01
5.562268e-01
5.544991e-01
5.535392e-01
5.533344e-01
5.537756e-01
5.550188e-01
5.569688e-01
5.594019e-01
5.623079e-01
5.661070e-01
5.660650e-01
0.000000e+00
1.000000e+00
5.651227e-01
5.630873e-01
5.586190e-01
5.547808e-01
5.517148e-01
5.495312e-01
5.482968e-01
5.479914e-01
5.485414e-01
5.500803e-01
5.525597e-01
5.557029e-01
5.594027e-01
5.644680e-01
5.638644e-01
0.000000e+00
1.000000e+00
5.642550e-01
5.612186e-01
5.560889e-01
5.515981e-01
5.480146e-01
5.454535e-01
5.439857e-01
5.436030e-01
5.442549e-01
5.460419e-01
5.489333e-01
5.526670e-01
5.570399e-01
5.632192e-01
5.619961e-01
0.000000e+00
1.000000e+00
5.635058e-01
5.598294e-01
5.542023e-01
5.492335e-01
5.452645e-01
5.424171e-01
5.407726e-01
5.403383e-01
5.410760e-01
5.430558e-01
5.462409e-01
5.504006e-01
5.552887e-01
5.622790e-01
5.606774e-01
0.000000e+00
1.000000e+00
5.628063e-01
5.590007e-01
5.530452e-01
5.477803e-01
5.435676e-01
5.405381e-01
5.387828e-01
5.383220e-01
5.391224e-01
5.412271e-01
5.445865e-01
5.489939e-01
5.542015e-01
5.615838e-01
5.600760e-01
0.000000e+00
1.000000e+00
5.623299e-01
5.587413e-01
5.526533e-01
5.472861e-01
5.429893e-01
5.398978e-01
5.381056e-01
5.376381e-01
5.384632e-01
5.406117e-01
5.440279e-01
5.485132e-01
5.538259e-01
5.612606e-01
5.600531e-01
0.000000e+00
1.000000e+00
5.836326e-01
5.823486e-01
5.879487e-01
5.920927e-01
5.955752e-01
5.982556e-01
6.000149e-01
6.007400e-01
6.003021e-01
5.988124e-01
5.964339e-01
5.930529e-01
5.887753e-01
5.838485e-01
5.806439e-01
0.000000e+00
1.000000e+00
5.834968e-01
5.821518e-01
5.876620e-01
5.917245e-01
5.951387e-01
5.977675e-01
5.994957e-01
6.002094e-01
5.997737e-01
5.983092e-01
5.959848e-01
5.926696e-01
5.884711e-01
5.836503e-01
5.804518e-01
0.000000e+00
1.000000e+00
5.828985e-01
5.816330e-01
5.868204e-01
5.906421e-01
5.938514e-01
5.963243e-01
5.979562e-01
5.986346e-01
5.982133e-01
5.968317e-01
5.946587e-01
5.915298e-01
5.875657e-01
5.830278e-01
5.799518e-01
0.000000e+00
1.000000e+00
5.818207e-01
5.808260e-01
5.854503e-01
5.888862e-01
5.917649e-01
5.939816e-01
5.954510e-01
5.960709e-01
5.956849e-01
5.944485e-01
5.925040e-01
5.896682e-01
5.860929e-01
5.819944e-01
5.792189e-01
0.000000e+00
1.000000e+00
5.803385e-01
5.797455e-01
5.835967e-01
5.865179e-01
5.889566e-01
5.908284e-01
5.920728e-01
5.926141e-01
5.922869e-01
5.912524e-01
5.895996e-01
5.871618e-01
5.841204e-01
5.806042e-01
5.783189e-01
0.000000e+00
1.000000e+00
5.785551e-01
5.784016e-01
5.813211e-01
5.836174e-01
5.855284e-01
5.869868e-01
5.879528e-01
5.883941e-01
5.881509e-01
5.873662e-01
5.860537e-01
5.841171e-01
5.817332e-01
5.789232e-01
5.772640e-01
0.000000e+00
1.000000e+00
5.765897e-01
5.768013e-01
5.787029e-01
5.802844e-01
5.816011e-01
5.826022e-01
5.832572e-01
5.835685e-01
5.834356e-01
5.829340e-01
5.820034e-01
5.806633e-01
5.790279e-01
5.770305e-01
5.760091e-01
0.000000e+00
1.000000e+00
5.745884e-01
5.749687e-01
5.758451e-01
5.766493e-01
5.773270e-01
5.778473e-01
5.781842e-01
5.783370e-01
5.783245e-01
5.781046e-01
5.776182e-01
5.769404e-01
5.761087e-01
5.750239e-01
5.744909e-01
0.000000e+00
1.000000e+00
5.727556e-01
5.729880e-01
5.728500e-01
5.728355e-01
5.728406e-01
5.728608e-01
5.728890e-01
5.729316e-01
5.730219e-01
5.730746e-01
5.730853e-01
5.730919e-01
5.730867e-01
5.730126e-01
5.727685e-01
0.000000e+00
1.000000e+00
5.708869e-01
5.709871e-01
5.698153e-01
5.689733e-01
5.682995e-01
5.678170e-01
5.675471e-01
5.675202e-01
5.677131e-01
5.680789e-01
5.685926e-01
5.692602e-01
5.700716e-01
5.710159e-01
5.711058e-01
0.000000e+00
1.000000e+00
5.691980e-01
5.689466e-01
5.668737e-01
5.652323e-01
5.639083e-01
5.629548e-01
5.624202e-01
5.623330e-01
5.625911e-01
5.632872e-01
5.643202e-01
5.656220e-01
5.672058e-01
5.691806e-01
5.692634e-01
0.000000e+00
1.000000e+00
5.678739e-01
5.669986e-01
5.641414e-01
5.617633e-01
5.598481e-01
5.584748e-01
5.577066e-01
5.575450e-01
5.578839e-01
5.588584e-01
5.603849e-01
5.622877e-01
5.645772e-01
5.675887e-01
5.674350e-01
0.000000e+00
1.000000e+00
5.667829e-01
5.652724e-01
5.617248e-01
5.587028e-01
5.562778e-01
5.545455e-01
5.535714e-01
5.533424e-01
5.537665e-01
5.549830e-01
5.569360e-01
5.593835e-01
5.622917e-01
5.662378e-01
5.658341e-01
0.000000e+00
1.000000e+00
5.657716e-01
5.638553e-01
5.597231e-01
5.561757e-01
5.533382e-01
5.513144e-01
5.501695e-01
5.498891e-01
5.503936e-01
5.518140e-01
5.541070e-01
5.570076e-01
5.604285e-01
5.651015e-01
5.646003e-01
0.000000e+00
1.000000e+00
5.648700e-01
5.628132e-01
5.582236e-01
5.542883e-01
5.511468e-01
5.489063e-01
5.476328e-01
5.473182e-01
5.478922e-01
5.494705e-01
5.520081e-01
5.552422e-01
5.590496e-01
5.641993e-01
5.637978e-01
0.000000e+00
1.000000e+00
5.642378e-01
5.621983e-01
5.572984e-01
5.531249e-01
5.497945e-01
5.474175e-01
5.460620e-01
5.457286e-01
5.463550e-01
5.480344e-01
5.507159e-01
5.541510e-01
5.582014e-01
5.635943e-01
5.634210e-01
0.000000e+00
1.000000e+00
5.639536e-01
5.620081e-01
5.569853e-01
5.527307e-01
5.493358e-01
5.469114e-01
5.455275e-01
5.451887e-01
5.458365e-01
5.475510e-01
5.502783e-01
5.537794e-01
5.579131e-01
5.633651e-01
5.633593e-01
0.000000e+00
1.000000e+00
5.798453e-01
5.796550e-01
5.832554e-01
5.860969e-01
5.884764e-01
5.903082e-01
5.915258e-01
5.920705e-01
5.917925e-01
5.908145e-01
5.891985e-01
5.868257e-01
5.838673e-01
5.803569e-01
5.785145e-01
0.000000e+00
1.000000e+00
5.797469e-01
5.795279e-01
5.830635e-01
5.858500e-01
5.881822e-01
5.899769e-01
5.911705e-01
5.917061e-01
5.914293e-01
5.904698e-01
5.888878e-01
5.865585e-01
5.836557e-01
5.802188e-01
5.784055e-01
0.000000e+00
1.000000e+00
5.793835e-01
5.791595e-01
5.824942e-01
5.851187e-01
5.873121e-01
5.889972e-01
5.901184e-01
5.906249e-01
5.903565e-01
5.894534e-01
5.879657e-01
5.857651e-01
5.830290e-01
5.798003e-01
5.780580e-01
0.000000e+00
1.000000e+00
5.787641e-01
5.785579e-01
5.815617e-01
5.839259e-01
5.858971e-01
5.874065e-01
5.884087e-01
5.888646e-01
5.886179e-01
5.878083e-01
5.864644e-01
5.844749e-01
5.820136e-01
5.791137e-01
5.774876e-01
0.000000e+00
1.000000e+00
5.778997e-01
5.777483e-01
5.802968e-01
5.823109e-01
5.839859e-01
5.852620e-01
5.861037e-01
5.864907e-01
5.862805e-01
5.855985e-01
5.844439e-01
5.827430e-01
5.806538e-01
5.781863e-01
5.767316e-01
0.000000e+00
1.000000e+00
5.768175e-01
5.767640e-01
5.787419e-01
5.803277e-01
5.816442e-01
5.826416e-01
5.832908e-01
5.835928e-01
5.834346e-01
5.829097e-01
5.819847e-01
5.806428e-01
5.790066e-01
5.770561e-01
5.758526e-01
0.000000e+00
1.000000e+00
5.755586e-01
5.756374e-01
5.769515e-01
5.780454e-01
5.789536e-01
5.796396e-01
5.800787e-01
5.802805e-01
5.801894e-01
5.798426e-01
5.791858e-01
5.782616e-01
5.771387e-01
5.757702e-01
5.749222e-01
0.000000e+00
1.000000e+00
5.741870e-01
5.743847e-01
5.749951e-01
5.755528e-01
5.760186e-01
5.763720e-01
5.765954e-01
5.766889e-01
5.766698e-01
5.765051e-01
5.761614e-01
5.756934e-01
5.751223e-01
5.743853e-01
5.739300e-01
0.000000e+00
1.000000e+00
5.729176e-01
5.730271e-01
5.729409e-01
5.729348e-01
5.729360e-01
5.729425e-01
5.729510e-01
5.729656e-01
5.730106e-01
5.730351e-01
5.730372e-01
5.730391e-01
5.730367e-01
5.729902e-01
5.727602e-01
0.000000e+00
1.000000e+00
5.716162e-01
5.716445e-01
5.708469e-01
5.702705e-01
5.698042e-01
5.694642e-01
5.692650e-01
5.692305e-01
5.693509e-01
5.695937e-01
5.699414e-01
5.703994e-01
5.709601e-01
5.716147e-01
5.716069e-01
0.000000e+00
1.000000e+00
5.704879e-01
5.702201e-01
5.688078e-01
5.676801e-01
5.667658e-01
5.661005e-01
5.657174e-01
5.656484e-01
5.658242e-01
5.662984e-01
5.670013e-01
5.678973e-01
5.689928e-01
5.703702e-01
5.702660e-01
0.000000e+00
1.000000e+00
5.694892e-01
5.688996e-01
5.669128e-01
5.652752e-01
5.639505e-01
5.629924e-01
5.624496e-01
5.623441e-01
5.625800e-01
5.632583e-01
5.642985e-01
5.656023e-01
5.671866e-01
5.692458e-01
5.690811e-01
0.000000e+00
1.000000e+00
5.684972e-01
5.677495e-01
5.652310e-01
5.631443e-01
5.614627e-01
5.602553e-01
5.595781e-01
5.594431e-01
5.597411e-01
5.606017e-01
5.619387e-01
5.636049e-01
5.656148e-01
5.682306e-01
5.681471e-01
0.000000e+00
1.000000e+00
5.676008e-01
5.668126e-01
5.638322e-01
5.613758e-01
5.594040e-01
5.579967e-01
5.572125e-01
5.570574e-01
5.574151e-01
5.584306e-01
5.600093e-01
5.619757e-01
5.643348e-01
5.673706e-01
5.674528e-01
0.000000e+00
1.000000e+00
5.669175e-01
5.661234e-01
5.627794e-01
5.600478e-01
5.578622e-01
5.563090e-01
5.554466e-01
5.552794e-01
5.556899e-01
5.568245e-01
5.585801e-01
5.607710e-01
5.633916e-01
5.667216e-01
5.669858e-01
0.000000e+00
1.000000e+00
5.665137e-01
5.657054e-01
5.621244e-01
5.592237e-01
5.569076e-01
5.552649e-01
5.543535e-01
5.541786e-01
5.546296e-01
5.558389e-01
5.577002e-01
5.600318e-01
5.628170e-01
5.663226e-01
5.667310e-01
0.000000e+00
1.000000e+00
5.663592e-01
5.655688e-01
5.619011e-01
5.589435e-01
5.565835e-01
5.549108e-01
5.539822e-01
5.538044e-01
5.542720e-01
5.555066e-01
5.574027e-01
5.597827e-01
5.626248e-01
5.661872e-01
5.666528e-01
0.000000e+00
1.000000e+00
5.761750e-01
5.764390e-01
5.781088e-01
5.795491e-01
5.807638e-01
5.817027e-01
5.823309e-01
5.826325e-01
5.825672e-01
5.821610e-01
5.813233e-01
5.801037e-01
5.785975e-01
5.767000e-01
5.759069e-01
0.000000e+00
1.000000e+00
5.761261e-01
5.763812e-01
5.780188e-01
5.794320e-01
5.806225e-01
5.815415e-01
5.821550e-01
5.824493e-01
5.823834e-01
5.819842e-01
5.811612e-01
5.799634e-01
5.784859e-01
5.766252e-01
5.758588e-01
0.000000e+00
1.000000e+00
5.759556e-01
5.762051e-01
5.777476e-01
5.790804e-01
5.802002e-01
5.810613e-01
5.816333e-01
5.819063e-01
5.818396e-01
5.814603e-01
5.806808e-01
5.795492e-01
5.781575e-01
5.764068e-01
5.756790e-01
0.000000e+00
1.000000e+00
5.756864e-01
5.759068e-01
5.772974e-01
5.784996e-01
5.795063e-01
5.802766e-01
5.807837e-01
5.810228e-01
5.809571e-01
5.806094e-01
5.799006e-01
5.788795e-01
5.776284e-01
5.760579e-01
5.753783e-01
0.000000e+00
1.000000e+00
5.753217e-01
5.754934e-01
5.766801e-01
5.777057e-01
5.785615e-01
5.792124e-01
5.796352e-01
5.798302e-01
5.797694e-01
5.794661e-01
5.788543e-01
5.779842e-01
5.769227e-01
5.755936e-01
5.749645e-01
0.000000e+00
1.000000e+00
5.748680e-01
5.749777e-01
5.759135e-01
5.767225e-01
5.773953e-01
5.779036e-01
5.782281e-01
5.783721e-01
5.783220e-01
5.780765e-01
5.775861e-01
5.769023e-01
5.760708e-01
5.750320e-01
5.744490e-01
0.000000e+00
1.000000e+00
5.743310e-01
5.743799e-01
5.750223e-01
5.755818e-01
5.760457e-01
5.763945e-01
5.766129e-01
5.767029e-01
5.766700e-01
5.764953e-01
5.761495e-01
5.756795e-01
5.751086e-01
5.743944e-01
5.738579e-01
0.000000e+00
1.000000e+00
5.737024e-01
5.737270e-01
5.740386e-01
5.743252e-01
5.745622e-01
5.747395e-01
5.748486e-01
5.748870e-01
5.748750e-01
5.747831e-01
5.746036e-01
5.743653e-01
5.740749e-01
5.737039e-01
5.732692e-01
0.000000e+00
1.000000e+00
5.730878e-01
5.730379e-01
5.729974e-01
5.729967e-01
5.729959e-01
5.729945e-01
5.729916e-01
5.729892e-01
5.730028e-01
5.730087e-01
5.730065e-01
5.730060e-01
5.730053e-01
5.729849e-01
5.727773e-01
0.000000e+00
1.000000e+00
5.724232e-01
5.723205e-01
5.719206e-01
5.716282e-01
5.713894e-01
5.712127e-01
5.711045e-01
5.710771e-01
5.711348e-01
5.712544e-01
5.714271e-01
5.716604e-01
5.719475e-01
5.722870e-01
5.720970e-01
0.000000e+00
1.000000e+00
5.717534e-01
5.716067e-01
5.708687e-01
5.702943e-01
5.698273e-01
5.694847e-01
5.692817e-01
5.692395e-01
5.693409e-01
5.695824e-01
5.699316e-01
5.703890e-01
5.709500e-01
5.716369e-01
5.714521e-01
0.000000e+00
1.000000e+00
5.710724e-01
5.709654e-01
5.698827e-01
5.690455e-01
5.683676e-01
5.678752e-01
5.675920e-01
5.675415e-01
5.676926e-01
5.680482e-01
5.685626e-01
5.692259e-01
5.700374e-01
5.710149e-01
5.710137e-01
0.000000e+00
1.000000e+00
5.704570e-01
5.703962e-01
5.689953e-01
5.679249e-01
5.670632e-01
5.664441e-01
5.660981e-01
5.660469e-01
5.662518e-01
5.667126e-01
5.673745e-01
5.682195e-01
5.692496e-01
5.704698e-01
5.706344e-01
0.000000e+00
1.000000e+00
5.699642e-01
5.699191e-01
5.682473e-01
5.669835e-01
5.659718e-01
5.652527e-01
5.648605e-01
5.648143e-01
5.650724e-01
5.656240e-01
5.664089e-01
5.674051e-01
5.686144e-01
5.700330e-01
5.703284e-01
0.000000e+00
1.000000e+00
5.696071e-01
5.695528e-01
5.676755e-01
5.662667e-01
5.651449e-01
5.643546e-01
5.639321e-01
5.638932e-01
5.641982e-01
5.648200e-01
5.656981e-01
5.668092e-01
5.681525e-01
5.697192e-01
5.701047e-01
0.000000e+00
1.000000e+00
5.693980e-01
5.693172e-01
5.673131e-01
5.658144e-01
5.646258e-01
5.637940e-01
5.633554e-01