<?xml version="1.0"?>
<VTKFile type="StructuredGrid" version="0.1">
  <StructuredGrid WholeExtent="0 16 0 16 0 16">
    <Piece Extent="0 16 0 16 0 16">
      <PointData Scalars="temperature" Vectors="velocity">
        <DataArray type="Float32" Name="temperature" format="ascii">
1.000000e+00
6.317999e-01
5.686857e-01
5.947107e-01
6.064135e-01
6.122876e-01
6.174303e-01
6.210185e-01
6.228160e-01
6.226344e-01
6.204262e-01
6.162236e-01
6.101030e-01
6.021626e-01
5.848897e-01
5.301026e-01
0.000000e+00
1.000000e+00
6.241122e-01
5.749495e-01
5.948919e-01
6.055841e-01
6.114739e-01
6.165406e-01
6.200764e-01
6.218525e-01
6.216615e-01
6.194673e-01
6.153390e-01
6.093887e-01
6.019124e-01
5.912026e-01
5.748887e-01
0.000000e+00
1.000000e+00
6.137979e-01
5.817777e-01
5.946493e-01
6.032994e-01
6.090879e-01
6.139131e-01
6.172903e-01
6.189968e-01
6.187958e-01
6.166957e-01
6.128718e-01
6.074542e-01
6.006188e-01
5.932671e-01
5.912284e-01
0.000000e+00
1.000000e+00
6.047995e-01
5.834674e-01
5.931159e-01
5.999193e-01
6.052342e-01
6.096254e-01
6.127433e-01
6.143480e-01
6.141649e-01
6.122857e-01
6.090002e-01
6.042534e-01
5.979186e-01
5.905262e-01
5.913393e-01
0.000000e+00
1.000000e+00
5.973124e-01
5.827177e-01
5.903192e-01
5.956371e-01
6.001208e-01
6.038526e-01
6.065886e-01
6.080777e-01
6.079563e-01
6.064284e-01
6.038155e-01
5.997477e-01
5.941740e-01
5.871949e-01
5.897316e-01
0.000000e+00
1.000000e+00
5.902593e-01
5.808519e-01
5.864883e-01
5.904827e-01
5.939607e-01
5.968623e-01
5.990654e-01
6.004103e-01
6.004219e-01
5.993789e-01
5.974533e-01
5.941359e-01
5.896944e-01
5.837786e-01
5.869149e-01
0.000000e+00
1.000000e+00
5.833226e-01
5.783284e-01
5.818697e-01
5.845436e-01
5.869460e-01
5.889613e-01
5.905202e-01
5.916055e-01
5.918529e-01
5.914255e-01
5.901106e-01
5.877562e-01
5.847089e-01
5.803210e-01
5.830705e-01
0.000000e+00
1.000000e+00
5.765659e-01
5.753883e-01
5.767403e-01
5.780405e-01
5.793256e-01
5.804827e-01
5.814046e-01
5.820483e-01
5.826060e-01
5.827599e-01
5.821154e-01
5.809474e-01
5.793916e-01
5.768638e-01
5.784062e-01
0.000000e+00
1.000000e+00
5.701495e-01
5.721755e-01
5.712845e-01
5.711242e-01
5.712053e-01
5.714758e-01
5.718643e-01
5.723995e-01
5.732069e-01
5.737036e-01
5.738798e-01
5.739743e-01
5.739197e-01
5.734785e-01
5.731841e-01
0.000000e+00
1.000000e+00
5.641810e-01
5.688304e-01
5.657647e-01
5.641311e-01
5.629881e-01
5.623704e-01
5.622971e-01
5.628046e-01
5.637365e-01
5.647937e-01
5.658830e-01
5.671291e-01
5.685202e-01
5.702357e-01
5.676618e-01
0.000000e+00
1.000000e+00
5.589712e-01
5.653255e-01
5.603986e-01
5.573330e-01
5.550510e-01
5.536611e-01
5.532188e-01
5.536272e-01
5.544913e-01
5.562342e-01
5.583317e-01
5.606704e-01
5.634141e-01
5.672922e-01
5.619091e-01
0.000000e+00
1.000000e+00
5.548458e-01
5.616871e-01
5.553859e-01
5.510077e-01
5.477504e-01
5.457149e-01
5.449066e-01
5.451098e-01
5.461107e-01
5.483168e-01
5.513768e-01
5.548158e-01
5.588313e-01
5.648210e-01
5.560674e-01
0.000000e+00
1.000000e+00
5.520765e-01
5.579593e-01
5.509313e-01
5.454663e-01
5.414099e-01
5.387961e-01
5.375986e-01
5.376439e-01
5.388306e-01
5.414162e-01
5.452306e-01
5.497215e-01
5.550312e-01
5.630895e-01
5.501647e-01
0.000000e+00
1.000000e+00
5.509715e-01
5.543597e-01
5.472659e-01
5.409938e-01
5.362625e-01
5.331185e-01
5.315760e-01
5.315288e-01
5.329037e-01
5.358056e-01
5.401361e-01
5.454332e-01
5.522386e-01
5.626466e-01
5.437650e-01
0.000000e+00
1.000000e+00
5.532773e-01
5.517491e-01
5.446054e-01
5.377580e-01
5.324555e-01
5.288777e-01
5.270806e-01
5.269914e-01
5.285292e-01
5.316867e-01
5.363429e-01
5.420068e-01
5.506407e-01
5.650493e-01
5.358620e-01
0.000000e+00
1.000000e+00
5.763362e-01
5.533258e-01
5.431626e-01
5.357762e-01
5.300721e-01
5.262268e-01
5.242882e-01
5.241944e-01
5.258484e-01
5.291768e-01
5.340261e-01
5.396997e-01
5.501733e-01
5.734683e-01
5.263070e-01
0.000000e+00
1.000000e+00
6.185101e-01
5.571121e-01
5.427390e-01
5.350556e-01
5.292277e-01
5.253084e-01
5.233332e-01
5.232457e-01
5.249420e-01
5.283263e-01
5.332397e-01
5.388803e-01
5.501693e-01
5.814046e-01
5.186581e-01
0.000000e+00
1.000000e+00
6.292149e-01
5.706851e-01
5.942894e-01
6.057467e-01
6.115209e-01
6.165728e-01
6.200964e-01
6.218616e-01
6.216637e-01
6.194608e-01
6.153169e-01
6.093209e-01
6.016738e-01
5.876103e-01
5.537031e-01
0.000000e+00
1.000000e+00
6.232322e-01
5.754555e-01
5.943962e-01
6.049396e-01
6.107263e-01
6.157047e-01
6.191770e-01
6.209190e-01
6.207090e-01
6.185171e-01
6.144497e-01
6.086364e-01
6.014021e-01
5.916824e-01
5.782865e-01
0.000000e+00
1.000000e+00
6.140913e-01
5.812875e-01
5.941304e-01
6.027031e-01
6.083847e-01
6.131293e-01
6.164486e-01
6.181214e-01
6.178987e-01
6.157978e-01
6.120435e-01
6.067711e-01
6.001160e-01
5.929258e-01
5.894005e-01
0.000000e+00
1.000000e+00
6.048901e-01
5.830601e-01
5.926876e-01
5.993937e-01
6.046068e-01
6.089231e-01
6.119903e-01
6.135648e-01
6.133587e-01
6.114799e-01
6.082699e-01
6.036531e-01
5.974553e-01
5.903109e-01
5.905282e-01
0.000000e+00
1.000000e+00
5.971454e-01
5.824777e-01
5.899951e-01
5.952074e-01
5.995987e-01
6.032607e-01
6.059515e-01
6.074156e-01
6.072721e-01
6.057482e-01
6.032063e-01
5.992365e-01
5.937625e-01
5.869911e-01
5.892924e-01
0.000000e+00
1.000000e+00
5.900031e-01
5.807224e-01
5.862612e-01
5.901697e-01
5.935714e-01
5.964095e-01
5.985704e-01
5.998939e-01
5.998857e-01
5.988485e-01
5.969763e-01
5.937234e-01
5.893574e-01
5.835822e-01
5.866425e-01
0.000000e+00
1.000000e+00
5.831165e-01
5.782720e-01
5.817382e-01
5.843577e-01
5.867057e-01
5.886707e-01
5.901903e-01
5.912546e-01
5.914844e-01
5.910598e-01
5.897732e-01
5.874566e-01
5.844634e-01
5.801598e-01
5.828844e-01
0.000000e+00
1.000000e+00
5.764853e-01
5.753877e-01
5.767096e-01
5.779873e-01
5.792426e-01
5.803673e-01
5.812582e-01
5.818810e-01
5.824178e-01
5.825639e-01
5.819253e-01
5.807741e-01
5.792481e-01
5.767623e-01
5.782972e-01
0.000000e+00
1.000000e+00
5.702342e-01
5.722297e-01
5.713617e-01
5.712079e-01
5.712839e-01
5.715400e-01
5.719081e-01
5.724176e-01
5.731976e-01
5.736781e-01
5.738448e-01
5.739343e-01
5.738815e-01
5.734488e-01
5.731594e-01
0.000000e+00
1.000000e+00
5.643558e-01
5.689516e-01
5.659394e-01
5.643379e-01
5.632118e-01
5.625964e-01
5.625139e-01
5.630033e-01
5.639075e-01
5.649352e-01
5.659964e-01
5.672135e-01
5.685787e-01
5.702584e-01
5.677817e-01
0.000000e+00
1.000000e+00
5.592209e-01
5.655015e-01
5.606715e-01
5.576620e-01
5.554169e-01
5.540457e-01
5.536069e-01
5.540046e-01
5.548381e-01
5.565421e-01
5.585991e-01
5.608854e-01
5.635721e-01
5.673706e-01
5.621473e-01
0.000000e+00
1.000000e+00
5.551989e-01
5.618906e-01
5.557477e-01
5.514475e-01
5.482478e-01
5.462494e-01
5.454570e-01
5.456517e-01
5.466127e-01
5.487719e-01
5.517838e-01
5.551532e-01
5.590822e-01
5.649706e-01
5.563419e-01
0.000000e+00
1.000000e+00
5.526262e-01
5.581690e-01
5.513668e-01
5.460028e-01
5.420253e-01
5.394647e-01
5.382923e-01
5.383275e-01
5.394673e-01
5.419968e-01
5.457571e-01
5.501696e-01
5.553771e-01
5.633544e-01
5.503245e-01
0.000000e+00
1.000000e+00
5.519853e-01
5.546056e-01
5.477587e-01
5.416138e-01
5.369796e-01
5.338998e-01
5.323856e-01
5.323262e-01
5.336497e-01
5.364884e-01
5.407557e-01
5.459708e-01
5.526843e-01
5.630838e-01
5.437428e-01
0.000000e+00
1.000000e+00
5.551436e-01
5.521420e-01
5.451475e-01
5.384451e-01
5.332512e-01
5.297420e-01
5.279741e-01
5.278718e-01
5.293575e-01
5.324468e-01
5.370290e-01
5.426115e-01
5.511520e-01
5.654652e-01
5.357868e-01
0.000000e+00
1.000000e+00
5.711010e-01
5.530787e-01
5.437207e-01
5.365115e-01
5.309181e-01
5.271401e-01
5.252306e-01
5.251247e-01
5.267288e-01
5.299885e-01
5.347569e-01
5.403650e-01
5.506132e-01
5.720399e-01
5.278754e-01
0.000000e+00
1.000000e+00
5.949292e-01
5.554649e-01
5.432788e-01
5.358080e-01
5.300893e-01
5.262365e-01
5.242908e-01
5.241929e-01
5.258417e-01
5.291598e-01
5.339908e-01
5.395743e-01
5.505001e-01
5.773259e-01
5.226227e-01
0.000000e+00
1.000000e+00
6.213535e-01
5.758705e-01
5.936117e-01
6.037149e-01
6.092710e-01
6.140502e-01
6.173777e-01
6.190356e-01
6.187999e-01
6.166526e-01
6.127448e-01
6.072148e-01
6.003574e-01
5.913556e-01
5.788677e-01
0.000000e+00
1.000000e+00
6.186075e-01
5.777175e-01
5.934672e-01
6.029854e-01
6.085211e-01
6.132333e-01
6.165150e-01
6.181506e-01
6.179011e-01
6.157619e-01
6.119376e-01
6.065865e-01
5.999636e-01
5.921128e-01
5.828469e-01
0.000000e+00
1.000000e+00
6.117487e-01
5.808865e-01
5.929536e-01
6.009399e-01
6.063179e-01
6.108082e-01
6.139502e-01
6.155217e-01
6.152557e-01
6.132047e-01
6.096972e-01
6.048392e-01
5.986070e-01
5.917620e-01
5.876039e-01
0.000000e+00
1.000000e+00
6.036624e-01
5.822571e-01
5.915637e-01
5.978701e-01
6.027718e-01
6.068477e-01
6.097529e-01
6.112354e-01
6.109842e-01
6.091534e-01
6.061749e-01
6.018960e-01
5.960488e-01
5.893832e-01
5.889788e-01
0.000000e+00
1.000000e+00
5.961586e-01
5.818594e-01
5.890676e-01
5.939617e-01
5.980797e-01
6.015217e-01
6.040644e-01
6.054462e-01
6.052583e-01
6.037785e-01
6.014308e-01
5.977178e-01
5.925353e-01
5.862582e-01
5.881943e-01
0.000000e+00
1.000000e+00
5.891691e-01
5.803300e-01
5.855796e-01
5.892478e-01
5.924328e-01
5.950855e-01
5.971125e-01
5.983604e-01
5.983082e-01
5.973052e-01
5.955701e-01
5.924992e-01
5.883649e-01
5.829773e-01
5.858466e-01
0.000000e+00
1.000000e+00
5.825460e-01
5.780733e-01
5.813308e-01
5.837965e-01
5.859933e-01
5.878184e-01
5.892254e-01
5.902186e-01
5.904016e-01
5.899876e-01
5.887747e-01
5.865739e-01
5.837462e-01
5.796980e-01
5.823325e-01
0.000000e+00
1.000000e+00
5.762868e-01
5.753585e-01
5.766000e-01
5.778115e-01
5.789842e-01
5.800200e-01
5.808284e-01
5.813914e-01
5.818682e-01
5.819869e-01
5.813664e-01
5.802685e-01
5.788313e-01
5.764794e-01
5.779770e-01
0.000000e+00
1.000000e+00
5.704790e-01
5.723724e-01
5.715717e-01
5.714363e-01
5.715000e-01
5.717193e-01
5.720347e-01
5.724760e-01
5.731756e-01
5.736066e-01
5.737472e-01
5.738228e-01
5.737752e-01
5.733702e-01
5.730861e-01
0.000000e+00
1.000000e+00
5.648967e-01
5.692918e-01
5.664515e-01
5.649468e-01
5.638743e-01
5.632704e-01
5.631627e-01
5.635966e-01
5.644185e-01
5.653625e-01
5.663449e-01
5.674798e-01
5.687679e-01
5.703481e-01
5.680836e-01
0.000000e+00
1.000000e+00
5.599997e-01
5.660116e-01
5.614773e-01
5.586382e-01
5.565059e-01
5.551910e-01
5.547579e-01
5.551184e-01
5.558719e-01
5.574601e-01
5.593939e-01
5.615326e-01
5.640566e-01
5.676319e-01
5.627533e-01
0.000000e+00
1.000000e+00
5.562347e-01
5.625328e-01
5.568209e-01
5.527564e-01
5.497255e-01
5.478286e-01
5.470764e-01
5.472481e-01
5.481102e-01
5.501310e-01
5.529855e-01
5.561503e-01
5.598345e-01
5.654223e-01
5.571379e-01
0.000000e+00
1.000000e+00
5.540105e-01
5.589502e-01
5.526647e-01
5.475960e-01
5.438393e-01
5.414260e-01
5.403246e-01
5.403413e-01
5.413651e-01
5.437343e-01
5.473137e-01
5.514788e-01
5.563705e-01
5.640326e-01
5.511989e-01
0.000000e+00
1.000000e+00
5.538208e-01
5.556214e-01
5.492289e-01
5.434321e-01
5.390699e-01
5.361772e-01
5.347546e-01
5.346775e-01
5.358734e-01
5.385313e-01
5.425987e-01
5.475497e-01
5.538661e-01
5.639103e-01
5.448297e-01
0.000000e+00
1.000000e+00
5.564106e-01
5.533390e-01
5.467337e-01
5.404209e-01
5.355478e-01
5.322542e-01
5.305898e-01
5.304703e-01
5.318227e-01
5.347169e-01
5.390807e-01
5.444343e-01
5.523560e-01
5.655628e-01
5.381240e-01
0.000000e+00
1.000000e+00
5.624172e-01
5.529098e-01
5.453067e-01
5.385866e-01
5.333476e-01
5.297962e-01
5.279941e-01
5.278722e-01
5.293437e-01
5.324038e-01
5.369365e-01
5.423909e-01
5.515401e-01
5.684191e-01
5.329115e-01
0.000000e+00
1.000000e+00
5.660122e-01
5.531848e-01
5.448198e-01
5.379261e-01
5.325670e-01
5.289400e-01
5.271020e-01
5.269896e-01
5.285085e-01
5.316270e-01
5.362171e-01
5.416874e-01
5.511894e-01
5.697232e-01
5.313239e-01
0.000000e+00
1.000000e+00
6.112433e-01
5.797697e-01
5.924444e-01
6.004063e-01
6.055811e-01
6.099177e-01
6.129383e-01
6.144328e-01
6.141679e-01
6.121772e-01
6.087314e-01
6.039360e-01
5.978342e-01
5.909398e-01
5.859777e-01
0.000000e+00
1.000000e+00
6.103778e-01
5.799606e-01
5.921183e-01
5.998022e-01
6.049124e-01
6.091845e-01
6.121650e-01
6.136400e-01
6.133604e-01
6.113787e-01
6.080181e-01
6.033665e-01
5.973889e-01
5.906759e-01
5.855722e-01
0.000000e+00
1.000000e+00
6.063888e-01
5.808150e-01
5.913086e-01
5.980807e-01
6.029523e-01
6.070095e-01
6.098630e-01
6.112818e-01
6.109844e-01
6.090872e-01
6.060164e-01
6.017411e-01
5.960298e-01
5.896437e-01
5.865036e-01
0.000000e+00
1.000000e+00
6.005068e-01
5.813139e-01
5.898611e-01
5.954140e-01
5.998040e-01
6.034637e-01
6.060931e-01
6.074322e-01
6.071481e-01
6.054574e-01
6.028464e-01
5.990209e-01
5.936805e-01
5.876027e-01
5.870433e-01
0.000000e+00
1.000000e+00
5.941288e-01
5.809070e-01
5.875650e-01
5.919451e-01
5.956274e-01
5.987002e-01
6.009838e-01
6.022284e-01
6.020048e-01
6.006410e-01
5.985700e-01
5.952142e-01
5.905119e-01
5.849234e-01
5.864100e-01
0.000000e+00
1.000000e+00
5.877867e-01
5.796366e-01
5.844332e-01
5.877325e-01
5.905836e-01
5.929416e-01
5.947419e-01
5.958552e-01
5.957600e-01
5.948344e-01
5.932818e-01
5.904914e-01
5.867569e-01
5.819771e-01
5.844516e-01
0.000000e+00
1.000000e+00
5.817018e-01
5.776827e-01
5.806254e-01
5.828514e-01
5.848167e-01
5.864313e-01
5.876623e-01
5.885313e-01
5.886534e-01
5.882575e-01
5.871468e-01
5.851441e-01
5.825967e-01
5.789806e-01
5.813618e-01
0.000000e+00
1.000000e+00
5.760203e-01
5.752598e-01
5.763815e-01
5.774844e-01
5.785296e-01
5.794341e-01
5.801234e-01
5.805963e-01
5.809815e-01
5.810507e-01
5.804639e-01
5.794615e-01
5.781704e-01
5.760544e-01
5.774232e-01
0.000000e+00
1.000000e+00
5.708605e-01
5.725671e-01
5.718720e-01
5.717633e-01
5.718108e-01
5.719797e-01
5.722228e-01
5.725686e-01
5.731434e-01
5.734957e-01
5.736010e-01
5.736581e-01
5.736189e-01
5.732623e-01
5.729762e-01
0.000000e+00
1.000000e+00
5.657896e-01
5.698004e-01
5.672563e-01
5.659102e-01
5.649312e-01
5.643553e-01
5.642143e-01
5.645597e-01
5.652522e-01
5.660674e-01
5.669305e-01
5.679401e-01
5.691039e-01
5.705288e-01
5.685385e-01
0.000000e+00
1.000000e+00
5.613208e-01
5.668024e-01
5.627644e-01
5.602089e-01
5.582695e-01
5.570503e-01
5.566232e-01
5.569187e-01
5.575582e-01
5.589580e-01
5.606873e-01
5.625996e-01
5.648705e-01
5.681009e-01
5.636879e-01
0.000000e+00
1.000000e+00
5.579857e-01
5.636026e-01
5.585522e-01
5.548835e-01
5.521276e-01
5.503881e-01
5.496899e-01
5.498275e-01
5.505574e-01
5.523550e-01
5.549312e-01
5.577683e-01
5.610764e-01
5.661865e-01
5.584793e-01
0.000000e+00
1.000000e+00
5.561676e-01
5.603858e-01
5.547830e-01
5.501963e-01
5.467831e-01
5.445914e-01
5.435965e-01
5.435990e-01
5.444693e-01
5.465875e-01
5.498402e-01
5.535833e-01
5.579570e-01
5.650372e-01
5.530434e-01
0.000000e+00
1.000000e+00
5.559621e-01
5.575310e-01
5.516530e-01
5.463892e-01
5.424400e-01
5.398367e-01
5.385668e-01
5.384862e-01
5.395107e-01
5.418950e-01
5.456149e-01
5.500944e-01
5.556414e-01
5.647910e-01
5.476883e-01
0.000000e+00
1.000000e+00
5.567896e-01
5.554726e-01
5.493473e-01
5.436065e-01
5.392248e-01
5.362811e-01
5.348012e-01
5.346840e-01
5.358535e-01
5.384558e-01
5.424652e-01
5.473956e-01
5.540779e-01
5.652258e-01
5.431535e-01
0.000000e+00
1.000000e+00
5.573735e-01
5.544119e-01
5.479753e-01
5.419053e-01
5.372218e-01
5.340534e-01
5.324493e-01
5.323318e-01
5.336169e-01
5.363734e-01
5.405404e-01
5.456741e-01
5.530513e-01
5.655133e-01
5.407446e-01
0.000000e+00
1.000000e+00
5.562465e-01
5.540899e-01
5.475008e-01
5.413046e-01
5.365170e-01
5.332776e-01
5.316387e-01
5.315308e-01
5.328639e-01
5.356758e-01
5.398926e-01
5.450823e-01
5.526012e-01
5.652328e-01
5.407211e-01
0.000000e+00
1.000000e+00
6.019283e-01
5.809511e-01
5.901951e-01
5.961182e-01
6.005926e-01
6.042977e-01
6.069136e-01
6.082204e-01
6.079546e-01
6.062375e-01
6.034461e-01
5.994633e-01
5.940915e-01
5.879958e-01
5.869220e-01
0.000000e+00
1.000000e+00
6.016268e-01
5.807414e-01
5.898605e-01
5.956436e-01
6.000358e-01
6.036791e-01
6.062592e-01
6.075500e-01
6.072699e-01
6.055642e-01
6.028509e-01
5.989712e-01
5.936922e-01
5.877264e-01
5.862775e-01
0.000000e+00
1.000000e+00
5.995182e-01
5.805468e-01
5.889830e-01
5.942787e-01
5.984115e-01
6.018493e-01
6.043109e-01
6.055527e-01
6.052556e-01
6.036276e-01
6.011479e-01
5.975257e-01
5.924856e-01
5.867874e-01
5.856359e-01
0.000000e+00
1.000000e+00
5.957530e-01
5.802899e-01
5.875597e-01
5.921042e-01
5.957997e-01
5.988757e-01
6.011218e-01
6.022881e-01
6.020025e-01
6.005544e-01
5.984220e-01
5.951253e-01
5.904774e-01
5.851755e-01
5.850476e-01
0.000000e+00
1.000000e+00
5.910083e-01
5.797131e-01
5.855141e-01
5.892057e-01
5.923103e-01
5.948799e-01
5.968025e-01
5.978713e-01
5.976394e-01
5.964708e-01
5.947442e-01
5.918319e-01
5.878009e-01
5.830588e-01
5.841401e-01
0.000000e+00
1.000000e+00
5.858174e-01
5.786617e-01
5.828384e-01
5.856520e-01
5.880657e-01
5.900358e-01
5.915278e-01
5.924604e-01
5.923395e-01
5.915410e-01
5.902096e-01
5.877956e-01
5.846197e-01
5.806217e-01
5.825318e-01
0.000000e+00
1.000000e+00
5.805911e-01
5.770858e-01
5.796192e-01
5.815259e-01
5.831904e-01
5.845362e-01
5.855406e-01
5.862443e-01
5.863061e-01
5.859439e-01
5.849665e-01
5.832424e-01
5.810810e-01
5.780528e-01
5.800253e-01
0.000000e+00
1.000000e+00
5.756808e-01
5.750666e-01
5.760313e-01
5.769843e-01
5.778639e-01
5.786052e-01
5.791510e-01
5.795132e-01
5.797898e-01
5.798006e-01
5.792688e-01
5.784042e-01
5.773111e-01
5.755232e-01
5.766930e-01
0.000000e+00
1.000000e+00
5.713388e-01
5.727772e-01
5.722161e-01
5.721387e-01
5.721689e-01
5.722818e-01
5.724440e-01
5.726813e-01
5.731051e-01
5.733618e-01
5.734291e-01
5.734663e-01
5.734373e-01
5.731453e-01
5.728593e-01
0.000000e+00
1.000000e+00
5.669683e-01
5.704247e-01
5.682843e-01
5.671506e-01
5.663053e-01
5.657807e-01
5.656102e-01
5.658489e-01
5.663827e-01
5.670365e-01
5.677481e-01
5.685958e-01
5.695913e-01
5.708091e-01
5.691392e-01
0.000000e+00
1.000000e+00
5.631230e-01
5.678121e-01
5.644446e-01
5.622757e-01
5.606074e-01
5.595297e-01
5.591179e-01
5.593333e-01
5.598391e-01
5.609946e-01
5.624478e-01
5.640640e-01
5.660006e-01
5.687788e-01
5.649140e-01
0.000000e+00
1.000000e+00
5.603888e-01
5.650484e-01
5.608378e-01
5.577133e-01
5.553373e-01
5.538129e-01
5.531872e-01
5.532906e-01
5.538712e-01
5.553798e-01
5.575655e-01
5.599618e-01
5.627775e-01
5.672392e-01
5.603559e-01
0.000000e+00
1.000000e+00
5.588638e-01
5.623966e-01
5.576045e-01
5.536767e-01
5.507259e-01
5.488259e-01
5.479748e-01
5.479786e-01
5.486762e-01
5.504755e-01
5.532637e-01
5.564178e-01
5.600964e-01
5.662720e-01
5.558690e-01
0.000000e+00
1.000000e+00
5.580286e-01
5.601412e-01
5.549043e-01
5.503595e-01
5.469520e-01
5.447271e-01
5.436696e-01
5.436128e-01
5.444422e-01
5.464861e-01
5.497128e-01
5.535028e-01
5.580193e-01
5.657036e-01
5.520147e-01
0.000000e+00
1.000000e+00
5.571113e-01
5.584721e-01
5.528827e-01
5.478977e-01
5.441432e-01
5.416588e-01
5.404423e-01
5.403610e-01
5.413189e-01
5.435622e-01
5.470748e-01
5.513057e-01
5.565108e-01
5.652201e-01
5.493762e-01
0.000000e+00
1.000000e+00
5.558468e-01
5.575343e-01
5.516545e-01
5.463873e-01
5.423998e-01
5.397403e-01
5.384230e-01
5.383444e-01
5.394097e-01
5.417908e-01
5.454553e-01
5.499280e-01
5.555205e-01
5.646179e-01
5.483789e-01
0.000000e+00
1.000000e+00
5.546968e-01
5.572874e-01
5.512365e-01
5.458658e-01
5.417947e-01
5.390747e-01
5.377256e-01
5.376556e-01
5.387672e-01
5.411983e-01
5.449062e-01
5.494506e-01
5.551335e-01
5.641863e-01
5.485749e-01
0.000000e+00
1.000000e+00
5.934338e-01
5.802934e-01
5.868230e-01
5.910404e-01
5.945293e-01
5.974123e-01
5.995122e-01
6.006277e-01
6.004130e-01
5.990985e-01
5.970644e-01
5.938779e-01
5.894833e-01
5.842841e-01
5.854783e-01
0.000000e+00
1.000000e+00
5.932413e-01
5.801018e-01
5.865609e-01
5.906915e-01
5.941089e-01
5.969353e-01
5.990018e-01
6.001042e-01
5.998771e-01
5.985762e-01
5.966027e-01
5.934841e-01
5.891649e-01
5.840991e-01
5.851082e-01
0.000000e+00
1.000000e+00
5.920932e-01
5.796931e-01
5.858191e-01
5.896773e-01
5.928803e-01
5.955307e-01
5.974861e-01
5.985432e-01
5.983005e-01
5.970655e-01
5.952516e-01
5.923056e-01
5.882063e-01
5.834407e-01
5.842379e-01
0.000000e+00
1.000000e+00
5.899172e-01
5.791209e-01
5.846086e-01
5.880317e-01
5.908956e-01
5.932536e-01
5.950112e-01
5.959891e-01
5.957536e-01
5.946571e-01
5.930620e-01
5.903595e-01
5.866380e-01
5.823027e-01
5.830621e-01
0.000000e+00
1.000000e+00
5.868728e-01
5.783935e-01
5.829364e-01
5.858013e-01
5.882198e-01
5.901876e-01
5.916628e-01
5.925313e-01
5.923358e-01
5.914487e-01
5.901086e-01
5.877305e-01
5.845535e-01
5.807733e-01
5.817254e-01
0.000000e+00
1.000000e+00
5.832036e-01
5.774749e-01
5.808211e-01
5.830420e-01
5.849346e-01
5.864488e-01
5.875725e-01
5.882951e-01
5.881821e-01
5.875671e-01
5.864900e-01
5.845458e-01
5.820635e-01
5.789517e-01
5.802150e-01
0.000000e+00
1.000000e+00
5.792009e-01
5.762802e-01
5.783144e-01
5.798294e-01
5.811365e-01
5.821726e-01
5.829184e-01
5.834324e-01
5.834519e-01
5.831493e-01
5.823379e-01
5.809671e-01
5.792798e-01
5.769521e-01
5.783308e-01
0.000000e+00
1.000000e+00
5.752669e-01
5.747507e-01
5.755246e-01
5.762882e-01
5.769730e-01
5.775317e-01
5.779241e-01
5.781689e-01
5.783388e-01
5.782989e-01
5.778482e-01
5.771608e-01
5.763081e-01
5.749260e-01
5.758143e-01
0.000000e+00
1.000000e+00
5.718701e-01
5.729614e-01
5.725507e-01
5.725045e-01
5.725192e-01
5.725793e-01
5.726650e-01
5.727968e-01
5.730660e-01
5.732250e-01
5.732574e-01
5.732766e-01
5.732583e-01
5.730414e-01
5.727586e-01
0.000000e+00
1.000000e+00
5.683690e-01
5.711071e-01
5.694553e-01
5.685764e-01
5.679022e-01
5.674580e-01
5.672739e-01
5.674056e-01
5.677731e-01
5.682499e-01
5.687876e-01
5.694448e-01
5.702332e-01
5.711975e-01
5.698689e-01
0.000000e+00
1.000000e+00
5.653652e-01
5.689825e-01
5.664112e-01
5.647149e-01
5.633896e-01
5.625035e-01
5.621283e-01
5.622642e-01
5.626337e-01
5.635099e-01
5.646306e-01
5.658939e-01
5.674257e-01
5.696611e-01
5.663918e-01
0.000000e+00
1.000000e+00
5.632925e-01
5.668167e-01
5.635470e-01
5.610931e-01
5.591959e-01
5.579484e-01
5.574199e-01
5.575021e-01
5.579339e-01
5.591102e-01
5.608120e-01
5.626747e-01
5.648959e-01
5.685090e-01
5.627832e-01
0.000000e+00
1.000000e+00
5.616897e-01
5.648556e-01
5.609715e-01
5.578628e-01
5.554920e-01
5.539514e-01
5.532791e-01
5.533128e-01
5.538384e-01
5.552728e-01
5.574717e-01
5.599015e-01
5.627535e-01
5.676042e-01
5.596391e-01
0.000000e+00
1.000000e+00
5.600406e-01
5.632458e-01
5.588036e-01
5.551701e-01
5.524274e-01
5.506518e-01
5.498548e-01
5.498644e-01
5.504977e-01
5.521548e-01
5.547376e-01
5.576477e-01
5.610393e-01
5.667653e-01
5.573150e-01
0.000000e+00
1.000000e+00
5.583732e-01
5.620863e-01
5.571594e-01
5.531434e-01
5.501299e-01
5.481767e-01
5.472838e-01
5.472903e-01
5.480323e-01
5.498689e-01
5.527143e-01
5.559775e-01
5.597738e-01
5.659748e-01
5.559412e-01
0.000000e+00
1.000000e+00
5.571037e-01
5.614578e-01
5.561421e-01
5.518923e-01
5.487059e-01
5.466333e-01
5.456743e-01
5.456888e-01
5.465252e-01
5.484808e-01
5.514672e-01
5.549418e-01
5.589838e-01
5.653590e-01
5.554456e-01
0.000000e+00
1.000000e+00
5.564515e-01
5.613014e-01
5.557950e-01
5.514656e-01
5.482180e-01
5.461017e-01
5.451185e-01
5.451398e-01
5.460184e-01
5.480157e-01
5.510416e-01
5.545848e-01
5.587054e-01
5.650873e-01
5.554734e-01
0.000000e+00
1.000000e+00
5.855202e-01
5.784643e-01
5.824991e-01
5.852489e-01
5.876192e-01
5.895639e-01
5.910216e-01
5.919153e-01
5.918423e-01
5.910708e-01
5.897567e-01
5.874354e-01
5.843591e-01
5.804160e-01
5.825068e-01
0.000000e+00
1.000000e+00
5.853745e-01
5.783608e-01
5.823332e-01
5.850285e-01
5.873492e-01
5.892507e-01
5.906776e-01
5.915581e-01
5.914752e-01
5.907165e-01
5.894363e-01
5.871546e-01
5.841326e-01
5.802839e-01
5.823270e-01
0.000000e+00
1.000000e+00
5.847338e-01
5.780724e-01
5.818386e-01
5.843746e-01
5.865514e-01
5.883264e-01
5.896599e-01
5.904939e-01
5.903946e-01
5.896798e-01
5.884826e-01
5.863158e-01
5.834611e-01
5.798628e-01
5.817130e-01
0.000000e+00
1.000000e+00
5.836085e-01
5.775931e-01
5.810108e-01
5.832950e-01
5.852479e-01
5.868253e-01
5.880037e-01
5.887531e-01
5.886481e-01
5.880125e-01
5.869247e-01
5.849453e-01
5.823766e-01
5.791574e-01
5.806941e-01
0.000000e+00
1.000000e+00
5.819932e-01
5.769513e-01
5.798651e-01
5.818120e-01
5.834707e-01
5.847918e-01
5.857627e-01
5.863951e-01
5.863031e-01
5.857821e-01
5.848279e-01
5.831115e-01
5.809375e-01
5.781984e-01
5.793578e-01
0.000000e+00
1.000000e+00
5.799224e-01
5.761844e-01
5.784258e-01
5.799593e-01
5.812650e-01
5.822891e-01
5.830178e-01
5.835055e-01
5.834513e-01
5.830768e-01
5.822791e-01
5.809059e-01
5.792144e-01
5.770292e-01
5.778546e-01
0.000000e+00
1.000000e+00
5.774620e-01
5.753108e-01
5.767307e-01
5.777880e-01
5.786915e-01
5.793949e-01
5.798748e-01
5.801909e-01
5.802024e-01
5.799934e-01
5.793861e-01
5.784349e-01
5.772839e-01
5.757054e-01
5.763493e-01
0.000000e+00
1.000000e+00
5.747747e-01
5.742923e-01
5.748446e-01
5.753831e-01
5.758515e-01
5.762212e-01
5.764655e-01
5.765994e-01
5.766846e-01
5.766182e-01
5.762801e-01
5.758031e-01
5.752210e-01
5.743001e-01
5.747654e-01
0.000000e+00
1.000000e+00
5.724122e-01
5.730799e-01
5.728232e-01
5.728035e-01
5.728068e-01
5.728260e-01
5.728516e-01
5.728974e-01
5.730319e-01
5.731061e-01
5.731124e-01
5.731180e-01
5.731094e-01
5.729726e-01
5.727061e-01
0.000000e+00
1.000000e+00
5.699508e-01
5.717888e-01
5.706817e-01
5.700859e-01
5.696148e-01
5.692849e-01
5.691165e-01
5.691603e-01
5.693765e-01
5.696780e-01
5.700304e-01
5.704772e-01
5.710262e-01
5.717037e-01
5.706947e-01
0.000000e+00
1.000000e+00
5.679590e-01
5.702674e-01
5.685474e-01
5.673858e-01
5.664647e-01
5.658258e-01
5.655215e-01
5.655931e-01
5.658400e-01
5.664269e-01
5.671758e-01
5.680442e-01
5.691112e-01
5.707094e-01
5.680790e-01
0.000000e+00
1.000000e+00
5.662479e-01
5.688395e-01
5.665330e-01
5.648440e-01
5.635168e-01
5.626170e-01
5.622155e-01
5.622951e-01
5.625983e-01
5.634250e-01
5.645669e-01
5.658344e-01
5.673741e-01
5.698480e-01
5.658206e-01
0.000000e+00
1.000000e+00
5.644089e-01
5.676114e-01
5.647033e-01
5.625471e-01
5.608752e-01
5.597694e-01
5.592964e-01
5.593909e-01
5.597708e-01
5.608188e-01
5.623089e-01
5.639380e-01
5.658859e-01
5.690002e-01
5.641753e-01
0.000000e+00
1.000000e+00
5.626547e-01
5.666249e-01
5.631449e-01
5.606040e-01
5.586585e-01
5.573970e-01
5.568736e-01
5.569942e-01
5.574631e-01
5.587068e-01
5.604784e-01
5.624118e-01
5.646918e-01
5.682242e-01
5.630488e-01
0.000000e+00
1.000000e+00
5.612914e-01
5.659130e-01
5.619454e-01
5.591202e-01
5.569773e-01
5.556068e-01
5.550490e-01
5.551994e-01
5.557591e-01
5.571583e-01
5.591319e-01
5.612970e-01
5.638260e-01
5.676209e-01
5.623612e-01
0.000000e+00
1.000000e+00
5.604902e-01
5.654947e-01
5.611862e-01
5.581891e-01
5.559275e-01
5.544896e-01
5.539074e-01
5.540782e-01
5.547166e-01
5.562140e-01
5.583040e-01
5.606199e-01
5.633106e-01
5.672544e-01
5.620353e-01
0.000000e+00
1.000000e+00
5.601594e-01
5.653680e-01
5.609231e-01
5.578690e-01
5.555679e-01
5.541073e-01
5.535151e-01
5.536925e-01
5.543656e-01
5.558962e-01
5.580233e-01
5.603935e-01
5.631417e-01
5.671299e-01
5.619500e-01
0.000000e+00
1.000000e+00
5.782075e-01
5.758561e-01
5.775048e-01
5.788559e-01
5.800744e-01
5.810857e-01
5.818533e-01
5.823764e-01
5.825595e-01
5.824462e-01
5.817516e-01
5.805259e-01
5.789627e-01
5.766323e-01
5.783802e-01
0.000000e+00
1.000000e+00
5.781440e-01
5.758254e-01
5.774430e-01
5.787699e-01
5.799626e-01
5.809488e-01
5.816940e-01
5.822022e-01
5.823764e-01
5.822627e-01
5.815775e-01
5.803704e-01
5.788364e-01
5.765516e-01
5.783100e-01
0.000000e+00
1.000000e+00
5.778758e-01
5.757203e-01
5.772453e-01
5.785004e-01
5.796192e-01
5.805351e-01
5.812189e-01
5.816847e-01
5.818352e-01
5.817179e-01
5.810600e-01
5.799125e-01
5.784673e-01
5.763217e-01
5.779834e-01
0.000000e+00
1.000000e+00
5.774579e-01
5.755139e-01
5.768945e-01
5.780329e-01
5.790368e-01
5.798473e-01
5.804399e-01
5.808389e-01
5.809572e-01
5.808333e-01
5.802194e-01
5.791770e-01
5.778801e-01
5.759652e-01
5.774243e-01
0.000000e+00
1.000000e+00
5.768800e-01
5.752007e-01
5.763878e-01
5.773667e-01
5.782193e-01
5.788963e-01
5.793758e-01
5.796896e-01
5.797748e-01
5.796480e-01
5.790980e-01
5.782047e-01
5.771089e-01
5.755010e-01
5.766455e-01
0.000000e+00
1.000000e+00
5.761379e-01
5.747834e-01
5.757278e-01
5.765072e-01
5.771778e-01
5.777009e-01
5.780553e-01
5.782742e-01
5.783329e-01
5.782134e-01
5.777510e-01
5.770467e-01
5.761938e-01
5.749479e-01
5.756673e-01
0.000000e+00
1.000000e+00
5.752191e-01
5.742794e-01
5.749250e-01
5.754694e-01
5.759325e-01
5.762885e-01
5.765182e-01
5.766415e-01
5.766855e-01
5.765883e-01
5.762441e-01
5.757613e-01
5.751798e-01
5.743262e-01
5.745461e-01
0.000000e+00
1.000000e+00
5.740733e-01
5.737222e-01
5.740047e-01
5.742866e-01
5.745238e-01
5.747036e-01
5.748138e-01
5.748547e-01
5.748911e-01
5.748335e-01
5.746475e-01
5.744052e-01
5.741106e-01
5.736555e-01
5.734858e-01
0.000000e+00
1.000000e+00
5.729643e-01
5.731133e-01
5.729926e-01
5.729901e-01
5.729875e-01
5.729831e-01
5.729742e-01
5.729675e-01
5.730083e-01
5.730265e-01
5.730199e-01
5.730182e-01
5.730158e-01
5.729553e-01
5.727372e-01
0.000000e+00
1.000000e+00
5.716871e-01
5.724178e-01
5.718741e-01
5.715741e-01
5.713308e-01
5.711519e-01
5.710450e-01
5.710381e-01
5.711380e-01
5.712789e-01
5.714455e-01
5.716722e-01
5.719560e-01
5.723210e-01
5.714358e-01
0.000000e+00
1.000000e+00
5.703724e-01
5.716775e-01
5.707484e-01
5.701575e-01
5.696845e-01
5.693473e-01
5.691672e-01
5.691864e-01
5.693468e-01
5.696443e-01
5.700005e-01
5.704452e-01
5.709953e-01
5.717713e-01
5.702191e-01
0.000000e+00
1.000000e+00
5.689726e-01
5.710438e-01
5.696595e-01
5.687925e-01
5.681069e-01
5.676335e-01
5.674086e-01
5.674666e-01
5.677111e-01
5.681587e-01
5.686969e-01
5.693401e-01
5.701301e-01
5.711940e-01
5.695784e-01
0.000000e+00
1.000000e+00
5.676787e-01
5.704665e-01
5.686341e-01
5.675178e-01
5.666489e-01
5.660715e-01
5.658296e-01
5.659413e-01
5.662896e-01
5.668844e-01
5.675897e-01
5.684108e-01
5.694073e-01
5.706886e-01
5.690390e-01
0.000000e+00
1.000000e+00
5.666395e-01
5.699622e-01
5.677327e-01
5.664066e-01
5.653911e-01
5.647403e-01
5.645000e-01
5.646724e-01
5.651329e-01
5.658610e-01
5.667093e-01
5.676825e-01
5.688480e-01
5.703057e-01
5.686162e-01
0.000000e+00
1.000000e+00
5.658869e-01
5.695529e-01
5.670149e-01
5.655298e-01
5.644094e-01
5.637137e-01
5.634861e-01
5.637149e-01
5.642801e-01
5.651156e-01
5.660759e-01
5.671697e-01
5.684623e-01
5.700536e-01
5.683176e-01
0.000000e+00
1.000000e+00
5.654527e-01
5.692722e-01
5.665427e-01
5.649581e-01
5.637765e-01
5.630599e-01
5.628469e-01