<?xml version="1.0"?>
<VTKFile type="StructuredGrid" version="0.1">
  <StructuredGrid WholeExtent="0 16 0 16 0 16">
    <Piece Extent="0 16 0 16 0 16">
      <PointData Scalars="temperature" Vectors="velocity">
        <DataArray type="Float32" Name="temperature" format="ascii">
1.000000e+00
6.054382e-01
5.794603e-01
5.996654e-01
6.071936e-01
6.135203e-01
6.183906e-01
6.215841e-01
6.229305e-01
6.223270e-01
6.197769e-01
6.153475e-01
6.091945e-01
6.015446e-01
5.888639e-01
5.581371e-01
0.000000e+00
1.000000e+00
6.021484e-01
5.823531e-01
5.990854e-01
6.064983e-01
6.127186e-01
6.175042e-01
6.206430e-01
6.219683e-01
6.213687e-01
6.188572e-01
6.145134e-01
6.085032e-01
6.010594e-01
5.914078e-01
5.791565e-01
0.000000e+00
1.000000e+00
5.973284e-01
5.854216e-01
5.974699e-01
6.044661e-01
6.103525e-01
6.148829e-01
6.178585e-01
6.191184e-01
6.185396e-01
6.161649e-01
6.121100e-01
6.065287e-01
5.995686e-01
5.918177e-01
5.862064e-01
0.000000e+00
1.000000e+00
5.925732e-01
5.857627e-01
5.949652e-01
6.012063e-01
6.065068e-01
6.106133e-01
6.133278e-01
6.144877e-01
6.139591e-01
6.118358e-01
6.082626e-01
6.032758e-01
5.969239e-01
5.896067e-01
5.855552e-01
0.000000e+00
1.000000e+00
5.883442e-01
5.844447e-01
5.916341e-01
5.968778e-01
6.013517e-01
6.048554e-01
6.072120e-01
6.082533e-01
6.078087e-01
6.060470e-01
6.030832e-01
5.987994e-01
5.933192e-01
5.868167e-01
5.841742e-01
0.000000e+00
1.000000e+00
5.842066e-01
5.821955e-01
5.875326e-01
5.916230e-01
5.951053e-01
5.978494e-01
5.997387e-01
6.006464e-01
6.003335e-01
5.990309e-01
5.967379e-01
5.933107e-01
5.889905e-01
5.837041e-01
5.820939e-01
0.000000e+00
1.000000e+00
5.800242e-01
5.793419e-01
5.827941e-01
5.855973e-01
5.879936e-01
5.898897e-01
5.912157e-01
5.919339e-01
5.918245e-01
5.910552e-01
5.894632e-01
5.870811e-01
5.841150e-01
5.803342e-01
5.794392e-01
0.000000e+00
1.000000e+00
5.758475e-01
5.760945e-01
5.776214e-01
5.790307e-01
5.802830e-01
5.813104e-01
5.820423e-01
5.824532e-01
5.826280e-01
5.823732e-01
5.815742e-01
5.803765e-01
5.788645e-01
5.768012e-01
5.763390e-01
0.000000e+00
1.000000e+00
5.717911e-01
5.726145e-01
5.721932e-01
5.721282e-01
5.721743e-01
5.723083e-01
5.724918e-01
5.727461e-01
5.731229e-01
5.733316e-01
5.734134e-01
5.734465e-01
5.734268e-01
5.732205e-01
5.729536e-01
0.000000e+00
1.000000e+00
5.679380e-01
5.690676e-01
5.667395e-01
5.651904e-01
5.640190e-01
5.632550e-01
5.629229e-01
5.630692e-01
5.635873e-01
5.643712e-01
5.653586e-01
5.665697e-01
5.680153e-01
5.697081e-01
5.694358e-01
0.000000e+00
1.000000e+00
5.644662e-01
5.655187e-01
5.614659e-01
5.584865e-01
5.561568e-01
5.545637e-01
5.537719e-01
5.537781e-01
5.543594e-01
5.557528e-01
5.576763e-01
5.600149e-01
5.628389e-01
5.664223e-01
5.658507e-01
0.000000e+00
1.000000e+00
5.615780e-01
5.620581e-01
5.565675e-01
5.522776e-01
5.489110e-01
5.465862e-01
5.453638e-01
5.451854e-01
5.459246e-01
5.477894e-01
5.505957e-01
5.540260e-01
5.581022e-01
5.635262e-01
5.623039e-01
0.000000e+00
1.000000e+00
5.594462e-01
5.587696e-01
5.522331e-01
5.468271e-01
5.425830e-01
5.396159e-01
5.379837e-01
5.376518e-01
5.385633e-01
5.408306e-01
5.443620e-01
5.488069e-01
5.540062e-01
5.612253e-01
5.588320e-01
0.000000e+00
1.000000e+00
5.582448e-01
5.557828e-01
5.486659e-01
5.423850e-01
5.374178e-01
5.338976e-01
5.319142e-01
5.314728e-01
5.325413e-01
5.351490e-01
5.392258e-01
5.445000e-01
5.506930e-01
5.598609e-01
5.552509e-01
0.000000e+00
1.000000e+00
5.585425e-01
5.536158e-01
5.460789e-01
5.391333e-01
5.335904e-01
5.296381e-01
5.273939e-01
5.268831e-01
5.280770e-01
5.309504e-01
5.354122e-01
5.412473e-01
5.482089e-01
5.602210e-01
5.511419e-01
0.000000e+00
1.000000e+00
5.698316e-01
5.539744e-01
5.445592e-01
5.371347e-01
5.312136e-01
5.269956e-01
5.245984e-01
5.240545e-01
5.253316e-01
5.283741e-01
5.330717e-01
5.392079e-01
5.465818e-01
5.635870e-01
5.465939e-01
0.000000e+00
1.000000e+00
5.914111e-01
5.555301e-01
5.440251e-01
5.364322e-01
5.303918e-01
5.260923e-01
5.236487e-01
5.230972e-01
5.244034e-01
5.275015e-01
5.322774e-01
5.385059e-01
5.459839e-01
5.669788e-01
5.430622e-01
0.000000e+00
1.000000e+00
6.043567e-01
5.801912e-01
5.991226e-01
6.065258e-01
6.127381e-01
6.175177e-01
6.206512e-01
6.219718e-01
6.213694e-01
6.188538e-01
6.145036e-01
6.084794e-01
6.010099e-01
5.898371e-01
5.692180e-01
0.000000e+00
1.000000e+00
6.017128e-01
5.823835e-01
5.985589e-01
6.058453e-01
6.119541e-01
6.166509e-01
6.197305e-01
6.210291e-01
6.204290e-01
6.179500e-01
6.136857e-01
6.078081e-01
6.005400e-01
5.914507e-01
5.806169e-01
0.000000e+00
1.000000e+00
5.973835e-01
5.849828e-01
5.969821e-01
6.038519e-01
6.096330e-01
6.140815e-01
6.170021e-01
6.182356e-01
6.176542e-01
6.153085e-01
6.113349e-01
6.058845e-01
5.990733e-01
5.914774e-01
5.852447e-01
0.000000e+00
1.000000e+00
5.925438e-01
5.853886e-01
5.945364e-01
6.006577e-01
6.058610e-01
6.098936e-01
6.125597e-01
6.136955e-01
6.131624e-01
6.110662e-01
6.075722e-01
6.026992e-01
5.964690e-01
5.893362e-01
5.851148e-01
0.000000e+00
1.000000e+00
5.882008e-01
5.841892e-01
5.912809e-01
5.964194e-01
6.008062e-01
6.042450e-01
6.065602e-01
6.075814e-01
6.071317e-01
6.053951e-01
6.025008e-01
5.983053e-01
5.929244e-01
5.865786e-01
5.839064e-01
0.000000e+00
1.000000e+00
5.840289e-01
5.820283e-01
5.872668e-01
5.912745e-01
5.946856e-01
5.973743e-01
5.992285e-01
6.001202e-01
5.998021e-01
5.985207e-01
5.962793e-01
5.929161e-01
5.886743e-01
5.835011e-01
5.819160e-01
0.000000e+00
1.000000e+00
5.798844e-01
5.792436e-01
5.826234e-01
5.853713e-01
5.877173e-01
5.895715e-01
5.908684e-01
5.915732e-01
5.914587e-01
5.907031e-01
5.891422e-01
5.868019e-01
5.838911e-01
5.801830e-01
5.793163e-01
0.000000e+00
1.000000e+00
5.757836e-01
5.760574e-01
5.775518e-01
5.789347e-01
5.801602e-01
5.811629e-01
5.818746e-01
5.822743e-01
5.824403e-01
5.821887e-01
5.814017e-01
5.802249e-01
5.787418e-01
5.767155e-01
5.762711e-01
0.000000e+00
1.000000e+00
5.718262e-01
5.726397e-01
5.722292e-01
5.721669e-01
5.722103e-01
5.723372e-01
5.725110e-01
5.727532e-01
5.731172e-01
5.733191e-01
5.733966e-01
5.734280e-01
5.734090e-01
5.732069e-01
5.729452e-01
0.000000e+00
1.000000e+00
5.680384e-01
5.691629e-01
5.668764e-01
5.653574e-01
5.642061e-01
5.634521e-01
5.631212e-01
5.632606e-01
5.637645e-01
5.645290e-01
5.654941e-01
5.666798e-01
5.680979e-01
5.697569e-01
5.695140e-01
0.000000e+00
1.000000e+00
5.646222e-01
5.656771e-01
5.617018e-01
5.587787e-01
5.564904e-01
5.549239e-01
5.541447e-01
5.541497e-01
5.547129e-01
5.560773e-01
5.579638e-01
5.602538e-01
5.630217e-01
5.665330e-01
5.660013e-01
0.000000e+00
1.000000e+00
5.617993e-01
5.622631e-01
5.568938e-01
5.526844e-01
5.493800e-01
5.470984e-01
5.458996e-01
5.457231e-01
5.464378e-01
5.482646e-01
5.510224e-01
5.543849e-01
5.583774e-01
5.637035e-01
5.624855e-01
0.000000e+00
1.000000e+00
5.597719e-01
5.590053e-01
5.526369e-01
5.473339e-01
5.431717e-01
5.402629e-01
5.386632e-01
5.383338e-01
5.392162e-01
5.414362e-01
5.449092e-01
5.492736e-01
5.543665e-01
5.614879e-01
5.589721e-01
0.000000e+00
1.000000e+00
5.587980e-01
5.560631e-01
5.491341e-01
5.429761e-01
5.381075e-01
5.346567e-01
5.327109e-01
5.322722e-01
5.333084e-01
5.358619e-01
5.398696e-01
5.450556e-01
5.511275e-01
5.602316e-01
5.553261e-01
0.000000e+00
1.000000e+00
5.595976e-01
5.539723e-01
5.465955e-01
5.397895e-01
5.343567e-01
5.304801e-01
5.282764e-01
5.277690e-01
5.289296e-01
5.317440e-01
5.361271e-01
5.418668e-01
5.487035e-01
5.605980e-01
5.512045e-01
0.000000e+00
1.000000e+00
5.671951e-01
5.540031e-01
5.451085e-01
5.378356e-01
5.320280e-01
5.278876e-01
5.255325e-01
5.249930e-01
5.262376e-01
5.292194e-01
5.338333e-01
5.398688e-01
5.471235e-01
5.631519e-01
5.473800e-01
0.000000e+00
1.000000e+00
5.792903e-01
5.549747e-01
5.445890e-01
5.371487e-01
5.312216e-01
5.270002e-01
5.245996e-01
5.240535e-01
5.253282e-01
5.283664e-01
5.330568e-01
5.391818e-01
5.465455e-01
5.653718e-01
5.449262e-01
0.000000e+00
1.000000e+00
6.007086e-01
5.822768e-01
5.975557e-01
6.045621e-01
6.104326e-01
6.149419e-01
6.178952e-01
6.191337e-01
6.185399e-01
6.161425e-01
6.120513e-01
6.064350e-01
5.994869e-01
5.909280e-01
5.806461e-01
0.000000e+00
1.000000e+00
5.993983e-01
5.830653e-01
5.970363e-01
6.039213e-01
6.096933e-01
6.141263e-01
6.170299e-01
6.182470e-01
6.176541e-01
6.152900e-01
6.112860e-01
6.058118e-01
5.990219e-01
5.911019e-01
5.823224e-01
0.000000e+00
1.000000e+00
5.960012e-01
5.843539e-01
5.955773e-01
6.020486e-01
6.075062e-01
6.117069e-01
6.144629e-01
6.156186e-01
6.150407e-01
6.128036e-01
6.090846e-01
6.040024e-01
5.975869e-01
5.903947e-01
5.840823e-01
0.000000e+00
1.000000e+00
5.917108e-01
5.845537e-01
5.932959e-01
5.990525e-01
6.039552e-01
6.077615e-01
6.102798e-01
6.113452e-01
6.108119e-01
6.088154e-01
6.055544e-01
6.009917e-01
5.951053e-01
5.884161e-01
5.841776e-01
0.000000e+00
1.000000e+00
5.875219e-01
5.835009e-01
5.902458e-01
5.950769e-01
5.992026e-01
6.024415e-01
6.046278e-01
6.055880e-01
6.051351e-01
6.034854e-01
6.007851e-01
5.968384e-01
5.917543e-01
5.858222e-01
5.832028e-01
0.000000e+00
1.000000e+00
5.834628e-01
5.815326e-01
5.864772e-01
5.902469e-01
5.934505e-01
5.959748e-01
5.977200e-01
5.985597e-01
5.982353e-01
5.970219e-01
5.949234e-01
5.917483e-01
5.877431e-01
5.828927e-01
5.813905e-01
0.000000e+00
1.000000e+00
5.794896e-01
5.789362e-01
5.821105e-01
5.846981e-01
5.869000e-01
5.886343e-01
5.898459e-01
5.905063e-01
5.903806e-01
5.896655e-01
5.881928e-01
5.859795e-01
5.832342e-01
5.797435e-01
5.789529e-01
0.000000e+00
1.000000e+00
5.756161e-01
5.759338e-01
5.773371e-01
5.786424e-01
5.797917e-01
5.807246e-01
5.813807e-01
5.817474e-01
5.818891e-01
5.816446e-01
5.808942e-01
5.797802e-01
5.783831e-01
5.764701e-01
5.760709e-01
0.000000e+00
1.000000e+00
5.719286e-01
5.727064e-01
5.723274e-01
5.722726e-01
5.723095e-01
5.724183e-01
5.725673e-01
5.727773e-01
5.731042e-01
5.732849e-01
5.733503e-01
5.733769e-01
5.733595e-01
5.731709e-01
5.729168e-01
0.000000e+00
1.000000e+00
5.683460e-01
5.694363e-01
5.672791e-01
5.658502e-01
5.647601e-01
5.640384e-01
5.637124e-01
5.638307e-01
5.642922e-01
5.650012e-01
5.659020e-01
5.670142e-01
5.683505e-01
5.699123e-01
5.697153e-01
0.000000e+00
1.000000e+00
5.651024e-01
5.661397e-01
5.623992e-01
5.596444e-01
5.574807e-01
5.559940e-01
5.552504e-01
5.552487e-01
5.557643e-01
5.570423e-01
5.588175e-01
5.609672e-01
5.635714e-01
5.668755e-01
5.663942e-01
0.000000e+00
1.000000e+00
5.624534e-01
5.628856e-01
5.578610e-01
5.538914e-01
5.507708e-01
5.486144e-01
5.474823e-01
5.473112e-01
5.479636e-01
5.496785e-01
5.522851e-01
5.554474e-01
5.591990e-01
5.642326e-01
5.630143e-01
0.000000e+00
1.000000e+00
5.606333e-01
5.597780e-01
5.538385e-01
5.488370e-01
5.449115e-01
5.421705e-01
5.406653e-01
5.403482e-01
5.411554e-01
5.432395e-01
5.465297e-01
5.506458e-01
5.554289e-01
5.622075e-01
5.595806e-01
0.000000e+00
1.000000e+00
5.599140e-01
5.570265e-01
5.505254e-01
5.447183e-01
5.401335e-01
5.368870e-01
5.350565e-01
5.346342e-01
5.355863e-01
5.379827e-01
5.417802e-01
5.466861e-01
5.523911e-01
5.610804e-01
5.560721e-01
0.000000e+00
1.000000e+00
5.606045e-01
5.550600e-01
5.481104e-01
5.417037e-01
5.365963e-01
5.329507e-01
5.308756e-01
5.303876e-01
5.314592e-01
5.341016e-01
5.382512e-01
5.436930e-01
5.501305e-01
5.611245e-01
5.525534e-01
0.000000e+00
1.000000e+00
5.631619e-01
5.543809e-01
5.466810e-01
5.398589e-01
5.344027e-01
5.305060e-01
5.282858e-01
5.277682e-01
5.289228e-01
5.317257e-01
5.360891e-01
5.418152e-01
5.486758e-01
5.620028e-01
5.499143e-01
0.000000e+00
1.000000e+00
5.648456e-01
5.543855e-01
5.461870e-01
5.392149e-01
5.336435e-01
5.296678e-01
5.274039e-01
5.268810e-01
5.280666e-01
5.309244e-01
5.353597e-01
5.411714e-01
5.481527e-01
5.624427e-01
5.490711e-01
0.000000e+00
1.000000e+00
5.955744e-01
5.836602e-01
5.950645e-01
6.013647e-01
6.066668e-01
6.107420e-01
6.134097e-01
6.145205e-01
6.139568e-01
6.117790e-01
6.081390e-01
6.031577e-01
5.969009e-01
5.897927e-01
5.832645e-01
0.000000e+00
1.000000e+00
5.950909e-01
5.836279e-01
5.946142e-01
6.007941e-01
6.060030e-01
6.100089e-01
6.126328e-01
6.137243e-01
6.131601e-01
6.110133e-01
6.074569e-01
6.025949e-01
5.964536e-01
5.895044e-01
5.829681e-01
0.000000e+00
1.000000e+00
5.929789e-01
5.837288e-01
5.933348e-01
5.991291e-01
6.040408e-01
6.078335e-01
6.103259e-01
6.113628e-01
6.108102e-01
6.087808e-01
6.054827e-01
6.009388e-01
5.951044e-01
5.885342e-01
5.830927e-01
0.000000e+00
1.000000e+00
5.897820e-01
5.834515e-01
5.913009e-01
5.964604e-01
6.008608e-01
6.042880e-01
6.065638e-01
6.075208e-01
6.070083e-01
6.051995e-01
6.023020e-01
5.981926e-01
5.928550e-01
5.868103e-01
5.829005e-01
0.000000e+00
1.000000e+00
5.862005e-01
5.824356e-01
5.885626e-01
5.929040e-01
5.966041e-01
5.995103e-01
6.014796e-01
6.023424e-01
6.019046e-01
6.004121e-01
5.980012e-01
5.944351e-01
5.898443e-01
5.845356e-01
5.820537e-01
0.000000e+00
1.000000e+00
5.825251e-01
5.807041e-01
5.851788e-01
5.885721e-01
5.914462e-01
5.937045e-01
5.952665e-01
5.960182e-01
5.957006e-01
5.946025e-01
5.927158e-01
5.898447e-01
5.862358e-01
5.819002e-01
5.804898e-01
0.000000e+00
1.000000e+00
5.788890e-01
5.784025e-01
5.812584e-01
5.835903e-01
5.855655e-01
5.871123e-01
5.881868e-01
5.887707e-01
5.886364e-01
5.879840e-01
5.866488e-01
5.846475e-01
5.821759e-01
5.790459e-01
5.783299e-01
0.000000e+00
1.000000e+00
5.753753e-01
5.757075e-01
5.769697e-01
5.781491e-01
5.791781e-01
5.800041e-01
5.805765e-01
5.808916e-01
5.809975e-01
5.807615e-01
5.800733e-01
5.790653e-01
5.778085e-01
5.760873e-01
5.757294e-01
0.000000e+00
1.000000e+00
5.720905e-01
5.727980e-01
5.724679e-01
5.724241e-01
5.724522e-01
5.725363e-01
5.726513e-01
5.728165e-01
5.730854e-01
5.732324e-01
5.732816e-01
5.733015e-01
5.732869e-01
5.731213e-01
5.728735e-01
0.000000e+00
1.000000e+00
5.688511e-01
5.698595e-01
5.679207e-01
5.666384e-01
5.656505e-01
5.649858e-01
5.646720e-01
5.647571e-01
5.651512e-01
5.657734e-01
5.665740e-01
5.675706e-01
5.687746e-01
5.701813e-01
5.700246e-01
0.000000e+00
1.000000e+00
5.659056e-01
5.668707e-01
5.635209e-01
5.610423e-01
5.590860e-01
5.577315e-01
5.570449e-01
5.570294e-01
5.574756e-01
5.586129e-01
5.602047e-01
5.621337e-01
5.644774e-01
5.674535e-01
5.670097e-01
0.000000e+00
1.000000e+00
5.635477e-01
5.639062e-01
5.594261e-01
5.558509e-01
5.530303e-01
5.510744e-01
5.500451e-01
5.498832e-01
5.504483e-01
5.519829e-01
5.543324e-01
5.571718e-01
5.605454e-01
5.651059e-01
5.638983e-01
0.000000e+00
1.000000e+00
5.620013e-01
5.611117e-01
5.557959e-01
5.512843e-01
5.477364e-01
5.452594e-01
5.439030e-01
5.436123e-01
5.443139e-01
5.461830e-01
5.491601e-01
5.528598e-01
5.571545e-01
5.633208e-01
5.607703e-01
0.000000e+00
1.000000e+00
5.613489e-01
5.587110e-01
5.528000e-01
5.475508e-01
5.434125e-01
5.404904e-01
5.388484e-01
5.384640e-01
5.392957e-01
5.414470e-01
5.448934e-01
5.493128e-01
5.544191e-01
5.622171e-01
5.577882e-01
0.000000e+00
1.000000e+00
5.613160e-01
5.569450e-01
5.505880e-01
5.448008e-01
5.402074e-01
5.369369e-01
5.350786e-01
5.346358e-01
5.355773e-01
5.379514e-01
5.417221e-01
5.466433e-01
5.523933e-01
5.617162e-01
5.553158e-01
0.000000e+00
1.000000e+00
5.613089e-01
5.559619e-01
5.492516e-01
5.431155e-01
5.382230e-01
5.347303e-01
5.327411e-01
5.322725e-01
5.332929e-01
5.358136e-01
5.397770e-01
5.449715e-01
5.511156e-01
5.614154e-01
5.539602e-01
0.000000e+00
1.000000e+00
5.606634e-01
5.556520e-01
5.487939e-01
5.425337e-01
5.375392e-01
5.339739e-01
5.319439e-01
5.314711e-01
5.325222e-01
5.350938e-01
5.391206e-01
5.443962e-01
5.506633e-01
5.611308e-01
5.538388e-01
0.000000e+00
1.000000e+00
5.905186e-01
5.833851e-01
5.917699e-01
5.970766e-01
6.015770e-01
6.050583e-01
6.073510e-01
6.083071e-01
6.078014e-01
6.059476e-01
6.029210e-01
5.987026e-01
5.932924e-01
5.871578e-01
5.829560e-01
0.000000e+00
1.000000e+00
5.903040e-01
5.831604e-01
5.913994e-01
5.966005e-01
6.010162e-01
6.044363e-01
6.066919e-01
6.076319e-01
6.071247e-01
6.052994e-01
6.023458e-01
5.982178e-01
5.929026e-01
5.868920e-01
5.825878e-01
0.000000e+00
1.000000e+00
5.890933e-01
5.827366e-01
5.903322e-01
5.952113e-01
5.993637e-01
6.025928e-01
6.047337e-01
6.056276e-01
6.051293e-01
6.034068e-01
6.006638e-01
5.967778e-01
5.917372e-01
5.860469e-01
5.820727e-01
0.000000e+00
1.000000e+00
5.869558e-01
5.820859e-01
5.886106e-01
5.929736e-01
5.966883e-01
5.995925e-01
6.015396e-01
6.023644e-01
6.019009e-01
6.003671e-01
5.979396e-01
5.944071e-01
5.898296e-01
5.846421e-01
5.814499e-01
0.000000e+00
1.000000e+00
5.842369e-01
5.810540e-01
5.862820e-01
5.899714e-01
5.930996e-01
5.955521e-01
5.972236e-01
5.979635e-01
5.975666e-01
5.962995e-01
5.942587e-01
5.911952e-01
5.872839e-01
5.827769e-01
5.805650e-01
0.000000e+00
1.000000e+00
5.812103e-01
5.795710e-01
5.834093e-01
5.863007e-01
5.887371e-01
5.906395e-01
5.919518e-01
5.925872e-01
5.922963e-01
5.913598e-01
5.897461e-01
5.872882e-01
5.842214e-01
5.805631e-01
5.792646e-01
0.000000e+00
1.000000e+00
5.780950e-01
5.776480e-01
5.800860e-01
5.820752e-01
5.837509e-01
5.850523e-01
5.859457e-01
5.864272e-01
5.862934e-01
5.857270e-01
5.845761e-01
5.828667e-01
5.807672e-01
5.781254e-01
5.774835e-01
0.000000e+00
1.000000e+00
5.750660e-01
5.753733e-01
5.764492e-01
5.774579e-01
5.783282e-01
5.790168e-01
5.794844e-01
5.797341e-01
5.797993e-01
5.795777e-01
5.789784e-01
5.781165e-01
5.770494e-01
5.755907e-01
5.752803e-01
0.000000e+00
1.000000e+00
5.722957e-01
5.728975e-01
5.726294e-01
5.725982e-01
5.726166e-01
5.726733e-01
5.727502e-01
5.728643e-01
5.730629e-01
5.731693e-01
5.732009e-01
5.732138e-01
5.732026e-01
5.730670e-01
5.728294e-01
0.000000e+00
1.000000e+00
5.695192e-01
5.704002e-01
5.687586e-01
5.676729e-01
5.668263e-01
5.662447e-01
5.659547e-01
5.660010e-01
5.663113e-01
5.668224e-01
5.674924e-01
5.683362e-01
5.693622e-01
5.705607e-01
5.704324e-01
0.000000e+00
1.000000e+00
5.669953e-01
5.678265e-01
5.650064e-01
5.629013e-01
5.612292e-01
5.600591e-01
5.594528e-01
5.594219e-01
5.597841e-01
5.607360e-01
5.620805e-01
5.637169e-01
5.657131e-01
5.682541e-01
5.678216e-01
0.000000e+00
1.000000e+00
5.650441e-01
5.652824e-01
5.615124e-01
5.584714e-01
5.560596e-01
5.543757e-01
5.534849e-01
5.533402e-01
5.538015e-01
5.550992e-01
5.570940e-01
5.594993e-01
5.623728e-01
5.662926e-01
5.651204e-01
0.000000e+00
1.000000e+00
5.637489e-01
5.629461e-01
5.584153e-01
5.545673e-01
5.515289e-01
5.494047e-01
5.482481e-01
5.480020e-01
5.485768e-01
5.501668e-01
5.527105e-01
5.558367e-01
5.594857e-01
5.647657e-01
5.625257e-01
0.000000e+00
1.000000e+00
5.628853e-01
5.609914e-01
5.558518e-01
5.513580e-01
5.478145e-01
5.453234e-01
5.439376e-01
5.436172e-01
5.443023e-01
5.461384e-01
5.491018e-01
5.528352e-01
5.571473e-01
5.636340e-01
5.603116e-01
0.000000e+00
1.000000e+00
5.620970e-01
5.595385e-01
5.539378e-01
5.489735e-01
5.450531e-01
5.422810e-01
5.407212e-01
5.403545e-01
5.411353e-01
5.431649e-01
5.464212e-01
5.505913e-01
5.554185e-01
5.627789e-01
5.587578e-01
0.000000e+00
1.000000e+00
5.612749e-01
5.586841e-01
5.527653e-01
5.475085e-01
5.433467e-01
5.403940e-01
5.387252e-01
5.383379e-01
5.391906e-01
5.413471e-01
5.447727e-01
5.491920e-01
5.543450e-01
5.621082e-01
5.580833e-01
0.000000e+00
1.000000e+00
5.606576e-01
5.584268e-01
5.523675e-01
5.470085e-01
5.427628e-01
5.397484e-01
5.380438e-01
5.376531e-01
5.385346e-01
5.407360e-01
5.442149e-01
5.487103e-01
5.539720e-01
5.617701e-01
5.580933e-01
0.000000e+00
1.000000e+00
5.856874e-01
5.818270e-01
5.877525e-01
5.918745e-01
5.953745e-01
5.981056e-01
5.999372e-01
6.007290e-01
6.003182e-01
5.988895e-01
5.965756e-01
5.932094e-01
5.888938e-01
5.839098e-01
5.814721e-01
0.000000e+00
1.000000e+00
5.855392e-01
5.816321e-01
5.874696e-01
5.915099e-01
5.949409e-01
5.976200e-01
5.994206e-01
6.002002e-01
5.997874e-01
5.983835e-01
5.961250e-01
5.928240e-01
5.885866e-01
5.837135e-01
5.812504e-01
0.000000e+00
1.000000e+00
5.848232e-01
5.811458e-01
5.866424e-01
5.904409e-01
5.936638e-01
5.961841e-01
5.978873e-01
5.986290e-01
5.982227e-01
5.969013e-01
5.947940e-01
5.916747e-01
5.876705e-01
5.830853e-01
5.806882e-01
0.000000e+00
1.000000e+00
5.835110e-01
5.804079e-01
5.852951e-01
5.887079e-01
5.915949e-01
5.938519e-01
5.953883e-01
5.960690e-01
5.956910e-01
5.945140e-01
5.926280e-01
5.897931e-01
5.861812e-01
5.820371e-01
5.798811e-01
0.000000e+00
1.000000e+00
5.816963e-01
5.794245e-01
5.834686e-01
5.863690e-01
5.888100e-01
5.907113e-01
5.920138e-01
5.926144e-01
5.922911e-01
5.913146e-01
5.897061e-01
5.872610e-01
5.841913e-01
5.806273e-01
5.789097e-01
0.000000e+00
1.000000e+00
5.795117e-01
5.781901e-01
5.812190e-01
5.834989e-01
5.854088e-01
5.868848e-01
5.878941e-01
5.883937e-01
5.881553e-01
5.874255e-01
5.861379e-01
5.841906e-01
5.817887e-01
5.789264e-01
5.777803e-01
0.000000e+00
1.000000e+00
5.771135e-01
5.766899e-01
5.786212e-01
5.801916e-01
5.815074e-01
5.825183e-01
5.831986e-01
5.835606e-01
5.834429e-01
5.829880e-01
5.820643e-01
5.807166e-01
5.790718e-01
5.770183e-01
5.764220e-01
0.000000e+00
1.000000e+00
5.746961e-01
5.749270e-01
5.757774e-01
5.765758e-01
5.772562e-01
5.777856e-01
5.781353e-01
5.783131e-01
5.783413e-01
5.781459e-01
5.776613e-01
5.769813e-01
5.761451e-01
5.750090e-01
5.747377e-01
0.000000e+00
1.000000e+00
5.725271e-01
5.729854e-01
5.727868e-01
5.727683e-01
5.727777e-01
5.728083e-01
5.728492e-01
5.729133e-01
5.730398e-01
5.731049e-01
5.731204e-01
5.731269e-01
5.731194e-01
5.730183e-01
5.727925e-01
0.000000e+00
1.000000e+00
5.703175e-01
5.710208e-01
5.697417e-01
5.688940e-01
5.682234e-01
5.677513e-01
5.675006e-01
5.675107e-01
5.677311e-01
5.681158e-01
5.686319e-01
5.692922e-01
5.701006e-01
5.710448e-01
5.709252e-01
0.000000e+00
1.000000e+00
5.683464e-01
5.689617e-01
5.667796e-01
5.651298e-01
5.638096e-01
5.628729e-01
5.623730e-01
5.623323e-01
5.626041e-01
5.633384e-01
5.643835e-01
5.656671e-01
5.672410e-01
5.692564e-01
5.688032e-01
0.000000e+00
1.000000e+00
5.668602e-01
5.669651e-01
5.640207e-01
5.616323e-01
5.597252e-01
5.583803e-01
5.576626e-01
5.575487e-01
5.578985e-01
5.589170e-01
5.604748e-01
5.623536e-01
5.646212e-01
5.677355e-01
5.666713e-01
0.000000e+00
1.000000e+00
5.656582e-01
5.651881e-01
5.615727e-01
5.585399e-01
5.561303e-01
5.544394e-01
5.535277e-01
5.533490e-01
5.537870e-01
5.550496e-01
5.570512e-01
5.594766e-01
5.623497e-01
5.664587e-01
5.648049e-01
0.000000e+00
1.000000e+00
5.645090e-01
5.637305e-01
5.595382e-01
5.559810e-01
5.531672e-01
5.511964e-01
5.501226e-01
5.498974e-01
5.504224e-01
5.518911e-01
5.542433e-01
5.571270e-01
5.605029e-01
5.653751e-01
5.633815e-01
0.000000e+00
1.000000e+00
5.634445e-01
5.626652e-01
5.580098e-01
5.540662e-01
5.509555e-01
5.487762e-01
5.475802e-01
5.473267e-01
5.479299e-01
5.495594e-01
5.521599e-01
5.553811e-01
5.591396e-01
5.644969e-01
5.624783e-01
0.000000e+00
1.000000e+00
5.626801e-01
5.620502e-01
5.570662e-01
5.528854e-01
5.495893e-01
5.472774e-01
5.460023e-01
5.457355e-01
5.463998e-01
5.481328e-01
5.508759e-01
5.542999e-01
5.583035e-01
5.638944e-01
5.620795e-01
0.000000e+00
1.000000e+00
5.623212e-01
5.618687e-01
5.567464e-01
5.524848e-01
5.491247e-01
5.467664e-01
5.454637e-01
5.451942e-01
5.458842e-01
5.476530e-01
5.504402e-01
5.539305e-01
5.580195e-01
5.636597e-01
5.620308e-01
0.000000e+00
1.000000e+00
5.810256e-01
5.793727e-01
5.831028e-01
5.859231e-01
5.883068e-01
5.901703e-01
5.914462e-01
5.920613e-01
5.918011e-01
5.908880e-01
5.893117e-01
5.869334e-01
5.839510e-01
5.803644e-01
5.792057e-01
0.000000e+00
1.000000e+00
5.809167e-01
5.792512e-01
5.829158e-01
5.856813e-01
5.880170e-01
5.898422e-01
5.910931e-01
5.916984e-01
5.914365e-01
5.905418e-01
5.889990e-01
5.866633e-01
5.837362e-01
5.802269e-01
5.790838e-01
0.000000e+00
1.000000e+00
5.804929e-01
5.789031e-01
5.823610e-01
5.849652e-01
5.871604e-01
5.888722e-01
5.900472e-01
5.906202e-01
5.903614e-01
5.895212e-01
5.880698e-01
5.858610e-01
5.831011e-01
5.798076e-01
5.786914e-01
0.000000e+00
1.000000e+00
5.797640e-01
5.783338e-01
5.814491e-01
5.837956e-01
5.857668e-01
5.872972e-01
5.883459e-01
5.888628e-01
5.886213e-01
5.878699e-01
5.865554e-01
5.845560e-01
5.820740e-01
5.791184e-01
5.780470e-01
0.000000e+00
1.000000e+00
5.787380e-01
5.775681e-01
5.802078e-01
5.822080e-01
5.838818e-01
5.851721e-01
5.860498e-01
5.864905e-01
5.862835e-01
5.856525e-01
5.845174e-01
5.828062e-01
5.807014e-01
5.781869e-01
5.771953e-01
0.000000e+00
1.000000e+00
5.774441e-01
5.766381e-01
5.786760e-01
5.802522e-01
5.815674e-01
5.825728e-01
5.832453e-01
5.835920e-01
5.834385e-01
5.829553e-01
5.820387e-01
5.806883e-01
5.790421e-01
5.770513e-01
5.762131e-01
0.000000e+00
1.000000e+00
5.759296e-01
5.755718e-01
5.769050e-01
5.779929e-01
5.789006e-01
5.795912e-01
5.800419e-01
5.802757e-01
5.801955e-01
5.798783e-01
5.792215e-01
5.782924e-01
5.771640e-01
5.757598e-01
5.751876e-01
0.000000e+00
1.000000e+00
5.742735e-01
5.743711e-01
5.749631e-01
5.755179e-01
5.759848e-01
5.763420e-01
5.765701e-01
5.766764e-01
5.766805e-01
5.765282e-01
5.761833e-01
5.757139e-01
5.751400e-01
5.743711e-01
5.740967e-01
0.000000e+00
1.000000e+00
5.727669e-01
5.730422e-01
5.729155e-01
5.729076e-01
5.729104e-01
5.729205e-01
5.729329e-01
5.729560e-01
5.730196e-01
5.730491e-01
5.730525e-01
5.730543e-01
5.730503e-01
5.729857e-01
5.727772e-01
0.000000e+00
1.000000e+00
5.712237e-01
5.716812e-01
5.708125e-01
5.702330e-01
5.697673e-01
5.694308e-01
5.692391e-01
5.692241e-01
5.693595e-01
5.696120e-01
5.699589e-01
5.704123e-01
5.709713e-01
5.716260e-01
5.714812e-01
0.000000e+00
1.000000e+00
5.699090e-01
5.702338e-01
5.687540e-01
5.676210e-01
5.667079e-01
5.660501e-01
5.656851e-01
5.656467e-01
5.658301e-01
5.663290e-01
5.670365e-01
5.679211e-01
5.690116e-01
5.704205e-01
5.699216e-01
0.000000e+00
1.000000e+00
5.687587e-01
5.688901e-01
5.668350e-01
5.651899e-01
5.638681e-01
5.629245e-01
5.624128e-01
5.623451e-01
5.625867e-01
5.632991e-01
5.643542e-01
5.656408e-01
5.672142e-01
5.693390e-01
5.685532e-01
0.000000e+00
1.000000e+00
5.675871e-01
5.677249e-01
5.651238e-01
5.630273e-01
5.613519e-01
5.601682e-01
5.595348e-01
5.594458e-01
5.597514e-01
5.606543e-01
5.620168e-01
5.636616e-01
5.656537e-01
5.683532e-01
5.674966e-01
0.000000e+00
1.000000e+00
5.665101e-01
5.667806e-01
5.636937e-01
5.612254e-01
5.592637e-01
5.578894e-01
5.571607e-01
5.570605e-01
5.574310e-01
5.584963e-01
5.601084e-01
5.620511e-01
5.643868e-01
5.675100e-01
5.667277e-01
0.000000e+00
1.000000e+00
5.656855e-01
5.660902e-01
5.626125e-01
5.598675e-01
5.576957e-01
5.561836e-01
5.553856e-01
5.552817e-01
5.557121e-01
5.569026e-01
5.586963e-01
5.608627e-01
5.634572e-01
5.668713e-01
5.662226e-01
0.000000e+00
1.000000e+00
5.652003e-01
5.656751e-01
5.619375e-01
5.590228e-01
5.567232e-01
5.551266e-01
5.542846e-01
5.541784e-01
5.546572e-01
5.559258e-01
5.578269e-01
5.601352e-01
5.628945e-01
5.664799e-01
5.659555e-01
0.000000e+00
1.000000e+00
5.650100e-01
5.655417e-01
5.617067e-01
5.587347e-01
5.563925e-01
5.547674e-01
5.539097e-01
5.538025e-01
5.543017e-01
5.555966e-01
5.575328e-01
5.598905e-01
5.627075e-01
5.663473e-01
5.658746e-01
0.000000e+00
1.000000e+00
5.765809e-01
5.763120e-01
5.779819e-01
5.794090e-01
5.806271e-01
5.815850e-01
5.822474e-01
5.826028e-01
5.825809e-01
5.822290e-01
5.814051e-01
5.801799e-01
5.786636e-01
5.766912e-01
5.763448e-01
0.000000e+00
1.000000e+00
5.765280e-01
5.762603e-01
5.778976e-01
5.792980e-01
5.804914e-01
5.814281e-01
5.820743e-01
5.824210e-01
5.823966e-01
5.820506e-01
5.812403e-01
5.800365e-01
5.785490e-01
5.766151e-01
5.762924e-01
0.000000e+00
1.000000e+00
5.763347e-01
5.761004e-01
5.776415e-01
5.789626e-01
5.800843e-01
5.809600e-01
5.815603e-01
5.818817e-01
5.818516e-01
5.815215e-01
5.807521e-01
5.796139e-01
5.782127e-01
5.763940e-01
5.760875e-01
0.000000e+00
1.000000e+00
5.760311e-01
5.758233e-01
5.772119e-01
5.784045e-01
5.794121e-01
5.801932e-01
5.807226e-01
5.810031e-01
5.809678e-01
5.806621e-01
5.799598e-01
5.789323e-01
5.776728e-01
5.760432e-01
5.757443e-01
0.000000e+00
1.000000e+00
5.756183e-01
5.754331e-01
5.766178e-01
5.776364e-01
5.784925e-01
5.791504e-01
5.795884e-01
5.798157e-01
5.797789e-01
5.795080e-01
5.788989e-01
5.780234e-01
5.769553e-01
5.755784e-01
5.752708e-01
0.000000e+00
1.000000e+00
5.751013e-01
5.749404e-01
5.758738e-01
5.766783e-01
5.773512e-01
5.778634e-01
5.781960e-01
5.783624e-01
5.783304e-01
5.781068e-01
5.776158e-01
5.769282e-01
5.760922e-01
5.750179e-01
5.746795e-01
0.000000e+00
1.000000e+00
5.744830e-01
5.743648e-01
5.750013e-01
5.755586e-01
5.760226e-01
5.763731e-01
5.765945e-01
5.766966e-01
5.766775e-01
5.765145e-01
5.761664e-01
5.756945e-01
5.751210e-01
5.743827e-01
5.740014e-01
0.000000e+00
1.000000e+00
5.737453e-01
5.737336e-01
5.740311e-01
5.743169e-01
5.745541e-01
5.747320e-01
5.748413e-01
5.748821e-01
5.748817e-01
5.747926e-01
5.746117e-01
5.743729e-01
5.740812e-01
5.736955e-01
5.733356e-01
0.000000e+00
1.000000e+00
5.730195e-01
5.730591e-01
5.729957e-01
5.729948e-01
5.729938e-01
5.729920e-01
5.729880e-01
5.729856e-01
5.730057e-01
5.730119e-01
5.730092e-01
5.730085e-01
5.730070e-01
5.729775e-01
5.727985e-01
0.000000e+00
1.000000e+00
5.722211e-01
5.723438e-01
5.719103e-01
5.716167e-01
5.713777e-01
5.712010e-01
5.710935e-01
5.710724e-01
5.711375e-01
5.712595e-01
5.714306e-01
5.716621e-01
5.719485e-01
5.722870e-01
5.720114e-01
0.000000e+00
1.000000e+00
5.714134e-01
5.716239e-01
5.708434e-01
5.702663e-01
5.697993e-01
5.694591e-01
5.692617e-01
5.692350e-01
5.693449e-01
5.695967e-01
5.699452e-01
5.703982e-01
5.709573e-01
5.716532e-01
5.712658e-01
0.000000e+00
1.000000e+00
5.705840e-01
5.709865e-01
5.698365e-01
5.689946e-01
5.683174e-01
5.678308e-01
5.675611e-01
5.675362e-01
5.677008e-01
5.680736e-01
5.685896e-01
5.692448e-01
5.700526e-01
5.710403e-01
5.707945e-01
0.000000e+00
1.000000e+00
5.698289e-01
5.704184e-01
5.689216e-01
5.678439e-01
5.669841e-01
5.663764e-01
5.660536e-01
5.660398e-01
5.662663e-01
5.667515e-01
5.674183e-01
5.682519e-01
5.692762e-01
5.705038e-01
5.703884e-01
0.000000e+00
1.000000e+00
5.692246e-01
5.699382e-01
5.681433e-01
5.668696e-01
5.658617e-01
5.651602e-01
5.648013e-01
5.648043e-01
5.650943e-01
5.656771e-01
5.664702e-01
5.674528e-01
5.686550e-01
5.700778e-01
5.700626e-01
0.000000e+00
1.000000e+00
5.687868e-01
5.695647e-01
5.675426e-01
5.661218e-01
5.650059e-01
5.642393e-01
5.638592e-01
5.638797e-01
5.642273e-01
5.648859e-01
5.657756e-01
5.668723e-01
5.682075e-01
5.697761e-01
5.698259e-01
0.000000e+00
1.000000e+00
5.685318e-01
5.693202e-01
5.671584e-01
5.656464e-01
5.644656e-01
5.636623e-01
5.632726e-01