<?xml version="1.0"?>
<VTKFile type="StructuredGrid" version="0.1">
  <StructuredGrid WholeExtent="0 16 0 16 0 16">
    <Piece Extent="0 16 0 16 0 16">
      <PointData Scalars="temperature" Vectors="velocity">
        <DataArray type="Float32" Name="temperature" format="ascii">
1.000000e+00
6.496970e-01
5.630306e-01
5.909236e-01
6.057800e-01
6.113471e-01
6.166599e-01
6.205147e-01
6.226315e-01
6.227716e-01
6.208468e-01
6.168437e-01
6.108278e-01
6.027869e-01
5.825709e-01
5.142244e-01
0.000000e+00
1.000000e+00
6.397737e-01
5.710438e-01
5.916926e-01
6.048863e-01
6.105344e-01
6.157763e-01
6.195786e-01
6.216709e-01
6.217907e-01
6.198696e-01
6.159394e-01
6.101270e-01
6.026960e-01
5.912512e-01
5.727678e-01
0.000000e+00
1.000000e+00
6.260873e-01
5.798415e-01
5.924791e-01
6.024637e-01
6.081584e-01
6.131707e-01
6.168146e-01
6.188263e-01
6.189081e-01
6.170649e-01
6.134525e-01
6.082192e-01
6.014394e-01
5.941381e-01
5.941203e-01
0.000000e+00
1.000000e+00
6.140594e-01
5.821232e-01
5.916694e-01
5.989955e-01
6.043159e-01
6.089039e-01
6.122947e-01
6.141947e-01
6.142585e-01
6.126260e-01
6.095703e-01
6.049929e-01
5.986043e-01
5.910223e-01
5.947223e-01
0.000000e+00
1.000000e+00
6.040832e-01
5.815477e-01
5.892898e-01
5.947268e-01
5.992311e-01
6.031436e-01
6.061559e-01
6.079423e-01
6.080316e-01
6.067488e-01
6.043679e-01
6.004100e-01
5.947377e-01
5.873818e-01
5.930706e-01
0.000000e+00
1.000000e+00
5.947206e-01
5.798286e-01
5.856846e-01
5.896340e-01
5.931263e-01
5.961696e-01
5.986273e-01
6.002848e-01
6.004839e-01
5.996955e-01
5.979708e-01
5.946921e-01
5.901668e-01
5.838116e-01
5.899001e-01
0.000000e+00
1.000000e+00
5.855654e-01
5.774983e-01
5.811691e-01
5.837574e-01
5.861823e-01
5.883102e-01
5.900703e-01
5.914609e-01
5.919105e-01
5.917539e-01
5.905708e-01
5.882164e-01
5.851238e-01
5.803299e-01
5.854036e-01
0.000000e+00
1.000000e+00
5.767227e-01
5.747922e-01
5.760649e-01
5.772950e-01
5.786276e-01
5.799051e-01
5.809838e-01
5.818261e-01
5.827138e-01
5.830785e-01
5.825155e-01
5.813472e-01
5.797688e-01
5.769390e-01
5.798375e-01
0.000000e+00
1.000000e+00
5.684050e-01
5.718284e-01
5.705789e-01
5.703723e-01
5.705122e-01
5.709157e-01
5.714761e-01
5.722576e-01
5.733701e-01
5.739965e-01
5.742460e-01
5.743439e-01
5.742717e-01
5.736786e-01
5.735214e-01
0.000000e+00
1.000000e+00
5.607829e-01
5.687063e-01
5.649978e-01
5.633444e-01
5.622651e-01
5.617965e-01
5.619491e-01
5.627614e-01
5.639245e-01
5.651393e-01
5.662852e-01
5.675014e-01
5.688649e-01
5.705824e-01
5.667805e-01
0.000000e+00
1.000000e+00
5.542660e-01
5.652859e-01
5.595536e-01
5.564834e-01
5.542891e-01
5.530987e-01
5.529491e-01
5.536349e-01
5.546733e-01
5.566471e-01
5.588228e-01
5.610834e-01
5.637776e-01
5.677949e-01
5.596969e-01
0.000000e+00
1.000000e+00
5.492710e-01
5.615147e-01
5.544646e-01
5.500846e-01
5.469676e-01
5.451931e-01
5.447033e-01
5.451508e-01
5.463328e-01
5.487762e-01
5.519689e-01
5.553058e-01
5.592598e-01
5.654788e-01
5.524442e-01
0.000000e+00
1.000000e+00
5.461338e-01
5.573841e-01
5.499429e-01
5.444920e-01
5.406315e-01
5.383145e-01
5.374351e-01
5.377286e-01
5.391121e-01
5.419187e-01
5.459086e-01
5.503126e-01
5.556146e-01
5.639142e-01
5.450448e-01
0.000000e+00
1.000000e+00
5.452541e-01
5.531848e-01
5.462220e-01
5.400079e-01
5.355010e-01
5.326617e-01
5.314375e-01
5.316590e-01
5.332517e-01
5.363550e-01
5.408698e-01
5.461011e-01
5.531361e-01
5.637270e-01
5.369385e-01
0.000000e+00
1.000000e+00
5.493458e-01
5.501113e-01
5.434923e-01
5.367832e-01
5.317053e-01
5.284286e-01
5.269569e-01
5.271604e-01
5.289370e-01
5.322836e-01
5.371041e-01
5.426612e-01
5.521137e-01
5.668189e-01
5.267518e-01
0.000000e+00
1.000000e+00
5.812691e-01
5.528591e-01
5.421081e-01
5.348093e-01
5.293105e-01
5.257676e-01
5.241676e-01
5.243879e-01
5.262945e-01
5.298067e-01
5.347911e-01
5.402562e-01
5.524251e-01
5.772741e-01
5.140135e-01
0.000000e+00
1.000000e+00
6.391930e-01
5.589104e-01
5.418043e-01
5.340741e-01
5.284464e-01
5.248376e-01
5.232103e-01
5.234465e-01
5.253987e-01
5.289630e-01
5.339969e-01
5.393742e-01
5.528258e-01
5.870981e-01
5.033302e-01
0.000000e+00
1.000000e+00
6.466502e-01
5.656762e-01
5.905908e-01
6.051315e-01
6.105996e-01
6.158209e-01
6.196064e-01
6.216835e-01
6.217935e-01
6.198602e-01
6.159098e-01
6.100410e-01
6.023658e-01
5.864309e-01
5.451381e-01
0.000000e+00
1.000000e+00
6.387986e-01
5.718016e-01
5.912104e-01
6.042623e-01
6.098074e-01
6.149609e-01
6.186949e-01
6.207450e-01
6.208304e-01
6.188974e-01
6.150240e-01
6.093717e-01
6.022147e-01
5.919757e-01
5.771853e-01
0.000000e+00
1.000000e+00
6.265612e-01
5.793140e-01
5.919242e-01
6.018877e-01
6.074751e-01
6.124082e-01
6.159905e-01
6.179600e-01
6.180032e-01
6.161454e-01
6.126022e-01
6.075333e-01
6.009393e-01
5.937863e-01
5.917772e-01
0.000000e+00
1.000000e+00
6.142192e-01
5.816834e-01
5.912344e-01
5.984896e-01
6.037070e-01
6.082215e-01
6.115595e-01
6.134215e-01
6.134450e-01
6.118013e-01
6.088229e-01
6.043878e-01
5.981352e-01
5.908368e-01
5.936867e-01
0.000000e+00
1.000000e+00
6.038842e-01
5.813111e-01
5.889852e-01
5.943186e-01
5.987281e-01
6.025693e-01
6.055347e-01
6.072899e-01
6.073411e-01
6.060534e-01
6.037456e-01
5.998899e-01
5.943104e-01
5.871939e-01
5.925240e-01
0.000000e+00
1.000000e+00
5.944009e-01
5.797244e-01
5.854860e-01
5.893467e-01
5.927592e-01
5.957343e-01
5.981459e-01
5.997771e-01
5.999424e-01
5.991536e-01
5.974821e-01
5.942665e-01
5.898114e-01
5.836158e-01
5.895654e-01
0.000000e+00
1.000000e+00
5.853154e-01
5.774754e-01
5.810672e-01
5.836007e-01
5.859677e-01
5.880387e-01
5.897526e-01
5.911169e-01
5.915380e-01
5.913788e-01
5.902208e-01
5.879014e-01
5.848607e-01
5.801602e-01
5.851753e-01
0.000000e+00
1.000000e+00
5.766427e-01
5.748226e-01
5.760638e-01
5.772735e-01
5.785729e-01
5.798111e-01
5.808503e-01
5.816654e-01
5.825217e-01
5.828729e-01
5.823111e-01
5.811582e-01
5.796092e-01
5.768259e-01
5.796994e-01
0.000000e+00
1.000000e+00
5.685384e-01
5.719047e-01
5.706864e-01
5.704881e-01
5.706200e-01
5.710025e-01
5.715340e-01
5.722793e-01
5.733544e-01
5.739602e-01
5.741963e-01
5.742888e-01
5.742186e-01
5.736371e-01
5.734837e-01
0.000000e+00
1.000000e+00
5.610229e-01
5.688467e-01
5.652013e-01
5.635800e-01
5.625135e-01
5.620401e-01
5.621752e-01
5.629603e-01
5.640875e-01
5.652674e-01
5.663811e-01
5.675679e-01
5.689061e-01
5.705877e-01
5.669204e-01
0.000000e+00
1.000000e+00
5.545972e-01
5.654723e-01
5.598545e-01
5.568382e-01
5.546763e-01
5.534976e-01
5.533448e-01
5.540124e-01
5.550108e-01
5.569419e-01
5.590742e-01
5.612809e-01
5.639171e-01
5.678530e-01
5.599858e-01
0.000000e+00
1.000000e+00
5.497361e-01
5.617091e-01
5.548536e-01
5.505479e-01
5.474840e-01
5.457411e-01
5.452615e-01
5.456915e-01
5.468225e-01
5.492171e-01
5.523620e-01
5.556272e-01
5.594908e-01
5.656109e-01
5.527735e-01
0.000000e+00
1.000000e+00
5.468662e-01
5.575593e-01
5.504029e-01
5.450503e-01
5.412657e-01
5.389978e-01
5.381365e-01
5.384088e-01
5.397339e-01
5.424828e-01
5.464235e-01
5.507481e-01
5.559455e-01
5.641742e-01
5.452220e-01
0.000000e+00
1.000000e+00
5.466297e-01
5.533886e-01
5.467330e-01
5.406506e-01
5.362390e-01
5.334586e-01
5.322541e-01
5.324505e-01
5.339807e-01
5.370190e-01
5.414791e-01
5.466311e-01
5.535833e-01
5.641852e-01
5.368637e-01
0.000000e+00
1.000000e+00
5.517964e-01
5.505397e-01
5.440558e-01
5.374956e-01
5.325245e-01
5.293088e-01
5.278557e-01
5.280329e-01
5.297475e-01
5.330236e-01
5.377799e-01
5.432649e-01
5.526330e-01
5.672436e-01
5.265830e-01
0.000000e+00
1.000000e+00
5.740363e-01
5.523369e-01
5.426703e-01
5.355724e-01
5.301815e-01
5.266957e-01
5.251131e-01
5.253090e-01
5.271580e-01
5.306000e-01
5.355134e-01
5.409309e-01
5.527989e-01
5.754388e-01
5.160879e-01
0.000000e+00
1.000000e+00
6.067467e-01
5.561359e-01
5.423088e-01
5.348546e-01
5.293328e-01
5.257792e-01
5.241699e-01
5.243842e-01
5.262826e-01
5.297804e-01
5.347402e-01
5.400852e-01
5.530058e-01
5.820248e-01
5.088570e-01
0.000000e+00
1.000000e+00
6.364514e-01
5.724311e-01
5.905668e-01
6.030965e-01
6.084128e-01
6.133604e-01
6.169352e-01
6.188802e-01
6.189130e-01
6.170040e-01
6.132858e-01
6.079364e-01
6.011654e-01
5.917189e-01
5.780159e-01
0.000000e+00
1.000000e+00
6.328076e-01
5.748456e-01
5.907026e-01
6.023188e-01
6.076647e-01
6.125518e-01
6.160817e-01
6.180003e-01
6.180058e-01
6.160950e-01
6.124643e-01
6.073187e-01
6.007970e-01
5.927747e-01
5.832250e-01
0.000000e+00
1.000000e+00
6.235426e-01
5.789739e-01
5.908934e-01
6.001648e-01
6.054676e-01
6.101479e-01
6.135420e-01
6.153858e-01
6.153439e-01
6.135079e-01
6.102144e-01
6.055857e-01
5.993940e-01
5.925414e-01
5.896239e-01
0.000000e+00
1.000000e+00
6.126763e-01
5.808582e-01
5.901863e-01
5.970267e-01
6.019314e-01
6.062025e-01
6.093703e-01
6.111185e-01
6.110559e-01
6.094355e-01
6.066909e-01
6.026060e-01
5.966902e-01
5.898953e-01
5.917832e-01
0.000000e+00
1.000000e+00
6.026508e-01
5.807231e-01
5.881361e-01
5.931433e-01
5.972734e-01
6.008848e-01
6.036919e-01
6.053461e-01
6.053149e-01
6.040509e-01
6.019368e-01
5.983381e-01
5.930370e-01
5.864678e-01
5.911889e-01
0.000000e+00
1.000000e+00
5.933677e-01
5.794049e-01
5.848865e-01
5.885023e-01
5.916913e-01
5.944664e-01
5.967289e-01
5.982666e-01
5.983549e-01
5.975830e-01
5.960425e-01
5.930024e-01
5.887705e-01
5.830073e-01
5.885981e-01
0.000000e+00
1.000000e+00
5.846333e-01
5.773652e-01
5.807401e-01
5.831224e-01
5.853309e-01
5.872456e-01
5.888274e-01
5.901009e-01
5.904475e-01
5.902814e-01
5.891857e-01
5.869753e-01
5.840970e-01
5.796799e-01
5.845005e-01
0.000000e+00
1.000000e+00
5.764562e-01
5.748747e-01
5.760344e-01
5.771847e-01
5.783936e-01
5.795255e-01
5.804608e-01
5.811972e-01
5.819633e-01
5.822686e-01
5.817125e-01
5.806092e-01
5.791489e-01
5.765152e-01
5.792967e-01
0.000000e+00
1.000000e+00
5.689230e-01
5.721072e-01
5.709802e-01
5.708054e-01
5.709172e-01
5.712456e-01
5.717021e-01
5.723502e-01
5.733159e-01
5.738582e-01
5.740577e-01
5.741353e-01
5.740710e-01
5.735267e-01
5.733728e-01
0.000000e+00
1.000000e+00
5.617691e-01
5.692355e-01
5.657970e-01
5.642728e-01
5.632496e-01
5.627684e-01
5.628540e-01
5.635560e-01
5.645775e-01
5.656579e-01
5.666829e-01
5.677875e-01
5.690506e-01
5.706328e-01
5.672692e-01
0.000000e+00
1.000000e+00
5.556289e-01
5.660090e-01
5.607429e-01
5.578921e-01
5.558297e-01
5.546871e-01
5.545176e-01
5.551260e-01
5.560212e-01
5.578224e-01
5.598234e-01
5.618816e-01
5.643544e-01
5.680634e-01
5.607120e-01
0.000000e+00
1.000000e+00
5.510820e-01
5.623477e-01
5.560061e-01
5.519269e-01
5.490173e-01
5.473579e-01
5.468994e-01
5.472836e-01
5.482894e-01
5.505355e-01
5.535200e-01
5.565787e-01
5.601923e-01
5.660169e-01
5.537294e-01
0.000000e+00
1.000000e+00
5.486551e-01
5.583250e-01
5.517705e-01
5.467057e-01
5.431289e-01
5.409930e-01
5.401844e-01
5.404118e-01
5.415930e-01
5.441746e-01
5.479394e-01
5.520147e-01
5.568879e-01
5.648288e-01
5.462623e-01
0.000000e+00
1.000000e+00
5.489909e-01
5.544381e-01
5.482588e-01
5.425232e-01
5.383744e-01
5.357676e-01
5.346347e-01
5.347843e-01
5.361592e-01
5.390102e-01
5.432835e-01
5.481751e-01
5.547067e-01
5.650098e-01
5.381581e-01
0.000000e+00
1.000000e+00
5.531537e-01
5.518413e-01
5.456997e-01
5.395185e-01
5.348637e-01
5.318500e-01
5.304782e-01
5.306081e-01
5.321637e-01
5.352383e-01
5.397937e-01
5.450755e-01
5.536900e-01
5.672009e-01
5.294996e-01
0.000000e+00
1.000000e+00
5.618122e-01
5.516377e-01
5.442648e-01
5.376875e-01
5.326531e-01
5.293780e-01
5.278786e-01
5.280292e-01
5.297233e-01
5.329593e-01
5.376553e-01
5.429818e-01
5.533176e-01
5.708512e-01
5.226628e-01
0.000000e+00
1.000000e+00
5.668515e-01
5.521672e-01
5.437829e-01
5.370111e-01
5.318530e-01
5.285071e-01
5.269805e-01
5.271520e-01
5.289006e-01
5.321936e-01
5.369310e-01
5.422433e-01
5.530945e-01
5.725518e-01
5.205303e-01
0.000000e+00
1.000000e+00
6.230014e-01
5.775667e-01
5.903818e-01
5.997347e-01
6.048007e-01
6.093089e-01
6.125622e-01
6.143104e-01
6.142605e-01
6.124739e-01
6.092221e-01
6.046274e-01
5.985666e-01
5.916083e-01
5.875923e-01
0.000000e+00
1.000000e+00
6.218814e-01
5.778694e-01
5.901446e-01
5.991106e-01
6.041343e-01
6.085835e-01
6.117986e-01
6.135235e-01
6.134453e-01
6.116596e-01
6.084982e-01
6.040610e-01
5.981135e-01
5.913459e-01
5.871111e-01
0.000000e+00
1.000000e+00
6.165132e-01
5.790918e-01
5.896891e-01
5.973463e-01
6.021844e-01
6.064270e-01
6.095206e-01
6.111808e-01
6.110546e-01
6.093430e-01
6.064880e-01
6.024314e-01
5.966964e-01
5.902466e-01
5.884991e-01
0.000000e+00
1.000000e+00
6.086257e-01
5.799456e-01
5.887041e-01
5.946641e-01
5.990572e-01
6.028971e-01
6.057732e-01
6.073497e-01
6.072043e-01
6.056965e-01
6.033130e-01
5.996623e-01
5.942257e-01
5.880101e-01
5.894949e-01
0.000000e+00
1.000000e+00
6.000982e-01
5.798260e-01
5.867738e-01
5.912400e-01
5.949268e-01
5.981469e-01
6.006717e-01
6.021605e-01
6.020488e-01
6.008743e-01
5.990225e-01
5.957618e-01
5.909335e-01
5.851061e-01
5.890421e-01
0.000000e+00
1.000000e+00
5.916665e-01
5.788118e-01
5.838580e-01
5.871057e-01
5.899552e-01
5.924129e-01
5.944191e-01
5.957904e-01
5.957967e-01
5.950751e-01
5.936968e-01
5.909233e-01
5.870910e-01
5.820011e-01
5.869069e-01
0.000000e+00
1.000000e+00
5.836376e-01
5.770948e-01
5.801473e-01
5.822989e-01
5.842693e-01
5.859527e-01
5.873281e-01
5.884416e-01
5.886910e-01
5.885116e-01
5.874975e-01
5.854777e-01
5.828808e-01
5.789461e-01
5.833101e-01
0.000000e+00
1.000000e+00
5.762186e-01
5.748870e-01
5.759305e-01
5.769828e-01
5.780544e-01
5.790323e-01
5.798198e-01
5.804365e-01
5.810633e-01
5.812883e-01
5.807484e-01
5.797376e-01
5.784247e-01
5.760576e-01
5.785996e-01
0.000000e+00
1.000000e+00
5.695220e-01
5.723853e-01
5.714025e-01
5.712617e-01
5.713464e-01
5.716000e-01
5.719527e-01
5.724635e-01
5.732588e-01
5.737007e-01
5.738505e-01
5.739085e-01
5.738542e-01
5.733747e-01
5.732058e-01
0.000000e+00
1.000000e+00
5.630043e-01
5.698050e-01
5.667277e-01
5.653632e-01
5.644200e-01
5.639389e-01
5.639543e-01
5.645237e-01
5.653803e-01
5.663080e-01
5.672014e-01
5.681826e-01
5.693249e-01
5.707526e-01
5.677952e-01
0.000000e+00
1.000000e+00
5.573824e-01
5.668295e-01
5.621565e-01
5.595848e-01
5.576969e-01
5.566180e-01
5.564159e-01
5.569245e-01
5.576750e-01
5.592612e-01
5.610457e-01
5.628824e-01
5.651059e-01
5.684648e-01
5.618267e-01
0.000000e+00
1.000000e+00
5.533513e-01
5.634324e-01
5.578611e-01
5.541695e-01
5.515101e-01
5.499741e-01
5.495359e-01
5.498551e-01
5.506950e-01
5.526963e-01
5.553911e-01
5.581268e-01
5.613668e-01
5.667228e-01
5.553371e-01
0.000000e+00
1.000000e+00
5.513996e-01
5.598265e-01
5.540030e-01
5.494091e-01
5.461474e-01
5.442026e-01
5.434720e-01
5.436527e-01
5.446449e-01
5.469604e-01
5.503910e-01
5.540442e-01
5.583896e-01
5.657970e-01
5.484935e-01
0.000000e+00
1.000000e+00
5.516155e-01
5.565421e-01
5.507857e-01
5.455631e-01
5.418027e-01
5.394616e-01
5.384557e-01
5.385669e-01
5.397341e-01
5.423019e-01
5.462287e-01
5.506476e-01
5.563267e-01
5.658354e-01
5.416840e-01
0.000000e+00
1.000000e+00
5.531661e-01
5.542059e-01
5.484145e-01
5.427639e-01
5.385843e-01
5.359034e-01
5.346915e-01
5.347875e-01
5.361250e-01
5.389009e-01
5.431124e-01
5.479922e-01
5.550661e-01
5.665905e-01
5.358839e-01
0.000000e+00
1.000000e+00
5.542359e-01
5.530672e-01
5.470133e-01
5.410492e-01
5.365643e-01
5.336574e-01
5.323301e-01
5.324486e-01
5.339239e-01
5.368507e-01
5.411973e-01
5.462672e-01
5.542218e-01
5.671201e-01
5.327979e-01
0.000000e+00
1.000000e+00
5.527552e-01
5.527337e-01
5.465237e-01
5.404313e-01
5.358412e-01
5.328659e-01
5.315110e-01
5.316508e-01
5.331833e-01
5.361641e-01
5.405465e-01
5.456629e-01
5.537843e-01
5.668606e-01
5.327966e-01
0.000000e+00
1.000000e+00
6.105847e-01
5.794278e-01
5.889339e-01
5.954375e-01
5.998931e-01
6.037628e-01
6.066010e-01
6.081325e-01
6.080237e-01
6.064823e-01
6.038886e-01
6.000711e-01
5.946434e-01
5.884443e-01
5.892923e-01
0.000000e+00
1.000000e+00
6.102207e-01
5.792154e-01
5.886240e-01
5.949641e-01
5.993416e-01
6.031515e-01
6.059557e-01
6.074685e-01
6.073325e-01
6.057969e-01
6.032861e-01
5.995773e-01
5.942354e-01
5.881714e-01
5.884836e-01
0.000000e+00
1.000000e+00
6.074385e-01
5.791254e-01
5.878935e-01
5.936119e-01
5.977395e-01
6.013414e-01
6.040291e-01
6.054865e-01
6.053062e-01
6.038407e-01
6.015723e-01
5.981142e-01
5.929848e-01
5.871710e-01
5.877720e-01
0.000000e+00
1.000000e+00
6.024385e-01
5.790640e-01
5.867137e-01
5.914730e-01
5.951690e-01
5.983919e-01
6.008606e-01
6.022385e-01
6.020424e-01
6.007537e-01
5.988314e-01
5.956574e-01
5.908917e-01
5.854407e-01
5.872246e-01
0.000000e+00
1.000000e+00
5.961255e-01
5.787377e-01
5.849073e-01
5.886407e-01
5.917424e-01
5.944237e-01
5.965510e-01
5.978333e-01
5.976705e-01
5.966648e-01
5.951283e-01
5.922736e-01
5.881243e-01
5.831897e-01
5.863370e-01
0.000000e+00
1.000000e+00
5.892270e-01
5.779578e-01
5.824007e-01
5.851682e-01
5.875763e-01
5.896178e-01
5.912732e-01
5.924228e-01
5.923660e-01
5.917394e-01
5.905486e-01
5.881338e-01
5.848729e-01
5.806391e-01
5.845817e-01
0.000000e+00
1.000000e+00
5.823250e-01
5.766318e-01
5.792688e-01
5.811159e-01
5.827806e-01
5.841728e-01
5.852836e-01
5.861838e-01
5.863352e-01
5.861483e-01
5.852399e-01
5.834940e-01
5.812903e-01
5.780108e-01
5.816712e-01
0.000000e+00
1.000000e+00
5.759099e-01
5.748170e-01
5.757118e-01
5.766270e-01
5.775232e-01
5.783134e-01
5.789256e-01
5.793952e-01
5.798548e-01
5.799829e-01
5.794791e-01
5.786046e-01
5.774931e-01
5.754973e-01
5.776836e-01
0.000000e+00
1.000000e+00
5.702709e-01
5.726868e-01
5.718881e-01
5.717874e-01
5.718423e-01
5.720123e-01
5.722484e-01
5.726019e-01
5.731904e-01
5.735109e-01
5.736071e-01
5.736441e-01
5.736028e-01
5.732090e-01
5.730246e-01
0.000000e+00
1.000000e+00
5.646345e-01
5.704867e-01
5.679033e-01
5.667541e-01
5.659305e-01
5.654696e-01
5.654109e-01
5.658191e-01
5.664748e-01
5.672120e-01
5.679410e-01
5.687641e-01
5.697428e-01
5.709644e-01
5.684927e-01
0.000000e+00
1.000000e+00
5.597743e-01
5.678604e-01
5.639875e-01
5.618002e-01
5.601642e-01
5.591876e-01
5.589508e-01
5.593365e-01
5.599201e-01
5.612260e-01
5.627193e-01
5.642704e-01
5.661674e-01
5.690671e-01
5.632861e-01
0.000000e+00
1.000000e+00
5.564587e-01
5.649095e-01
5.602968e-01
5.571452e-01
5.548354e-01
5.534683e-01
5.530578e-01
5.533093e-01
5.539647e-01
5.556463e-01
5.579289e-01
5.602354e-01
5.629933e-01
5.677088e-01
5.575967e-01
0.000000e+00
1.000000e+00
5.547936e-01
5.619730e-01
5.569690e-01
5.530228e-01
5.501830e-01
5.484861e-01
5.478646e-01
5.480140e-01
5.487966e-01
5.507728e-01
5.537143e-01
5.567805e-01
5.604201e-01
5.669630e-01
5.519513e-01
0.000000e+00
1.000000e+00
5.540217e-01
5.594445e-01
5.541754e-01
5.496392e-01
5.463800e-01
5.443838e-01
5.435637e-01
5.436649e-01
5.445992e-01
5.468172e-01
5.502311e-01
5.539503e-01
5.584963e-01
5.666020e-01
5.470923e-01
0.000000e+00
1.000000e+00
5.530394e-01
5.575826e-01
5.520804e-01
5.471289e-01
5.435443e-01
5.413006e-01
5.403302e-01
5.404268e-01
5.415146e-01
5.439297e-01
5.476360e-01
5.518107e-01
5.571268e-01
5.662512e-01
5.437842e-01
0.000000e+00
1.000000e+00
5.514562e-01
5.565754e-01
5.508137e-01
5.455865e-01
5.417741e-01
5.393588e-01
5.382961e-01
5.384169e-01
5.396360e-01
5.421877e-01
5.460336e-01
5.504566e-01
5.561991e-01
5.656813e-01
5.425835e-01
0.000000e+00
1.000000e+00
5.499002e-01
5.563457e-01
5.503812e-01
5.450479e-01
5.411521e-01
5.386778e-01
5.375883e-01
5.377288e-01
5.390048e-01
5.416058e-01
5.454849e-01
5.499805e-01
5.558100e-01
5.652187e-01
5.428770e-01
0.000000e+00
1.000000e+00
5.992935e-01
5.792109e-01
5.860833e-01
5.904297e-01
5.939229e-01
5.969361e-01
5.992412e-01
6.005680e-01
6.004591e-01
5.993067e-01
5.974580e-01
5.943577e-01
5.898633e-01
5.844661e-01
5.879244e-01
0.000000e+00
1.000000e+00
5.990673e-01
5.790176e-01
5.858368e-01
5.900922e-01
5.935125e-01
5.964673e-01
5.987387e-01
6.000505e-01
5.999183e-01
5.987763e-01
5.969908e-01
5.939589e-01
5.895364e-01
5.842874e-01
5.874656e-01
0.000000e+00
1.000000e+00
5.975958e-01
5.786507e-01
5.851624e-01
5.891162e-01
5.923185e-01
5.950875e-01
5.972426e-01
5.985030e-01
5.983330e-01
5.972510e-01
5.956250e-01
5.927558e-01
5.885457e-01
5.836117e-01
5.864182e-01
0.000000e+00
1.000000e+00
5.947686e-01
5.781781e-01
5.840650e-01
5.875327e-01
5.903923e-01
5.928485e-01
5.947900e-01
5.959624e-01
5.957789e-01
5.948293e-01
5.934085e-01
5.907549e-01
5.869238e-01
5.824272e-01
5.850371e-01
0.000000e+00
1.000000e+00
5.907804e-01
5.776174e-01
5.825228e-01
5.853804e-01
5.877921e-01
5.898297e-01
5.914597e-01
5.925132e-01
5.923558e-01
5.916117e-01
5.904154e-01
5.880493e-01
5.847801e-01
5.808379e-01
5.835012e-01
0.000000e+00
1.000000e+00
5.859449e-01
5.769210e-01
5.805201e-01
5.827023e-01
5.845886e-01
5.861450e-01
5.873811e-01
5.882767e-01
5.882000e-01
5.877254e-01
5.867435e-01
5.847823e-01
5.822385e-01
5.789566e-01
5.817790e-01
0.000000e+00
1.000000e+00
5.806636e-01
5.759576e-01
5.780867e-01
5.795605e-01
5.808657e-01
5.819280e-01
5.827398e-01
5.833967e-01
5.834734e-01
5.833011e-01
5.825279e-01
5.811353e-01
5.794173e-01
5.769129e-01
5.795938e-01
0.000000e+00
1.000000e+00
5.755142e-01
5.746161e-01
5.753324e-01
5.760718e-01
5.767648e-01
5.773504e-01
5.777789e-01
5.780933e-01
5.783856e-01
5.784225e-01
5.779825e-01
5.772861e-01
5.764200e-01
5.748829e-01
5.765855e-01
0.000000e+00
1.000000e+00
5.710971e-01
5.729523e-01
5.723613e-01
5.723008e-01
5.723286e-01
5.724196e-01
5.725449e-01
5.727446e-01
5.731203e-01
5.733171e-01
5.733640e-01
5.733826e-01
5.733553e-01
5.730609e-01
5.728633e-01
0.000000e+00
1.000000e+00
5.665649e-01
5.712088e-01
5.692213e-01
5.683311e-01
5.676667e-01
5.672566e-01
5.671387e-01
5.673828e-01
5.678296e-01
5.683600e-01
5.689034e-01
5.695416e-01
5.703183e-01
5.712864e-01
5.693470e-01
0.000000e+00
1.000000e+00
5.627439e-01
5.690367e-01
5.661065e-01
5.643934e-01
5.630836e-01
5.622584e-01
5.620026e-01
5.622645e-01
5.626814e-01
5.636674e-01
5.648118e-01
5.660253e-01
5.675290e-01
5.698758e-01
5.650473e-01
0.000000e+00
1.000000e+00
5.602109e-01
5.667273e-01
5.631603e-01
5.606814e-01
5.588199e-01
5.576769e-01
5.573119e-01
5.575125e-01
5.579885e-01
5.593020e-01
5.610708e-01
5.628612e-01
5.650400e-01
5.688957e-01
5.605360e-01
0.000000e+00
1.000000e+00
5.583022e-01
5.646091e-01
5.604899e-01
5.573554e-01
5.550501e-01
5.536574e-01
5.531766e-01
5.533320e-01
5.539111e-01
5.554990e-01
5.578094e-01
5.601578e-01
5.629649e-01
5.681560e-01
5.566110e-01
0.000000e+00
1.000000e+00
5.562756e-01
5.628742e-01
5.582246e-01
5.545715e-01
5.519245e-01
5.503306e-01
5.497463e-01
5.498912e-01
5.505966e-01
5.524188e-01
5.551440e-01
5.579730e-01
5.613245e-01
5.674193e-01
5.537442e-01
0.000000e+00
1.000000e+00
5.541572e-01
5.616459e-01
5.564972e-01
5.524687e-01
5.495737e-01
5.478246e-01
5.471613e-01
5.473223e-01
5.481605e-01
5.501703e-01
5.531707e-01
5.563575e-01
5.601174e-01
5.666646e-01
5.520923e-01
0.000000e+00
1.000000e+00
5.525021e-01
5.610220e-01
5.554264e-01
5.511690e-01
5.481114e-01
5.462526e-01
5.455330e-01
5.457212e-01
5.466777e-01
5.488096e-01
5.519493e-01
5.553544e-01
5.593619e-01
5.660506e-01
5.515422e-01
0.000000e+00
1.000000e+00
5.516198e-01
5.608973e-01
5.550588e-01
5.507234e-01
5.476070e-01
5.457065e-01
5.449663e-01
5.451706e-01
5.461805e-01
5.483539e-01
5.515293e-01
5.550064e-01
5.590921e-01
5.657684e-01
5.516092e-01
0.000000e+00
1.000000e+00
5.888228e-01
5.777544e-01
5.820338e-01
5.847451e-01
5.871180e-01
5.891435e-01
5.907605e-01
5.918652e-01
5.918694e-01
5.912684e-01
5.900876e-01
5.877752e-01
5.846244e-01
5.804304e-01
5.845848e-01
0.000000e+00
1.000000e+00
5.886518e-01
5.776645e-01
5.818841e-01
5.845406e-01
5.868622e-01
5.888407e-01
5.904236e-01
5.915129e-01
5.914992e-01
5.909092e-01
5.897611e-01
5.874864e-01
5.843883e-01
5.803005e-01
5.843672e-01
0.000000e+00
1.000000e+00
5.878550e-01
5.774223e-01
5.814364e-01
5.839327e-01
5.861067e-01
5.879482e-01
5.894262e-01
5.904596e-01
5.904135e-01
5.898604e-01
5.887880e-01
5.866213e-01
5.836903e-01
5.798778e-01
5.836204e-01
0.000000e+00
1.000000e+00
5.864446e-01
5.770139e-01
5.806754e-01
5.829208e-01
5.848686e-01
5.864975e-01
5.877992e-01
5.887300e-01
5.886633e-01
5.881766e-01
5.871949e-01
5.852054e-01
5.825680e-01
5.791657e-01
5.823828e-01
0.000000e+00
1.000000e+00
5.843950e-01
5.764706e-01
5.796062e-01
5.815171e-01
5.831701e-01
5.845258e-01
5.855904e-01
5.863799e-01
5.863162e-01
5.859273e-01
5.850506e-01
5.833148e-01
5.810875e-01
5.781959e-01
5.807639e-01
0.000000e+00
1.000000e+00
5.817350e-01
5.758341e-01
5.782403e-01
5.797425e-01
5.810442e-01
5.820886e-01
5.828771e-01
5.834924e-01
5.834648e-01
5.832024e-01
5.824468e-01
5.810511e-01
5.793255e-01
5.770127e-01
5.789556e-01
0.000000e+00
1.000000e+00
5.785335e-01
5.751160e-01
5.766036e-01
5.776373e-01
5.785396e-01
5.792552e-01
5.797651e-01
5.801705e-01
5.802198e-01
5.800962e-01
5.794990e-01
5.785314e-01
5.773630e-01
5.756735e-01
5.771639e-01
0.000000e+00
1.000000e+00
5.750172e-01
5.742454e-01
5.747558e-01
5.752822e-01
5.757536e-01
5.761339e-01
5.763913e-01
5.765601e-01
5.767150e-01
5.766882e-01
5.763487e-01
5.758659e-01
5.752756e-01
5.742582e-01
5.752796e-01
0.000000e+00
1.000000e+00
5.719311e-01
5.731240e-01
5.727473e-01
5.727213e-01
5.727289e-01
5.727585e-01
5.727964e-01
5.728694e-01
5.730592e-01
5.731489e-01
5.731588e-01
5.731639e-01
5.731495e-01
5.729607e-01
5.727686e-01
0.000000e+00
1.000000e+00
5.687298e-01
5.718978e-01
5.705710e-01
5.699685e-01
5.694994e-01
5.691808e-01
5.690396e-01
5.691438e-01
5.694035e-01
5.697321e-01
5.700820e-01
5.705165e-01
5.710588e-01
5.717397e-01
5.703219e-01
0.000000e+00
1.000000e+00
5.661706e-01
5.703129e-01
5.683731e-01
5.671993e-01
5.662829e-01
5.656711e-01
5.654321e-01
5.655899e-01
5.658623e-01
5.665197e-01
5.672763e-01
5.681136e-01
5.691652e-01
5.708549e-01
5.670600e-01
0.000000e+00
1.000000e+00
5.639977e-01
5.688181e-01
5.662820e-01
5.645744e-01
5.632603e-01
5.624147e-01
5.621198e-01
5.622986e-01
5.626254e-01
5.635536e-01
5.647263e-01
5.659451e-01
5.674586e-01
5.701061e-01
5.642580e-01
0.000000e+00
1.000000e+00
5.616260e-01
5.675477e-01
5.643588e-01
5.621789e-01
5.605345e-01
5.595157e-01
5.591871e-01
5.593987e-01
5.598110e-01
5.609883e-01
5.625334e-01
5.640992e-01
5.660086e-01
5.693305e-01
5.622646e-01
0.000000e+00
1.000000e+00
5.593388e-01
5.665416e-01
5.627009e-01
5.601340e-01
5.582326e-01
5.570897e-01
5.567438e-01
5.570041e-01
5.575225e-01
5.589195e-01
5.607654e-01
5.626261e-01
5.648557e-01
5.685924e-01
5.609371e-01
0.000000e+00
1.000000e+00
5.575486e-01
5.658287e-01
5.614112e-01
5.585610e-01
5.564773e-01
5.552501e-01
5.548956e-01
5.552087e-01
5.558402e-01
5.574102e-01
5.594702e-01
5.615590e-01
5.640301e-01
5.680140e-01
5.601520e-01
0.000000e+00
1.000000e+00
5.564902e-01
5.654220e-01
5.605884e-01
5.575695e-01
5.553769e-01
5.540969e-01
5.537321e-01
5.540835e-01
5.548159e-01
5.564926e-01
5.586747e-01
5.609173e-01
5.635494e-01
5.676690e-01
5.597987e-01
0.000000e+00
1.000000e+00
5.560422e-01
5.653074e-01
5.603006e-01
5.572269e-01
5.549983e-01
5.537003e-01
5.533295e-01
5.536946e-01
5.544723e-01
5.561839e-01
5.584049e-01
5.607047e-01
5.633956e-01
5.675533e-01
5.597082e-01
0.000000e+00
1.000000e+00
5.792228e-01
5.754787e-01
5.771416e-01
5.784394e-01
5.796692e-01
5.807342e-01
5.815969e-01
5.822765e-01
5.825953e-01
5.826394e-01
5.820020e-01
5.807619e-01
5.791674e-01
5.766042e-01
5.797322e-01
0.000000e+00
1.000000e+00
5.791573e-01
5.754656e-01
5.770966e-01
5.783718e-01
5.795744e-01
5.806107e-01
5.814463e-01
5.821068e-01
5.824112e-01
5.824512e-01
5.818202e-01
5.805974e-01
5.790318e-01
5.765195e-01
5.796480e-01
0.000000e+00
1.000000e+00
5.788483e-01
5.754072e-01
5.769430e-01
5.781510e-01
5.792767e-01
5.802339e-01
5.809958e-01
5.816012e-01
5.818676e-01
5.818920e-01
5.812799e-01
5.801145e-01
5.786386e-01
5.762820e-01
5.792431e-01
0.000000e+00
1.000000e+00
5.783664e-01
5.752626e-01
5.766524e-01
5.777515e-01
5.787595e-01
5.796008e-01
5.802543e-01
5.807720e-01
5.809867e-01
5.809838e-01
5.804033e-01
5.793421e-01
5.780180e-01
5.759201e-01
5.785505e-01
0.000000e+00
1.000000e+00
5.776888e-01
5.750177e-01
5.762131e-01
5.771626e-01
5.780171e-01
5.787141e-01
5.792347e-01
5.796405e-01
5.798011e-01
5.797689e-01
5.792377e-01
5.783271e-01
5.772102e-01
5.754548e-01
5.775858e-01
0.000000e+00
1.000000e+00
5.768008e-01
5.746682e-01
5.756177e-01
5.763781e-01
5.770495e-01
5.775835e-01
5.779598e-01
5.782414e-01
5.783563e-01
5.783023e-01
5.778448e-01
5.771275e-01
5.762605e-01
5.749054e-01
5.763744e-01
0.000000e+00
1.000000e+00
5.756741e-01
5.742290e-01
5.748683e-01
5.754029e-01
5.758662e-01
5.762271e-01
5.764642e-01
5.766209e-01
5.767066e-01
5.766458e-01
5.762976e-01
5.758077e-01
5.752182e-01
5.742916e-01
5.749879e-01
0.000000e+00
1.000000e+00
5.742273e-01
5.737376e-01
5.739854e-01
5.742640e-01
5.745013e-01
5.746824e-01
5.747926e-01
5.748396e-01
5.749102e-01
5.748631e-01
5.746730e-01
5.744285e-01
5.741300e-01
5.736305e-01
5.736916e-01
0.000000e+00
1.000000e+00
5.727755e-01
5.731757e-01
5.729879e-01
5.729844e-01
5.729812e-01
5.729752e-01
5.729628e-01
5.729568e-01
5.730172e-01
5.730363e-01
5.730280e-01
5.730260e-01
5.730208e-01
5.729333e-01
5.727976e-01
0.000000e+00
1.000000e+00
5.710670e-01
5.724879e-01
5.718409e-01
5.715377e-01
5.712934e-01
5.711148e-01
5.710114e-01
5.710253e-01
5.711466e-01
5.712938e-01
5.714553e-01
5.716774e-01
5.719583e-01
5.723229e-01
5.711731e-01
0.000000e+00
1.000000e+00
5.693175e-01
5.717306e-01
5.706664e-01
5.700690e-01
5.695963e-01
5.692668e-01
5.691084e-01
5.691747e-01
5.693604e-01
5.696868e-01
5.700396e-01
5.704718e-01
5.710152e-01
5.718215e-01
5.696618e-01
0.000000e+00
1.000000e+00
5.674578e-01
5.711087e-01
5.695101e-01
5.686322e-01
5.679492e-01
5.674965e-01
5.673199e-01
5.674535e-01
5.677385e-01
5.682352e-01
5.687749e-01
5.693958e-01
5.701730e-01
5.712702e-01
5.689342e-01
0.000000e+00
1.000000e+00
5.657202e-01
5.705340e-01
5.683964e-01
5.672644e-01
5.664030e-01
5.658655e-01
5.657036e-01
5.659243e-01
5.663373e-01
5.670022e-01
5.677166e-01
5.685064e-01
5.694834e-01
5.707900e-01
5.683305e-01
0.000000e+00
1.000000e+00
5.643133e-01
5.700201e-01
5.673985e-01
5.660525e-01
5.650514e-01
5.644619e-01
5.643335e-01
5.646491e-01
5.652042e-01
5.660223e-01
5.668882e-01
5.678242e-01
5.689649e-01
5.704396e-01
5.678646e-01
0.000000e+00
1.000000e+00
5.632862e-01
5.695903e-01
5.665903e-01
5.650822e-01
5.639841e-01
5.633697e-01
5.632819e-01
5.636838e-01
5.643747e-01
5.653157e-01
5.663029e-01
5.673571e-01
5.686218e-01
5.702238e-01
5.675429e-01
0.000000e+00
1.000000e+00
5.626915e-01
5.692859e-01
5.660512e-01
5.644417e-01
5.632889e-01
5.626688e-01
5.626148e-01