<?xml version="1.0"?>
<VTKFile type="StructuredGrid" version="0.1">
  <StructuredGrid WholeExtent="0 16 0 16 0 16">
    <Piece Extent="0 16 0 16 0 16">
      <PointData Scalars="temperature" Vectors="velocity">
        <DataArray type="Float32" Name="temperature" format="ascii">
1.000000e+00
5.993352e-01
5.825243e-01
5.999787e-01
6.075257e-01
6.138268e-01
6.186311e-01
6.217293e-01
6.229684e-01
6.222616e-01
6.196237e-01
6.151394e-01
6.089669e-01
6.013373e-01
5.898104e-01
5.646005e-01
0.000000e+00
1.000000e+00
5.967741e-01
5.846823e-01
5.994090e-01
6.068327e-01
6.130243e-01
6.177432e-01
6.207870e-01
6.220062e-01
6.213078e-01
6.187118e-01
6.143143e-01
6.082783e-01
6.008392e-01
5.915090e-01
5.799677e-01
0.000000e+00
1.000000e+00
5.930323e-01
5.867739e-01
5.978022e-01
6.048018e-01
6.106534e-01
6.151155e-01
6.179975e-01
6.191557e-01
6.184886e-01
6.160337e-01
6.119183e-01
6.062929e-01
5.993265e-01
5.915000e-01
5.850354e-01
0.000000e+00
1.000000e+00
5.893424e-01
5.865991e-01
5.952842e-01
6.015391e-01
6.068037e-01
6.108392e-01
6.134598e-01
6.145233e-01
6.139195e-01
6.117160e-01
6.080697e-01
6.030382e-01
5.967046e-01
5.894192e-01
5.843136e-01
0.000000e+00
1.000000e+00
5.859743e-01
5.850198e-01
5.919216e-01
5.971937e-01
6.016429e-01
6.050791e-01
6.073402e-01
6.082861e-01
6.077803e-01
6.059334e-01
6.028927e-01
5.985850e-01
5.931377e-01
5.867433e-01
5.829651e-01
0.000000e+00
1.000000e+00
5.826088e-01
5.826068e-01
5.877904e-01
5.919116e-01
5.953821e-01
5.980724e-01
5.998716e-01
6.006776e-01
6.003129e-01
5.989173e-01
5.965614e-01
5.931300e-01
5.888377e-01
5.836883e-01
5.810360e-01
0.000000e+00
1.000000e+00
5.791551e-01
5.796332e-01
5.830340e-01
5.858617e-01
5.882492e-01
5.901048e-01
5.913588e-01
5.919738e-01
5.918052e-01
5.909392e-01
5.893101e-01
5.869284e-01
5.839801e-01
5.803332e-01
5.786333e-01
0.000000e+00
1.000000e+00
5.756641e-01
5.762904e-01
5.778526e-01
5.792780e-01
5.805143e-01
5.815014e-01
5.821801e-01
5.825242e-01
5.825888e-01
5.822653e-01
5.814423e-01
5.802409e-01
5.787400e-01
5.767823e-01
5.758674e-01
0.000000e+00
1.000000e+00
5.722361e-01
5.727344e-01
5.724279e-01
5.723764e-01
5.724029e-01
5.724931e-01
5.726211e-01
5.727970e-01
5.730692e-01
5.732338e-01
5.732921e-01
5.733188e-01
5.733077e-01
5.731589e-01
5.728759e-01
0.000000e+00
1.000000e+00
5.689434e-01
5.691254e-01
5.669843e-01
5.654486e-01
5.642574e-01
5.634478e-01
5.630479e-01
5.630934e-01
5.635320e-01
5.642565e-01
5.652237e-01
5.664373e-01
5.678948e-01
5.695881e-01
5.697892e-01
0.000000e+00
1.000000e+00
5.659349e-01
5.655559e-01
5.617287e-01
5.587636e-01
5.564109e-01
5.547615e-01
5.538809e-01
5.537844e-01
5.543126e-01
5.556230e-01
5.575122e-01
5.598635e-01
5.627101e-01
5.662250e-01
5.666732e-01
0.000000e+00
1.000000e+00
5.633755e-01
5.621347e-01
5.568562e-01
5.525800e-01
5.491800e-01
5.467806e-01
5.454546e-01
5.451818e-01
5.458656e-01
5.476537e-01
5.504048e-01
5.538439e-01
5.579569e-01
5.632276e-01
5.636223e-01
0.000000e+00
1.000000e+00
5.614094e-01
5.589627e-01
5.525554e-01
5.471549e-01
5.428599e-01
5.398031e-01
5.380630e-01
5.376372e-01
5.384842e-01
5.406850e-01
5.441553e-01
5.485903e-01
5.538325e-01
5.607827e-01
5.606802e-01
0.000000e+00
1.000000e+00
5.601794e-01
5.561681e-01
5.490198e-01
5.427267e-01
5.376947e-01
5.340790e-01
5.319872e-01
5.314474e-01
5.324406e-01
5.349870e-01
5.390111e-01
5.442613e-01
5.504847e-01
5.591767e-01
5.577150e-01
0.000000e+00
1.000000e+00
5.601264e-01
5.541401e-01
5.464405e-01
5.394723e-01
5.338649e-01
5.298181e-01
5.274642e-01
5.268487e-01
5.279579e-01
5.307697e-01
5.351898e-01
5.410048e-01
5.479816e-01
5.590290e-01
5.544241e-01
0.000000e+00
1.000000e+00
5.680710e-01
5.540441e-01
5.449048e-01
5.374712e-01
5.314919e-01
5.271796e-01
5.246696e-01
5.240149e-01
5.252009e-01
5.281799e-01
5.328419e-01
5.389711e-01
5.463663e-01
5.613294e-01
5.508665e-01
0.000000e+00
1.000000e+00
5.833900e-01
5.549689e-01
5.443710e-01
5.367755e-01
5.306765e-01
5.262803e-01
5.237214e-01
5.230562e-01
5.242695e-01
5.273038e-01
5.320462e-01
5.382742e-01
5.457836e-01
5.638169e-01
5.481570e-01
0.000000e+00
1.000000e+00
5.984162e-01
5.830174e-01
5.994368e-01
6.068534e-01
6.130388e-01
6.177531e-01
6.207931e-01
6.220088e-01
6.213084e-01
6.187096e-01
6.143074e-01
6.082612e-01
6.008030e-01
5.903880e-01
5.726438e-01
0.000000e+00
1.000000e+00
5.963743e-01
5.846283e-01
5.988822e-01
6.061746e-01
6.122533e-01
6.168841e-01
6.198706e-01
6.210659e-01
6.203726e-01
6.178139e-01
6.134979e-01
6.075905e-01
6.003189e-01
5.914355e-01
5.809904e-01
0.000000e+00
1.000000e+00
5.930225e-01
5.863633e-01
5.973126e-01
6.041828e-01
6.099274e-01
6.143077e-01
6.171363e-01
6.182712e-01
6.176077e-01
6.151865e-01
6.111524e-01
6.056527e-01
5.988322e-01
5.911599e-01
5.842830e-01
0.000000e+00
1.000000e+00
5.892798e-01
5.862459e-01
5.948512e-01
6.009854e-01
6.061519e-01
6.101133e-01
6.126865e-01
6.137289e-01
6.131270e-01
6.109543e-01
6.073856e-01
6.024647e-01
5.962530e-01
5.891379e-01
5.839478e-01
0.000000e+00
1.000000e+00
5.858355e-01
5.847646e-01
5.915615e-01
5.967289e-01
6.010915e-01
6.044631e-01
6.066836e-01
6.076119e-01
6.071068e-01
6.052875e-01
6.023146e-01
5.980948e-01
5.927479e-01
5.864987e-01
5.827335e-01
0.000000e+00
1.000000e+00
5.824523e-01
5.824297e-01
5.875158e-01
5.915550e-01
5.949556e-01
5.975919e-01
5.993572e-01
6.001491e-01
5.997843e-01
5.984114e-01
5.961068e-01
5.927403e-01
5.885270e-01
5.834848e-01
5.808786e-01
0.000000e+00
1.000000e+00
5.790336e-01
5.795225e-01
5.828537e-01
5.856261e-01
5.879647e-01
5.897807e-01
5.910078e-01
5.916112e-01
5.914413e-01
5.905905e-01
5.889935e-01
5.866547e-01
5.837616e-01
5.801847e-01
5.785243e-01
0.000000e+00
1.000000e+00
5.756060e-01
5.762427e-01
5.777730e-01
5.791716e-01
5.803823e-01
5.813471e-01
5.820084e-01
5.823432e-01
5.824028e-01
5.820842e-01
5.812747e-01
5.800947e-01
5.786225e-01
5.767005e-01
5.758084e-01
0.000000e+00
1.000000e+00
5.722597e-01
5.727523e-01
5.724537e-01
5.724044e-01
5.724291e-01
5.725144e-01
5.726356e-01
5.728028e-01
5.730657e-01
5.732250e-01
5.732803e-01
5.733056e-01
5.732948e-01
5.731491e-01
5.728703e-01
0.000000e+00
1.000000e+00
5.690245e-01
5.692139e-01
5.671117e-01
5.656059e-01
5.644360e-01
5.636387e-01
5.632428e-01
5.632845e-01
5.637116e-01
5.644189e-01
5.653650e-01
5.665537e-01
5.679833e-01
5.696431e-01
5.698575e-01
0.000000e+00
1.000000e+00
5.660655e-01
5.657094e-01
5.619555e-01
5.590467e-01
5.567370e-01
5.551164e-01
5.542508e-01
5.541555e-01
5.546689e-01
5.559519e-01
5.578050e-01
5.601083e-01
5.628988e-01
5.663437e-01
5.668033e-01
0.000000e+00
1.000000e+00
5.635618e-01
5.623401e-01
5.571739e-01
5.529786e-01
5.496421e-01
5.472880e-01
5.459875e-01
5.457191e-01
5.463825e-01
5.481339e-01
5.508363e-01
5.542080e-01
5.582379e-01
5.634116e-01
5.637834e-01
0.000000e+00
1.000000e+00
5.616784e-01
5.592070e-01
5.529515e-01
5.476543e-01
5.434421e-01
5.404450e-01
5.387393e-01
5.383193e-01
5.391415e-01
5.412968e-01
5.447073e-01
5.490607e-01
5.541974e-01
5.610443e-01
5.608165e-01
0.000000e+00
1.000000e+00
5.606190e-01
5.564576e-01
5.494809e-01
5.433102e-01
5.383773e-01
5.348325e-01
5.327808e-01
5.322474e-01
5.332127e-01
5.357068e-01
5.396604e-01
5.448194e-01
5.509216e-01
5.595305e-01
5.578103e-01
0.000000e+00
1.000000e+00
5.609297e-01
5.544907e-01
5.469501e-01
5.401203e-01
5.346232e-01
5.306543e-01
5.283441e-01
5.277359e-01
5.288156e-01
5.315704e-01
5.359111e-01
5.416266e-01
5.484758e-01
5.593951e-01
5.545187e-01
0.000000e+00
1.000000e+00
5.662444e-01
5.541803e-01
5.454465e-01
5.381621e-01
5.322977e-01
5.280660e-01
5.256016e-01
5.249551e-01
5.261118e-01
5.290318e-01
5.336094e-01
5.396338e-01
5.469039e-01
5.610796e-01
5.515189e-01
0.000000e+00
1.000000e+00
5.748358e-01
5.547200e-01
5.449261e-01
5.374813e-01
5.314978e-01
5.271830e-01
5.246706e-01
5.240144e-01
5.251989e-01
5.281746e-01
5.328309e-01
5.389515e-01
5.463393e-01
5.626729e-01
5.496325e-01
0.000000e+00
1.000000e+00
5.955153e-01
5.843821e-01
5.978637e-01
6.048724e-01
6.107126e-01
6.151591e-01
6.180247e-01
6.191670e-01
6.184892e-01
6.160184e-01
6.118765e-01
6.062241e-01
5.992651e-01
5.908554e-01
5.809172e-01
0.000000e+00
1.000000e+00
5.944980e-01
5.849080e-01
5.973510e-01
6.042337e-01
6.099720e-01
6.143409e-01
6.171570e-01
6.182797e-01
6.176079e-01
6.151740e-01
6.111175e-01
6.055992e-01
5.987934e-01
5.908860e-01
5.821166e-01
0.000000e+00
1.000000e+00
5.918783e-01
5.856499e-01
5.958930e-01
6.023624e-01
6.077811e-01
6.119145e-01
6.145833e-01
6.156494e-01
6.150040e-01
6.127004e-01
6.089175e-01
6.037767e-01
5.973542e-01
5.901000e-01
5.832887e-01
0.000000e+00
1.000000e+00
5.885540e-01
5.853988e-01
5.935905e-01
5.993610e-01
6.042273e-01
6.079636e-01
6.103928e-01
6.113729e-01
6.107852e-01
6.087195e-01
6.053801e-01
6.007670e-01
5.949032e-01
5.882209e-01
5.831349e-01
0.000000e+00
1.000000e+00
5.852400e-01
5.840569e-01
5.905030e-01
5.953639e-01
5.994679e-01
6.026428e-01
6.047380e-01
6.056123e-01
6.051173e-01
6.033904e-01
6.006100e-01
5.966403e-01
5.915921e-01
5.857377e-01
5.821133e-01
0.000000e+00
1.000000e+00
5.819586e-01
5.819039e-01
5.867008e-01
5.905018e-01
5.936981e-01
5.961752e-01
5.978363e-01
5.985826e-01
5.982229e-01
5.969225e-01
5.947623e-01
5.915865e-01
5.876103e-01
5.828767e-01
5.804120e-01
0.000000e+00
1.000000e+00
5.786875e-01
5.791831e-01
5.823143e-01
5.849253e-01
5.871229e-01
5.888247e-01
5.899731e-01
5.905387e-01
5.903669e-01
5.895617e-01
5.880566e-01
5.858470e-01
5.831190e-01
5.797513e-01
5.782025e-01
0.000000e+00
1.000000e+00
5.754502e-01
5.760919e-01
5.775311e-01
5.788507e-01
5.799879e-01
5.808887e-01
5.815015e-01
5.818094e-01
5.818554e-01
5.815494e-01
5.807805e-01
5.796648e-01
5.782778e-01
5.764642e-01
5.756341e-01
0.000000e+00
1.000000e+00
5.723286e-01
5.727990e-01
5.725239e-01
5.724804e-01
5.725012e-01
5.725742e-01
5.726779e-01
5.728224e-01
5.730583e-01
5.732011e-01
5.732477e-01
5.732691e-01
5.732590e-01
5.731231e-01
5.728508e-01
0.000000e+00
1.000000e+00
5.692715e-01
5.694695e-01
5.674872e-01
5.660705e-01
5.649648e-01
5.642060e-01
5.638229e-01
5.638528e-01
5.642454e-01
5.649032e-01
5.657884e-01
5.669045e-01
5.682512e-01
5.698142e-01
5.700357e-01
0.000000e+00
1.000000e+00
5.664656e-01
5.661595e-01
5.626263e-01
5.598858e-01
5.577045e-01
5.561702e-01
5.553477e-01
5.552535e-01
5.557266e-01
5.569288e-01
5.586733e-01
5.608376e-01
5.634636e-01
5.667060e-01
5.671491e-01
0.000000e+00
1.000000e+00
5.641146e-01
5.629596e-01
5.581157e-01
5.541609e-01
5.510126e-01
5.487897e-01
5.475624e-01
5.473068e-01
5.479170e-01
5.495611e-01
5.521132e-01
5.552857e-01
5.590749e-01
5.639602e-01
5.642534e-01
0.000000e+00
1.000000e+00
5.624061e-01
5.599819e-01
5.541294e-01
5.491350e-01
5.451638e-01
5.423398e-01
5.407344e-01
5.403348e-01
5.410919e-01
5.431157e-01
5.463419e-01
5.504466e-01
5.552746e-01
5.617757e-01
5.613652e-01
0.000000e+00
1.000000e+00
5.615538e-01
5.574049e-01
5.508502e-01
5.450328e-01
5.403870e-01
5.370509e-01
5.351203e-01
5.346122e-01
5.355037e-01
5.378456e-01
5.415863e-01
5.464612e-01
5.521983e-01
5.603904e-01
5.584807e-01
0.000000e+00
1.000000e+00
5.618008e-01
5.555497e-01
5.484488e-01
5.420184e-01
5.368476e-01
5.331136e-01
5.309384e-01
5.303589e-01
5.313595e-01
5.339475e-01
5.380520e-01
5.434618e-01
5.499110e-01
5.600313e-01
5.556590e-01
0.000000e+00
1.000000e+00
5.635010e-01
5.547751e-01
5.470119e-01
5.401707e-01
5.346570e-01
5.306736e-01
5.283514e-01
5.277361e-01
5.288115e-01
5.315574e-01
5.358829e-01
5.415883e-01
5.484559e-01
5.604517e-01
5.535659e-01
0.000000e+00
1.000000e+00
5.646704e-01
5.546725e-01
5.465186e-01
5.395316e-01
5.339039e-01
5.298403e-01
5.274722e-01
5.268482e-01
5.279515e-01
5.307513e-01
5.351509e-01
5.409483e-01
5.479406e-01
5.606957e-01
5.528999e-01
0.000000e+00
1.000000e+00
5.915122e-01
5.850190e-01
5.953527e-01
6.016527e-01
6.069205e-01
6.109342e-01
6.135210e-01
6.145480e-01
6.139186e-01
6.116772e-01
6.079800e-01
6.029494e-01
5.966868e-01
5.895469e-01
5.826248e-01
0.000000e+00
1.000000e+00
5.911155e-01
5.849233e-01
5.949044e-01
6.010830e-01
6.062554e-01
6.101985e-01
6.127413e-01
6.137508e-01
6.131261e-01
6.109183e-01
6.073019e-01
6.023861e-01
5.962411e-01
5.892542e-01
5.823646e-01
0.000000e+00
1.000000e+00
5.894629e-01
5.847807e-01
5.936168e-01
5.994153e-01
6.042894e-01
6.080168e-01
6.104274e-01
6.113864e-01
6.107845e-01
6.086959e-01
6.053277e-01
6.007268e-01
5.949026e-01
5.883038e-01
5.823348e-01
0.000000e+00
1.000000e+00
5.869562e-01
5.842060e-01
5.915571e-01
5.967347e-01
6.011040e-01
6.044660e-01
6.066584e-01
6.075408e-01
6.069908e-01
6.051195e-01
6.021428e-01
5.979913e-01
5.926835e-01
5.866519e-01
5.819929e-01
0.000000e+00
1.000000e+00
5.841122e-01
5.829433e-01
5.887821e-01
5.931525e-01
5.968364e-01
5.996863e-01
6.015719e-01
6.023587e-01
6.018938e-01
6.003310e-01
5.978445e-01
5.942624e-01
5.897071e-01
5.844598e-01
5.810986e-01
0.000000e+00
1.000000e+00
5.811430e-01
5.810319e-01
5.853657e-01
5.887872e-01
5.916575e-01
5.938768e-01
5.953647e-01
5.960335e-01
5.956930e-01
5.945164e-01
5.925750e-01
5.897068e-01
5.861250e-01
5.818861e-01
5.796180e-01
0.000000e+00
1.000000e+00
5.781552e-01
5.786067e-01
5.814247e-01
5.837770e-01
5.857504e-01
5.872724e-01
5.882942e-01
5.887952e-01
5.886263e-01
5.878944e-01
5.865332e-01
5.845376e-01
5.820818e-01
5.790591e-01
5.776551e-01
0.000000e+00
1.000000e+00
5.752213e-01
5.758290e-01
5.771250e-01
5.783162e-01
5.793363e-01
5.801378e-01
5.806767e-01
5.809426e-01
5.809690e-01
5.806813e-01
5.799800e-01
5.789718e-01
5.777237e-01
5.760919e-01
5.753388e-01
0.000000e+00
1.000000e+00
5.724375e-01
5.728628e-01
5.726238e-01
5.725891e-01
5.726046e-01
5.726609e-01
5.727409e-01
5.728539e-01
5.730476e-01
5.731642e-01
5.731992e-01
5.732152e-01
5.732066e-01
5.730876e-01
5.728213e-01
0.000000e+00
1.000000e+00
5.696762e-01
5.698699e-01
5.680881e-01
5.668163e-01
5.658170e-01
5.651237e-01
5.647644e-01
5.647760e-01
5.651134e-01
5.656936e-01
5.664829e-01
5.674838e-01
5.686965e-01
5.701043e-01
5.703116e-01
0.000000e+00
1.000000e+00
5.671327e-01
5.668763e-01
5.637080e-01
5.612426e-01
5.592736e-01
5.578812e-01
5.571282e-01
5.570332e-01
5.574465e-01
5.585180e-01
5.600839e-01
5.620275e-01
5.643906e-01
5.673106e-01
5.676944e-01
0.000000e+00
1.000000e+00
5.650380e-01
5.639722e-01
5.596414e-01
5.560807e-01
5.532388e-01
5.512272e-01
5.501147e-01
5.498794e-01
5.504133e-01
5.518849e-01
5.541844e-01
5.570350e-01
5.604430e-01
5.648616e-01
5.650373e-01
0.000000e+00
1.000000e+00
5.635694e-01
5.612939e-01
5.560469e-01
5.515446e-01
5.479597e-01
5.454104e-01
5.439640e-01
5.436016e-01
5.442655e-01
5.460804e-01
5.489952e-01
5.526863e-01
5.570241e-01
5.629222e-01
5.624101e-01
0.000000e+00
1.000000e+00
5.628027e-01
5.590247e-01
5.530852e-01
5.478329e-01
5.436429e-01
5.406399e-01
5.389063e-01
5.384471e-01
5.392313e-01
5.413337e-01
5.447208e-01
5.491114e-01
5.542538e-01
5.616054e-01
5.599476e-01
0.000000e+00
1.000000e+00
5.625574e-01
5.573530e-01
5.508957e-01
5.450929e-01
5.404413e-01
5.370881e-01
5.351373e-01
5.346144e-01
5.354981e-01
5.378233e-01
5.415437e-01
5.464300e-01
5.522008e-01
5.608685e-01
5.579256e-01
0.000000e+00
1.000000e+00
5.624218e-01
5.563974e-01
5.495664e-01
5.434119e-01
5.384623e-01
5.348875e-01
5.328042e-01
5.322493e-01
5.332031e-01
5.356723e-01
5.395923e-01
5.447578e-01
5.509144e-01
5.604176e-01
5.568081e-01
0.000000e+00
1.000000e+00
5.619183e-01
5.560898e-01
5.491130e-01
5.428351e-01
5.377840e-01
5.341360e-01
5.320104e-01
5.314480e-01
5.324287e-01
5.349476e-01
5.389335e-01
5.441850e-01
5.504644e-01
5.601247e-01
5.566823e-01
0.000000e+00
1.000000e+00
5.875270e-01
5.842287e-01
5.920164e-01
5.973346e-01
6.018050e-01
6.052274e-01
6.074441e-01
6.083279e-01
6.077767e-01
6.058649e-01
6.027729e-01
5.985123e-01
5.931202e-01
5.869856e-01
5.820725e-01
0.000000e+00
1.000000e+00
5.873351e-01
5.839970e-01
5.916441e-01
5.968572e-01
6.012425e-01
6.046030e-01
6.067821e-01
6.076513e-01
6.071034e-01
6.052216e-01
6.022000e-01
5.980290e-01
5.927340e-01
5.867214e-01
5.817659e-01
0.000000e+00
1.000000e+00
5.863555e-01
5.834875e-01
5.905633e-01
5.954589e-01
5.995835e-01
6.027531e-01
6.048173e-01
6.056435e-01
6.051144e-01
6.033364e-01
6.005199e-01
5.965948e-01
5.915814e-01
5.858973e-01
5.812825e-01
0.000000e+00
1.000000e+00
5.846456e-01
5.826833e-01
5.888159e-01
5.932018e-01
5.968966e-01
5.997460e-01
6.016168e-01
6.023763e-01
6.018919e-01
6.003001e-01
5.977986e-01
5.942416e-01
5.896974e-01
5.845356e-01
5.806544e-01
0.000000e+00
1.000000e+00
5.824612e-01
5.814807e-01
5.864551e-01
5.901705e-01
5.932902e-01
5.956992e-01
5.972984e-01
5.979721e-01
5.975616e-01
5.962319e-01
5.941267e-01
5.910574e-01
5.871773e-01
5.827210e-01
5.797744e-01
0.000000e+00
1.000000e+00
5.800084e-01
5.798445e-01
5.835528e-01
5.864670e-01
5.889029e-01
5.907774e-01
5.920302e-01
5.925954e-01
5.922925e-01
5.912890e-01
5.896323e-01
5.871807e-01
5.841363e-01
5.805521e-01
5.785389e-01
0.000000e+00
1.000000e+00
5.774505e-01
5.778052e-01
5.802091e-01
5.822142e-01
5.838900e-01
5.851747e-01
5.860291e-01
5.864437e-01
5.862863e-01
5.856553e-01
5.844866e-01
5.827838e-01
5.806970e-01
5.781408e-01
5.769118e-01
0.000000e+00
1.000000e+00
5.749256e-01
5.754546e-01
5.765599e-01
5.775774e-01
5.784420e-01
5.791143e-01
5.795591e-01
5.797719e-01
5.797771e-01
5.795166e-01
5.789097e-01
5.780486e-01
5.769883e-01
5.756044e-01
5.749488e-01
0.000000e+00
1.000000e+00
5.725757e-01
5.729316e-01
5.727384e-01
5.727137e-01
5.727237e-01
5.727614e-01
5.728148e-01
5.728923e-01
5.730349e-01
5.731197e-01
5.731422e-01
5.731525e-01
5.731458e-01
5.730488e-01
5.727919e-01
0.000000e+00
1.000000e+00
5.702128e-01
5.703883e-01
5.688785e-01
5.678011e-01
5.669474e-01
5.663466e-01
5.660246e-01
5.660158e-01
5.662840e-01
5.667640e-01
5.674274e-01
5.682756e-01
5.693080e-01
5.705073e-01
5.706763e-01
0.000000e+00
1.000000e+00
5.680381e-01
5.678210e-01
5.651464e-01
5.630525e-01
5.613726e-01
5.601757e-01
5.595189e-01
5.594249e-01
5.597644e-01
5.606635e-01
5.619886e-01
5.636384e-01
5.656500e-01
5.681410e-01
5.684160e-01
0.000000e+00
1.000000e+00
5.662992e-01
5.653361e-01
5.616802e-01
5.586522e-01
5.562262e-01
5.545006e-01
5.535425e-01
5.533376e-01
5.537786e-01
5.550231e-01
5.569764e-01
5.593939e-01
5.622953e-01
5.660835e-01
5.661154e-01
0.000000e+00
1.000000e+00
5.650686e-01
5.630857e-01
5.586167e-01
5.547799e-01
5.517156e-01
5.495343e-01
5.483012e-01
5.479948e-01
5.485446e-01
5.500863e-01
5.525737e-01
5.556985e-01
5.593850e-01
5.644256e-01
5.639315e-01
0.000000e+00
1.000000e+00
5.641997e-01
5.612136e-01
5.560869e-01
5.515982e-01
5.480169e-01
5.454578e-01
5.439905e-01
5.436063e-01
5.442581e-01
5.460487e-01
5.489527e-01
5.526689e-01
5.570194e-01
5.631574e-01
5.620758e-01
0.000000e+00
1.000000e+00
5.634494e-01
5.598224e-01
5.542007e-01
5.492345e-01
5.452678e-01
5.424219e-01
5.407774e-01
5.403414e-01
5.410792e-01
5.430627e-01
5.462627e-01
5.504076e-01
5.552684e-01
5.622040e-01
5.607647e-01
0.000000e+00
1.000000e+00
5.627475e-01
5.589935e-01
5.530439e-01
5.477816e-01
5.435708e-01
5.405426e-01
5.387872e-01
5.383249e-01
5.391253e-01
5.412333e-01
5.446075e-01
5.490021e-01
5.541834e-01
5.615075e-01
5.601665e-01
0.000000e+00
1.000000e+00
5.622682e-01
5.587345e-01
5.526521e-01
5.472873e-01
5.429922e-01
5.399018e-01
5.381096e-01
5.376409e-01
5.384660e-01
5.406174e-01
5.440475e-01
5.485205e-01
5.538092e-01
5.611879e-01
5.601426e-01
0.000000e+00
1.000000e+00
5.836532e-01
5.823297e-01
5.879465e-01
5.920908e-01
5.955752e-01
5.982580e-01
6.000185e-01
6.007434e-01
6.003052e-01
5.988181e-01
5.964406e-01
5.930573e-01
5.887702e-01
5.838353e-01
5.805851e-01
0.000000e+00
1.000000e+00
5.835171e-01
5.821329e-01
5.876597e-01
5.917225e-01
5.951386e-01
5.977699e-01
5.994995e-01
6.002130e-01
5.997770e-01
5.983152e-01
5.959918e-01
5.926743e-01
5.884659e-01
5.836367e-01
5.803948e-01
0.000000e+00
1.000000e+00
5.829168e-01
5.816155e-01
5.868180e-01
5.906399e-01
5.938510e-01
5.963266e-01
5.979602e-01
5.986383e-01
5.982166e-01
5.968379e-01
5.946657e-01
5.915339e-01
5.875598e-01
5.830145e-01
5.798990e-01
0.000000e+00
1.000000e+00
5.818355e-01
5.808118e-01
5.854481e-01
5.888839e-01
5.917641e-01
5.939834e-01
5.954546e-01
5.960745e-01
5.956882e-01
5.944543e-01
5.925094e-01
5.896702e-01
5.860868e-01
5.819840e-01
5.791720e-01
0.000000e+00
1.000000e+00
5.803480e-01
5.797360e-01
5.835949e-01
5.865157e-01
5.889553e-01
5.908293e-01
5.920757e-01
5.926175e-01
5.922899e-01
5.912571e-01
5.896025e-01
5.871615e-01
5.841149e-01
5.805981e-01
5.782784e-01
0.000000e+00
1.000000e+00
5.785575e-01
5.783972e-01
5.813198e-01
5.836155e-01
5.855268e-01
5.869866e-01
5.879545e-01
5.883970e-01
5.881537e-01
5.873693e-01
5.860543e-01
5.841152e-01
5.817290e-01
5.789217e-01
5.772302e-01
0.000000e+00
1.000000e+00
5.765832e-01
5.768013e-01
5.787022e-01
5.802832e-01
5.815997e-01
5.826013e-01
5.832574e-01
5.835703e-01
5.834378e-01
5.829354e-01
5.820026e-01
5.806611e-01
5.790251e-01
5.770325e-01
5.759834e-01
0.000000e+00
1.000000e+00
5.745725e-01
5.749713e-01
5.758447e-01
5.766486e-01
5.773260e-01
5.778464e-01
5.781836e-01
5.783374e-01
5.783256e-01
5.781047e-01
5.776175e-01
5.769388e-01
5.761071e-01
5.750273e-01
5.744766e-01
0.000000e+00
1.000000e+00
5.727321e-01
5.729920e-01
5.728498e-01
5.728351e-01
5.728400e-01
5.728603e-01
5.728886e-01
5.729316e-01
5.730220e-01
5.730744e-01
5.730853e-01
5.730905e-01
5.730859e-01
5.730142e-01
5.727681e-01
0.000000e+00
1.000000e+00
5.708565e-01
5.709929e-01
5.698147e-01
5.689725e-01
5.682986e-01
5.678163e-01
5.675471e-01
5.675213e-01
5.677144e-01
5.680791e-01
5.685927e-01
5.692570e-01
5.700695e-01
5.710143e-01
5.711172e-01
0.000000e+00
1.000000e+00
5.691594e-01
5.689510e-01
5.668726e-01
5.652311e-01
5.639072e-01
5.629546e-01
5.624214e-01
5.623350e-01
5.625930e-01
5.632888e-01
5.643219e-01
5.656164e-01
5.672007e-01
5.691725e-01
5.692896e-01
0.000000e+00
1.000000e+00
5.678300e-01
5.670006e-01
5.641399e-01
5.617620e-01
5.598473e-01
5.584756e-01
5.577091e-01
5.575476e-01
5.578864e-01
5.588617e-01
5.603901e-01
5.622814e-01
5.645682e-01
5.675700e-01
5.674761e-01
0.000000e+00
1.000000e+00
5.667353e-01
5.652723e-01
5.617230e-01
5.587016e-01
5.562778e-01
5.545475e-01
5.535749e-01
5.533454e-01
5.537693e-01
5.549878e-01
5.569454e-01
5.593781e-01
5.622789e-01
5.662078e-01
5.658873e-01
0.000000e+00
1.000000e+00
5.657204e-01
5.638539e-01
5.597210e-01
5.561748e-01
5.533389e-01
5.513173e-01
5.501735e-01
5.498923e-01
5.503967e-01
5.518197e-01
5.541198e-01
5.570036e-01
5.604129e-01
5.650634e-01
5.646616e-01
0.000000e+00
1.000000e+00
5.648150e-01
5.628116e-01
5.582215e-01
5.542876e-01
5.511479e-01
5.489095e-01
5.476371e-01
5.473215e-01
5.478953e-01
5.494763e-01
5.520224e-01
5.552390e-01
5.590328e-01
5.641581e-01
5.638638e-01
0.000000e+00
1.000000e+00
5.641799e-01
5.621975e-01
5.572964e-01
5.531244e-01
5.497957e-01
5.474207e-01
5.460661e-01
5.457318e-01
5.463580e-01
5.480399e-01
5.507298e-01
5.541478e-01
5.581854e-01
5.635545e-01
5.634890e-01
0.000000e+00
1.000000e+00
5.638942e-01
5.620080e-01
5.569833e-01
5.527302e-01
5.493368e-01
5.469144e-01
5.455313e-01
5.451918e-01
5.458394e-01
5.475562e-01
5.502916e-01
5.537760e-01
5.578980e-01
5.633271e-01
5.634273e-01
0.000000e+00
1.000000e+00
5.798513e-01
5.796483e-01
5.832539e-01
5.860950e-01
5.884750e-01
5.903085e-01
5.915279e-01
5.920737e-01
5.917957e-01
5.908184e-01
5.892001e-01
5.868241e-01
5.838628e-01
5.803552e-01
5.784691e-01
0.000000e+00
1.000000e+00
5.797525e-01
5.795214e-01
5.830619e-01
5.858480e-01
5.881807e-01
5.899772e-01
5.911726e-01
5.917095e-01
5.914326e-01
5.904739e-01
5.888895e-01
5.865568e-01
5.836509e-01
5.802167e-01
5.783608e-01
0.000000e+00
1.000000e+00
5.793879e-01
5.791535e-01
5.824926e-01
5.851166e-01
5.873105e-01
5.889973e-01
5.901206e-01
5.906282e-01
5.903597e-01
5.894574e-01
5.879672e-01
5.857634e-01
5.830240e-01
5.797978e-01
5.780161e-01
0.000000e+00
1.000000e+00
5.787666e-01
5.785530e-01
5.815603e-01
5.839240e-01
5.858956e-01
5.874065e-01
5.884105e-01
5.888677e-01
5.886209e-01
5.878118e-01
5.864655e-01
5.844731e-01
5.820089e-01
5.791115e-01
5.774508e-01
0.000000e+00
1.000000e+00
5.778996e-01
5.777452e-01
5.802957e-01
5.823093e-01
5.839844e-01
5.852617e-01
5.861051e-01
5.864934e-01
5.862831e-01
5.856013e-01
5.844442e-01
5.827411e-01
5.806499e-01
5.781852e-01
5.767015e-01
0.000000e+00
1.000000e+00
5.768138e-01
5.767630e-01
5.787411e-01
5.803265e-01
5.816430e-01
5.826410e-01
5.832915e-01
5.835948e-01
5.834367e-01
5.829114e-01
5.819844e-01
5.806410e-01
5.790038e-01
5.770563e-01
5.758299e-01
0.000000e+00
1.000000e+00
5.755500e-01
5.756387e-01
5.769511e-01
5.780447e-01
5.789527e-01
5.796389e-01
5.800787e-01
5.802817e-01
5.801909e-01
5.798433e-01
5.791851e-01
5.782601e-01
5.771368e-01
5.757717e-01
5.749062e-01
0.000000e+00
1.000000e+00
5.741714e-01
5.743876e-01
5.749949e-01
5.755524e-01
5.760180e-01
5.763715e-01
5.765950e-01
5.766891e-01
5.766704e-01
5.765052e-01
5.761610e-01
5.756926e-01
5.751211e-01
5.743875e-01
5.739205e-01
0.000000e+00
1.000000e+00
5.728954e-01
5.730306e-01
5.729407e-01
5.729345e-01
5.729357e-01
5.729422e-01
5.729507e-01
5.729656e-01
5.730107e-01
5.730350e-01
5.730372e-01
5.730387e-01
5.730361e-01
5.729912e-01
5.727599e-01
0.000000e+00
1.000000e+00
5.715895e-01
5.716491e-01
5.708465e-01
5.702699e-01
5.698035e-01
5.694636e-01
5.692649e-01
5.692311e-01
5.693517e-01
5.695938e-01
5.699414e-01
5.703976e-01
5.709587e-01
5.716136e-01
5.716148e-01
0.000000e+00
1.000000e+00
5.704546e-01
5.702231e-01
5.688071e-01
5.676792e-01
5.667650e-01
5.661001e-01
5.657179e-01
5.656498e-01
5.658255e-01
5.662994e-01
5.670021e-01
5.678939e-01
5.689898e-01
5.703644e-01
5.702857e-01
0.000000e+00
1.000000e+00
5.694517e-01
5.689017e-01
5.669118e-01
5.652741e-01
5.639496e-01
5.629924e-01
5.624509e-01
5.623460e-01
5.625819e-01
5.632604e-01
5.643010e-01
5.655978e-01
5.671815e-01
5.692344e-01
5.691103e-01
0.000000e+00
1.000000e+00
5.684557e-01
5.677516e-01
5.652296e-01
5.631431e-01
5.614620e-01
5.602559e-01
5.595802e-01
5.594456e-01
5.597435e-01
5.606048e-01
5.619431e-01
5.635994e-01
5.656073e-01
5.682155e-01
5.681824e-01
0.000000e+00
1.000000e+00
5.675555e-01
5.668153e-01
5.638306e-01
5.613744e-01
5.594033e-01
5.579976e-01
5.572151e-01
5.570604e-01
5.574179e-01
5.584342e-01
5.600150e-01
5.619691e-01
5.643254e-01
5.673539e-01
5.674920e-01
0.000000e+00
1.000000e+00
5.668693e-01
5.661270e-01
5.627777e-01
5.600465e-01
5.578616e-01
5.563102e-01
5.554496e-01
5.552827e-01
5.556930e-01
5.568284e-01
5.585864e-01
5.607636e-01
5.633814e-01
5.667047e-01
5.670275e-01
0.000000e+00
1.000000e+00
5.664639e-01
5.657099e-01
5.621227e-01
5.592225e-01
5.569071e-01
5.552662e-01
5.543564e-01
5.541820e-01
5.546328e-01
5.558427e-01
5.577066e-01
5.600241e-01
5.628072e-01
5.663062e-01
5.667741e-01
0.000000e+00
1.000000e+00
5.663087e-01
5.655737e-01
5.618995e-01
5.589423e-01
5.565831e-01
5.549120e-01
5.539850e-01
5.538077e-01
5.542750e-01
5.555103e-01
5.574089e-01
5.597750e-01
5.626155e-01
5.661712e-01
5.666963e-01
0.000000e+00
1.000000e+00
5.761660e-01
5.764397e-01
5.781080e-01
5.795479e-01
5.807622e-01
5.817017e-01
5.823308e-01
5.826341e-01
5.825699e-01
5.821624e-01
5.813225e-01
5.801009e-01
5.785951e-01
5.767037e-01
5.758803e-01
0.000000e+00
1.000000e+00
5.761169e-01
5.763820e-01
5.780180e-01
5.794308e-01
5.806209e-01
5.815404e-01
5.821549e-01
5.824509e-01
5.823861e-01
5.819856e-01
5.811604e-01
5.799606e-01
5.784834e-01
5.766288e-01
5.758324e-01
0.000000e+00
1.000000e+00
5.759456e-01
5.762061e-01
5.777469e-01
5.790792e-01
5.801987e-01
5.810603e-01
5.816332e-01
5.819079e-01
5.818422e-01
5.814615e-01
5.806799e-01
5.795465e-01
5.781549e-01
5.764100e-01
5.756539e-01
0.000000e+00
1.000000e+00
5.756756e-01
5.759082e-01
5.772967e-01
5.784985e-01
5.795050e-01
5.802756e-01
5.807835e-01
5.810242e-01
5.809593e-01
5.806105e-01
5.798998e-01
5.788771e-01
5.776258e-01
5.760607e-01
5.753559e-01
0.000000e+00
1.000000e+00
5.753100e-01
5.754952e-01
5.766795e-01
5.777048e-01
5.785604e-01
5.792116e-01
5.796350e-01
5.798313e-01
5.797712e-01
5.794669e-01
5.788535e-01
5.779824e-01
5.769204e-01
5.755959e-01
5.749458e-01
0.000000e+00
1.000000e+00
5.748554e-01
5.749799e-01
5.759132e-01
5.767219e-01
5.773945e-01
5.779030e-01
5.782279e-01
5.783729e-01
5.783233e-01
5.780769e-01
5.775855e-01
5.769010e-01
5.760691e-01
5.750339e-01
5.744352e-01
0.000000e+00
1.000000e+00
5.743179e-01
5.743827e-01
5.750221e-01
5.755814e-01
5.760452e-01
5.763941e-01
5.766128e-01
5.767033e-01
5.766708e-01
5.764955e-01
5.761491e-01
5.756788e-01
5.751075e-01
5.743958e-01
5.738498e-01
0.000000e+00
1.000000e+00
5.736886e-01
5.737306e-01
5.740385e-01
5.743250e-01
5.745620e-01
5.747393e-01
5.748484e-01
5.748871e-01
5.748753e-01
5.747830e-01
5.746034e-01
5.743650e-01
5.740743e-01
5.737049e-01
5.732659e-01
0.000000e+00
1.000000e+00
5.730690e-01
5.730412e-01
5.729973e-01
5.729965e-01
5.729957e-01
5.729943e-01
5.729915e-01
5.729892e-01
5.730029e-01
5.730087e-01
5.730065e-01
5.730060e-01
5.730049e-01
5.729854e-01
5.727767e-01
0.000000e+00
1.000000e+00
5.723982e-01
5.723231e-01
5.719204e-01
5.716279e-01
5.713891e-01
5.712123e-01
5.711044e-01
5.710773e-01
5.711352e-01
5.712544e-01
5.714272e-01
5.716599e-01
5.719469e-01
5.722864e-01
5.721024e-01
0.000000e+00
1.000000e+00
5.717242e-01
5.716089e-01
5.708684e-01
5.702938e-01
5.698267e-01
5.694843e-01
5.692817e-01
5.692401e-01
5.693418e-01
5.695828e-01
5.699318e-01
5.703877e-01
5.709488e-01
5.716347e-01
5.714629e-01
0.000000e+00
1.000000e+00
5.710415e-01
5.709688e-01
5.698821e-01
5.690447e-01
5.683669e-01
5.678747e-01
5.675922e-01
5.675425e-01
5.676939e-01
5.680488e-01
5.685631e-01
5.692233e-01
5.700351e-01
5.710122e-01
5.710263e-01
0.000000e+00
1.000000e+00
5.704238e-01
5.704007e-01
5.689945e-01
5.679239e-01
5.670621e-01
5.664436e-01
5.660985e-01
5.660484e-01
5.662536e-01
5.667135e-01
5.673753e-01
5.682157e-01
5.692462e-01
5.704670e-01
5.706487e-01
0.000000e+00
1.000000e+00
5.699289e-01
5.699246e-01
5.682464e-01
5.669824e-01
5.659707e-01
5.652522e-01
5.648610e-01
5.648161e-01
5.650747e-01
5.656250e-01
5.664098e-01
5.674000e-01
5.686104e-01
5.700300e-01
5.703442e-01
0.000000e+00
1.000000e+00
5.695704e-01
5.695590e-01
5.676745e-01
5.662655e-01
5.651436e-01
5.643541e-01
5.639327e-01
5.638953e-01
5.642007e-01
5.648211e-01
5.656993e-01
5.668033e-01
5.681482e-01
5.697162e-01
5.701217e-01
0.000000e+00
1.000000e+00
5.693606e-01
5.693238e-01
5.673121e-01
5.658133e-01
5.646246e-01
5.637935e-01
5.633560e-01