<?xml version="1.0"?>
<VTKFile type="StructuredGrid" version="0.1">
  <StructuredGrid WholeExtent="0 16 0 16 0 16">
    <Piece Extent="0 16 0 16 0 16">
      <PointData Scalars="temperature" Vectors="velocity">
        <DataArray type="Float32" Name="temperature" format="ascii">
1.000000e+00
5.994591e-01
5.824586e-01
5.999724e-01
6.075190e-01
6.138205e-01
6.186261e-01
6.217263e-01
6.229677e-01
6.222632e-01
6.196272e-01
6.151442e-01
6.089722e-01
6.013423e-01
5.897880e-01
5.644423e-01
0.000000e+00
1.000000e+00
5.968823e-01
5.846331e-01
5.994025e-01
6.068259e-01
6.130181e-01
6.177383e-01
6.207841e-01
6.220055e-01
6.213093e-01
6.187151e-01
6.143189e-01
6.082835e-01
6.008444e-01
5.915065e-01
5.799476e-01
0.000000e+00
1.000000e+00
5.931178e-01
5.867459e-01
5.977954e-01
6.047949e-01
6.106471e-01
6.151106e-01
6.179945e-01
6.191549e-01
6.184900e-01
6.160366e-01
6.119226e-01
6.062983e-01
5.993323e-01
5.915078e-01
5.850645e-01
0.000000e+00
1.000000e+00
5.894065e-01
5.865821e-01
5.952778e-01
6.015322e-01
6.067974e-01
6.108343e-01
6.134568e-01
6.145224e-01
6.139205e-01
6.117184e-01
6.080738e-01
6.030437e-01
5.967099e-01
5.894238e-01
5.843444e-01
0.000000e+00
1.000000e+00
5.860212e-01
5.850082e-01
5.919157e-01
5.971872e-01
6.016366e-01
6.050741e-01
6.073370e-01
6.082850e-01
6.077810e-01
6.059354e-01
6.028967e-01
5.985900e-01
5.931421e-01
5.867451e-01
5.829948e-01
0.000000e+00
1.000000e+00
5.826405e-01
5.825986e-01
5.877852e-01
5.919056e-01
5.953761e-01
5.980673e-01
5.998681e-01
6.006762e-01
6.003133e-01
5.989190e-01
5.965651e-01
5.931341e-01
5.888413e-01
5.836887e-01
5.810619e-01
0.000000e+00
1.000000e+00
5.791725e-01
5.796275e-01
5.830291e-01
5.858561e-01
5.882436e-01
5.900998e-01
5.913550e-01
5.919718e-01
5.918053e-01
5.909410e-01
5.893133e-01
5.869318e-01
5.839832e-01
5.803332e-01
5.786529e-01
0.000000e+00
1.000000e+00
5.756680e-01
5.762866e-01
5.778479e-01
5.792727e-01
5.805091e-01
5.814969e-01
5.821766e-01
5.825219e-01
5.825883e-01
5.822671e-01
5.814450e-01
5.802438e-01
5.787429e-01
5.767827e-01
5.758788e-01
0.000000e+00
1.000000e+00
5.722277e-01
5.727321e-01
5.724231e-01
5.723711e-01
5.723978e-01
5.724886e-01
5.726177e-01
5.727948e-01
5.730692e-01
5.732356e-01
5.732944e-01
5.733215e-01
5.733104e-01
5.731604e-01
5.728775e-01
0.000000e+00
1.000000e+00
5.689239e-01
5.691242e-01
5.669793e-01
5.654431e-01
5.642520e-01
5.634432e-01
5.630445e-01
5.630915e-01
5.635325e-01
5.642585e-01
5.652264e-01
5.664402e-01
5.678976e-01
5.695910e-01
5.697802e-01
0.000000e+00
1.000000e+00
5.659062e-01
5.655551e-01
5.617234e-01
5.587577e-01
5.564053e-01
5.547567e-01
5.538776e-01
5.537833e-01
5.543131e-01
5.556252e-01
5.575158e-01
5.598669e-01
5.627131e-01
5.662299e-01
5.666527e-01
0.000000e+00
1.000000e+00
5.633402e-01
5.621331e-01
5.568504e-01
5.525737e-01
5.491741e-01
5.467760e-01
5.454519e-01
5.451813e-01
5.458666e-01
5.476561e-01
5.504090e-01
5.538481e-01
5.579604e-01
5.632350e-01
5.635895e-01
0.000000e+00
1.000000e+00
5.613706e-01
5.589588e-01
5.525489e-01
5.471481e-01
5.428539e-01
5.397986e-01
5.380607e-01
5.376372e-01
5.384857e-01
5.406878e-01
5.441598e-01
5.485954e-01
5.538367e-01
5.607939e-01
5.606342e-01
0.000000e+00
1.000000e+00
5.601410e-01
5.561606e-01
5.490127e-01
5.427196e-01
5.376887e-01
5.340749e-01
5.319853e-01
5.314477e-01
5.324426e-01
5.349904e-01
5.390159e-01
5.442670e-01
5.504898e-01
5.591943e-01
5.576533e-01
0.000000e+00
1.000000e+00
5.600946e-01
5.541300e-01
5.464332e-01
5.394654e-01
5.338590e-01
5.298141e-01
5.274625e-01
5.268493e-01
5.279604e-01
5.307737e-01
5.351949e-01
5.410105e-01
5.479872e-01
5.590601e-01
5.543414e-01
0.000000e+00
1.000000e+00
5.681057e-01
5.540426e-01
5.448979e-01
5.374643e-01
5.314861e-01
5.271756e-01
5.246679e-01
5.240156e-01
5.252038e-01
5.281843e-01
5.328472e-01
5.389767e-01
5.463716e-01
5.613880e-01
5.507586e-01
0.000000e+00
1.000000e+00
5.835494e-01
5.549793e-01
5.443641e-01
5.367685e-01
5.306706e-01
5.262763e-01
5.237197e-01
5.230570e-01
5.242724e-01
5.273083e-01
5.320516e-01
5.382797e-01
5.457885e-01
5.638984e-01
5.480291e-01
0.000000e+00
1.000000e+00
5.985361e-01
5.829572e-01
5.994305e-01
6.068467e-01
6.130327e-01
6.177483e-01
6.207902e-01
6.220082e-01
6.213100e-01
6.187129e-01
6.143119e-01
6.082663e-01
6.008079e-01
5.903747e-01
5.725586e-01
0.000000e+00
1.000000e+00
5.964814e-01
5.845810e-01
5.988756e-01
6.061679e-01
6.122471e-01
6.168793e-01
6.198677e-01
6.210652e-01
6.203741e-01
6.178170e-01
6.135022e-01
6.075955e-01
6.003241e-01
5.914358e-01
5.809810e-01
0.000000e+00
1.000000e+00
5.931093e-01
5.863348e-01
5.973059e-01
6.041760e-01
6.099213e-01
6.143029e-01
6.171334e-01
6.182705e-01
6.176090e-01
6.151892e-01
6.111564e-01
6.056580e-01
5.988380e-01
5.911677e-01
5.843070e-01
0.000000e+00
1.000000e+00
5.893445e-01
5.862284e-01
5.948449e-01
6.009786e-01
6.061457e-01
6.101085e-01
6.126836e-01
6.137281e-01
6.131280e-01
6.109565e-01
6.073896e-01
6.024702e-01
5.962583e-01
5.891428e-01
5.839767e-01
0.000000e+00
1.000000e+00
5.858824e-01
5.847530e-01
5.915558e-01
5.967225e-01
6.010854e-01
6.044582e-01
6.066805e-01
6.076109e-01
6.071075e-01
6.052893e-01
6.023185e-01
5.980997e-01
5.927521e-01
5.865006e-01
5.827624e-01
0.000000e+00
1.000000e+00
5.824835e-01
5.824218e-01
5.875108e-01
5.915491e-01
5.949497e-01
5.975869e-01
5.993538e-01
6.001478e-01
5.997846e-01
5.984130e-01
5.961105e-01
5.927443e-01
5.885304e-01
5.834852e-01
5.809040e-01
0.000000e+00
1.000000e+00
5.790506e-01
5.795171e-01
5.828489e-01
5.856207e-01
5.879593e-01
5.897759e-01
5.910041e-01
5.916093e-01
5.914413e-01
5.905922e-01
5.889966e-01
5.866580e-01
5.837646e-01
5.801846e-01
5.785436e-01
0.000000e+00
1.000000e+00
5.756098e-01
5.762391e-01
5.777684e-01
5.791665e-01
5.803773e-01
5.813427e-01
5.820049e-01
5.823409e-01
5.824023e-01
5.820859e-01
5.812773e-01
5.800975e-01
5.786252e-01
5.767008e-01
5.758196e-01
0.000000e+00
1.000000e+00
5.722515e-01
5.727501e-01
5.724491e-01
5.723993e-01
5.724242e-01
5.725101e-01
5.726323e-01
5.728007e-01
5.730658e-01
5.732268e-01
5.732826e-01
5.733082e-01
5.732974e-01
5.731504e-01
5.728718e-01
0.000000e+00
1.000000e+00
5.690054e-01
5.692128e-01
5.671069e-01
5.656006e-01
5.644308e-01
5.636342e-01
5.632394e-01
5.632827e-01
5.637121e-01
5.644208e-01
5.653677e-01
5.665565e-01
5.679859e-01
5.696459e-01
5.698488e-01
0.000000e+00
1.000000e+00
5.660372e-01
5.657087e-01
5.619504e-01
5.590411e-01
5.567315e-01
5.551118e-01
5.542477e-01
5.541545e-01
5.546693e-01
5.559540e-01
5.578084e-01
5.601116e-01
5.629016e-01
5.663483e-01
5.667832e-01
0.000000e+00
1.000000e+00
5.635271e-01
5.623385e-01
5.571682e-01
5.529724e-01
5.496364e-01
5.472834e-01
5.459848e-01
5.457186e-01
5.463834e-01
5.481362e-01
5.508403e-01
5.542121e-01
5.582412e-01
5.634189e-01
5.637510e-01
0.000000e+00
1.000000e+00
5.616408e-01
5.592030e-01
5.529452e-01
5.476476e-01
5.434362e-01
5.404407e-01
5.387371e-01
5.383193e-01
5.391429e-01
5.412994e-01
5.447117e-01
5.490658e-01
5.542015e-01
5.610556e-01
5.607705e-01
0.000000e+00
1.000000e+00
5.605828e-01
5.564499e-01
5.494739e-01
5.433033e-01
5.383715e-01
5.348285e-01
5.327789e-01
5.322478e-01
5.332147e-01
5.357100e-01
5.396651e-01
5.448250e-01
5.509267e-01
5.595485e-01
5.577480e-01
0.000000e+00
1.000000e+00
5.609030e-01
5.544807e-01
5.469430e-01
5.401135e-01
5.346175e-01
5.306504e-01
5.283424e-01
5.277365e-01
5.288181e-01
5.315742e-01
5.359160e-01
5.416323e-01
5.484814e-01
5.594264e-01
5.544353e-01
0.000000e+00
1.000000e+00
5.662634e-01
5.541768e-01
5.454397e-01
5.381554e-01
5.322921e-01
5.280621e-01
5.255999e-01
5.249559e-01
5.261146e-01
5.290360e-01
5.336146e-01
5.396393e-01
5.469093e-01
5.611332e-01
5.514148e-01
0.000000e+00
1.000000e+00
5.749252e-01
5.547247e-01
5.449193e-01
5.374745e-01
5.314920e-01
5.271791e-01
5.246689e-01
5.240152e-01
5.252017e-01
5.281789e-01
5.328361e-01
5.389570e-01
5.463443e-01
5.627420e-01
5.495146e-01
0.000000e+00
1.000000e+00
5.956192e-01
5.843380e-01
5.978574e-01
6.048661e-01
6.107069e-01
6.151546e-01
6.180220e-01
6.191664e-01
6.184906e-01
6.160212e-01
6.118805e-01
6.062290e-01
5.992704e-01
5.908571e-01
5.809102e-01
0.000000e+00
1.000000e+00
5.945958e-01
5.848696e-01
5.973446e-01
6.042272e-01
6.099662e-01
6.143364e-01
6.171543e-01
6.182791e-01
6.176092e-01
6.151765e-01
6.111213e-01
6.056040e-01
5.987988e-01
5.908912e-01
5.821216e-01
0.000000e+00
1.000000e+00
5.919602e-01
5.856232e-01
5.958866e-01
6.023559e-01
6.077753e-01
6.119100e-01
6.145807e-01
6.156487e-01
6.150052e-01
6.127025e-01
6.089211e-01
6.037819e-01
5.973599e-01
5.901072e-01
5.833083e-01
0.000000e+00
1.000000e+00
5.886167e-01
5.853816e-01
5.935845e-01
5.993546e-01
6.042215e-01
6.079591e-01
6.103901e-01
6.113722e-01
6.107861e-01
6.087212e-01
6.053837e-01
6.007722e-01
5.949081e-01
5.882257e-01
5.831607e-01
0.000000e+00
1.000000e+00
5.852847e-01
5.840457e-01
5.904978e-01
5.953579e-01
5.994622e-01
6.026382e-01
6.047351e-01
6.056115e-01
6.051179e-01
6.033919e-01
6.006136e-01
5.966450e-01
5.915960e-01
5.857397e-01
5.821401e-01
0.000000e+00
1.000000e+00
5.819884e-01
5.818966e-01
5.866963e-01
5.904965e-01
5.936928e-01
5.961706e-01
5.978332e-01
5.985814e-01
5.982232e-01
5.969238e-01
5.947657e-01
5.915902e-01
5.876135e-01
5.828771e-01
5.804360e-01
0.000000e+00
1.000000e+00
5.787035e-01
5.791782e-01
5.823102e-01
5.849205e-01
5.871180e-01
5.888203e-01
5.899697e-01
5.905370e-01
5.903669e-01
5.895632e-01
5.880595e-01
5.858500e-01
5.831217e-01
5.797510e-01
5.782208e-01
0.000000e+00
1.000000e+00
5.754537e-01
5.760888e-01
5.775272e-01
5.788463e-01
5.799835e-01
5.808848e-01
5.814985e-01
5.818074e-01
5.818550e-01
5.815510e-01
5.807828e-01
5.796673e-01
5.782802e-01
5.764642e-01
5.756447e-01
0.000000e+00
1.000000e+00
5.723210e-01
5.727972e-01
5.725198e-01
5.724760e-01
5.724969e-01
5.725704e-01
5.726750e-01
5.728205e-01
5.730583e-01
5.732027e-01
5.732497e-01
5.732714e-01
5.732613e-01
5.731242e-01
5.728522e-01
0.000000e+00
1.000000e+00
5.692535e-01
5.694688e-01
5.674830e-01
5.660658e-01
5.649602e-01
5.642020e-01
5.638198e-01
5.638512e-01
5.642459e-01
5.649050e-01
5.657908e-01
5.669069e-01
5.682534e-01
5.698166e-01
5.700275e-01
0.000000e+00
1.000000e+00
5.664389e-01
5.661590e-01
5.626217e-01
5.598807e-01
5.576995e-01
5.561660e-01
5.553448e-01
5.552526e-01
5.557271e-01
5.569307e-01
5.586765e-01
5.608405e-01
5.634661e-01
5.667101e-01
5.671302e-01
0.000000e+00
1.000000e+00
5.640819e-01
5.629580e-01
5.581106e-01
5.541552e-01
5.510073e-01
5.487855e-01
5.475600e-01
5.473064e-01
5.479177e-01
5.495631e-01
5.521169e-01
5.552895e-01
5.590779e-01
5.639670e-01
5.642225e-01
0.000000e+00
1.000000e+00
5.623711e-01
5.599778e-01
5.541235e-01
5.491288e-01
5.451583e-01
5.423357e-01
5.407324e-01
5.403348e-01
5.410931e-01
5.431180e-01
5.463459e-01
5.504513e-01
5.552784e-01
5.617866e-01
5.613206e-01
0.000000e+00
1.000000e+00
5.615212e-01
5.573975e-01
5.508436e-01
5.450262e-01
5.403815e-01
5.370471e-01
5.351185e-01
5.346125e-01
5.355054e-01
5.378484e-01
5.415905e-01
5.464665e-01
5.522031e-01
5.604082e-01
5.584203e-01
0.000000e+00
1.000000e+00
5.617769e-01
5.555402e-01
5.484420e-01
5.420119e-01
5.368422e-01
5.331099e-01
5.309368e-01
5.303594e-01
5.313616e-01
5.339508e-01
5.380564e-01
5.434673e-01
5.499164e-01
5.600596e-01
5.555811e-01
0.000000e+00
1.000000e+00
5.634945e-01
5.547675e-01
5.470053e-01
5.401643e-01
5.346516e-01
5.306699e-01
5.283498e-01
5.277367e-01
5.288139e-01
5.315611e-01
5.358876e-01
5.415936e-01
5.484613e-01
5.604914e-01
5.534745e-01
0.000000e+00
1.000000e+00
5.646746e-01
5.546670e-01
5.465119e-01
5.395251e-01
5.338984e-01
5.298365e-01
5.274705e-01
5.268488e-01
5.279540e-01
5.307552e-01
5.351557e-01
5.409535e-01
5.479458e-01
5.607399e-01
5.528046e-01
0.000000e+00
1.000000e+00
5.915929e-01
5.849910e-01
5.953469e-01
6.016468e-01
6.069151e-01
6.109301e-01
6.135185e-01
6.145475e-01
6.139198e-01
6.116793e-01
6.079835e-01
6.029541e-01
5.966920e-01
5.895529e-01
5.826407e-01
0.000000e+00
1.000000e+00
5.911944e-01
5.848967e-01
5.948985e-01
6.010770e-01
6.062501e-01
6.101944e-01
6.127389e-01
6.137503e-01
6.131271e-01
6.109202e-01
6.073052e-01
6.023909e-01
5.962463e-01
5.892603e-01
5.823795e-01
0.000000e+00
1.000000e+00
5.895326e-01
5.847593e-01
5.936111e-01
5.994094e-01
6.042841e-01
6.080127e-01
6.104251e-01
6.113859e-01
6.107854e-01
6.086976e-01
6.053309e-01
6.007316e-01
5.949075e-01
5.883095e-01
5.823535e-01
0.000000e+00
1.000000e+00
5.870122e-01
5.841907e-01
5.915519e-01
5.967290e-01
6.010988e-01
6.044620e-01
6.066560e-01
6.075402e-01
6.069915e-01
6.051209e-01
6.021460e-01
5.979960e-01
5.926877e-01
5.866558e-01
5.820153e-01
0.000000e+00
1.000000e+00
5.841536e-01
5.829332e-01
5.887777e-01
5.931474e-01
5.968314e-01
5.996823e-01
6.015694e-01
6.023580e-01
6.018943e-01
6.003322e-01
5.978478e-01
5.942665e-01
5.897104e-01
5.844617e-01
5.811221e-01
0.000000e+00
1.000000e+00
5.811704e-01
5.810254e-01
5.853618e-01
5.887827e-01
5.916530e-01
5.938729e-01
5.953620e-01
5.960325e-01
5.956933e-01
5.945175e-01
5.925780e-01
5.897101e-01
5.861276e-01
5.818864e-01
5.796394e-01
0.000000e+00
1.000000e+00
5.781699e-01
5.786026e-01
5.814212e-01
5.837730e-01
5.857464e-01
5.872687e-01
5.882914e-01
5.887938e-01
5.886263e-01
5.878957e-01
5.865357e-01
5.845401e-01
5.820839e-01
5.790587e-01
5.776716e-01
0.000000e+00
1.000000e+00
5.752245e-01
5.758266e-01
5.771218e-01
5.783127e-01
5.793328e-01
5.801347e-01
5.806741e-01
5.809409e-01
5.809686e-01
5.806827e-01
5.799819e-01
5.789738e-01
5.777256e-01
5.760917e-01
5.753482e-01
0.000000e+00
1.000000e+00
5.724309e-01
5.728615e-01
5.726206e-01
5.725856e-01
5.726012e-01
5.726579e-01
5.727385e-01
5.728524e-01
5.730476e-01
5.731655e-01
5.732008e-01
5.732170e-01
5.732084e-01
5.730884e-01
5.728224e-01
0.000000e+00
1.000000e+00
5.696602e-01
5.698697e-01
5.680847e-01
5.668125e-01
5.658133e-01
5.651204e-01
5.647618e-01
5.647746e-01
5.651137e-01
5.656950e-01
5.664848e-01
5.674857e-01
5.686983e-01
5.701061e-01
5.703043e-01
0.000000e+00
1.000000e+00
5.671087e-01
5.668761e-01
5.637042e-01
5.612384e-01
5.592695e-01
5.578776e-01
5.571257e-01
5.570324e-01
5.574469e-01
5.585195e-01
5.600866e-01
5.620299e-01
5.643926e-01
5.673141e-01
5.676772e-01
0.000000e+00
1.000000e+00
5.650087e-01
5.639708e-01
5.596371e-01
5.560759e-01
5.532342e-01
5.512235e-01
5.501126e-01
5.498791e-01
5.504139e-01
5.518865e-01
5.541876e-01
5.570382e-01
5.604454e-01
5.648677e-01
5.650088e-01
0.000000e+00
1.000000e+00
5.635385e-01
5.612903e-01
5.560419e-01
5.515392e-01
5.479548e-01
5.454068e-01
5.439622e-01
5.436016e-01
5.442664e-01
5.460822e-01
5.489987e-01
5.526904e-01
5.570272e-01
5.629323e-01
5.623691e-01
0.000000e+00
1.000000e+00
5.627739e-01
5.590186e-01
5.530795e-01
5.478271e-01
5.436378e-01
5.406363e-01
5.389046e-01
5.384473e-01
5.392327e-01
5.413359e-01
5.447245e-01
5.491162e-01
5.542579e-01
5.616210e-01
5.598936e-01
0.000000e+00
1.000000e+00
5.625328e-01
5.573451e-01
5.508895e-01
5.450869e-01
5.404362e-01
5.370846e-01
5.351357e-01
5.346148e-01
5.354998e-01
5.378259e-01
5.415476e-01
5.464350e-01
5.522055e-01
5.608902e-01
5.578604e-01
0.000000e+00
1.000000e+00
5.623999e-01
5.563890e-01
5.495601e-01
5.434057e-01
5.384571e-01
5.348839e-01
5.328025e-01
5.322497e-01
5.332050e-01
5.356753e-01
5.395965e-01
5.447629e-01
5.509194e-01
5.604429e-01
5.567373e-01
0.000000e+00
1.000000e+00
5.618936e-01
5.560813e-01
5.491066e-01
5.428289e-01
5.377788e-01
5.341324e-01
5.320087e-01
5.314483e-01
5.324306e-01
5.349507e-01
5.389377e-01
5.441900e-01
5.504693e-01
5.601499e-01
5.566119e-01
0.000000e+00
1.000000e+00
5.875862e-01
5.842116e-01
5.920114e-01
5.973293e-01
6.018001e-01
6.052236e-01
6.074419e-01
6.083273e-01
6.077775e-01
6.058664e-01
6.027759e-01
5.985167e-01
5.931244e-01
5.869899e-01
5.820942e-01
0.000000e+00
1.000000e+00
5.873939e-01
5.839800e-01
5.916391e-01
5.968519e-01
6.012377e-01
6.045992e-01
6.067800e-01
6.076508e-01
6.071041e-01
6.052230e-01
6.022030e-01
5.980334e-01
5.927381e-01
5.867256e-01
5.817861e-01
0.000000e+00
1.000000e+00
5.864097e-01
5.834723e-01
5.905586e-01
5.954538e-01
5.995788e-01
6.027495e-01
6.048152e-01
6.056430e-01
6.051151e-01
6.033375e-01
6.005228e-01
5.965991e-01
5.915852e-01
5.859010e-01
5.813019e-01
0.000000e+00
1.000000e+00
5.846913e-01
5.826713e-01
5.888117e-01
5.931971e-01
5.968922e-01
5.997425e-01
6.016147e-01
6.023758e-01
6.018924e-01
6.003010e-01
5.978014e-01
5.942455e-01
5.897006e-01
5.845382e-01
5.806740e-01
0.000000e+00
1.000000e+00
5.824963e-01
5.814722e-01
5.864516e-01
5.901664e-01
5.932861e-01
5.956958e-01
5.972963e-01
5.979715e-01
5.975620e-01
5.962328e-01
5.941295e-01
5.910607e-01
5.871798e-01
5.827223e-01
5.797939e-01
0.000000e+00
1.000000e+00
5.800322e-01
5.798391e-01
5.835499e-01
5.864636e-01
5.888994e-01
5.907743e-01
5.920280e-01
5.925946e-01
5.922927e-01
5.912898e-01
5.896347e-01
5.871832e-01
5.841382e-01
5.805523e-01
5.785568e-01
0.000000e+00
1.000000e+00
5.774633e-01
5.778021e-01
5.802065e-01
5.822113e-01
5.838870e-01
5.851719e-01
5.860269e-01
5.864426e-01
5.862864e-01
5.856563e-01
5.844885e-01
5.827856e-01
5.806986e-01
5.781404e-01
5.769258e-01
0.000000e+00
1.000000e+00
5.749285e-01
5.754530e-01
5.765576e-01
5.775748e-01
5.784394e-01
5.791120e-01
5.795572e-01
5.797706e-01
5.797768e-01
5.795176e-01
5.789111e-01
5.780501e-01
5.769896e-01
5.756040e-01
5.749568e-01
0.000000e+00
1.000000e+00
5.725703e-01
5.729310e-01
5.727362e-01
5.727112e-01
5.727213e-01
5.727593e-01
5.728131e-01
5.728911e-01
5.730349e-01
5.731207e-01
5.731433e-01
5.731538e-01
5.731471e-01
5.730492e-01
5.727927e-01
0.000000e+00
1.000000e+00
5.701993e-01
5.703885e-01
5.688761e-01
5.677984e-01
5.669447e-01
5.663442e-01
5.660227e-01
5.660147e-01
5.662843e-01
5.667651e-01
5.674287e-01
5.682769e-01
5.693092e-01
5.705086e-01
5.706702e-01
0.000000e+00
1.000000e+00
5.680177e-01
5.678211e-01
5.651436e-01
5.630493e-01
5.613694e-01
5.601729e-01
5.595169e-01
5.594243e-01
5.597646e-01
5.606647e-01
5.619906e-01
5.636402e-01
5.656514e-01
5.681438e-01
5.684010e-01
0.000000e+00
1.000000e+00
5.662745e-01
5.653350e-01
5.616768e-01
5.586485e-01
5.562226e-01
5.544976e-01
5.535407e-01
5.533373e-01
5.537790e-01
5.550243e-01
5.569789e-01
5.593964e-01
5.622971e-01
5.660887e-01
5.660905e-01
0.000000e+00
1.000000e+00
5.650426e-01
5.630829e-01
5.586127e-01
5.547754e-01
5.517115e-01
5.495312e-01
5.482995e-01
5.479947e-01
5.485453e-01
5.500876e-01
5.525766e-01
5.557019e-01
5.593875e-01
5.644342e-01
5.638963e-01
0.000000e+00
1.000000e+00
5.641738e-01
5.612092e-01
5.560822e-01
5.515932e-01
5.480125e-01
5.454546e-01
5.439889e-01
5.436063e-01
5.442591e-01
5.460503e-01
5.489559e-01
5.526729e-01
5.570226e-01
5.631694e-01
5.620318e-01
0.000000e+00
1.000000e+00
5.634227e-01
5.598168e-01
5.541954e-01
5.492291e-01
5.452631e-01
5.424185e-01
5.407757e-01
5.403415e-01
5.410803e-01
5.430646e-01
5.462661e-01
5.504120e-01
5.552721e-01
5.622185e-01
5.607148e-01
0.000000e+00
1.000000e+00
5.627185e-01
5.589874e-01
5.530383e-01
5.477759e-01
5.435659e-01
5.405391e-01
5.387854e-01
5.383250e-01
5.391266e-01
5.412355e-01
5.446110e-01
5.490065e-01
5.541874e-01
5.615226e-01
5.601148e-01
0.000000e+00
1.000000e+00
5.622364e-01
5.587284e-01
5.526463e-01
5.472815e-01
5.429872e-01
5.398982e-01
5.381078e-01
5.376409e-01
5.384673e-01
5.406197e-01
5.440512e-01
5.485250e-01
5.538132e-01
5.612024e-01
5.600920e-01
0.000000e+00
1.000000e+00
5.836934e-01
5.823196e-01
5.879426e-01
5.920863e-01
5.955709e-01
5.982545e-01
6.000164e-01
6.007428e-01
6.003057e-01
5.988192e-01
5.964434e-01
5.930608e-01
5.887732e-01
5.838372e-01
5.806068e-01
0.000000e+00
1.000000e+00
5.835571e-01
5.821229e-01
5.876559e-01
5.917181e-01
5.951343e-01
5.977665e-01
5.994974e-01
6.002124e-01
5.997774e-01
5.983161e-01
5.959946e-01
5.926778e-01
5.884688e-01
5.836385e-01
5.804158e-01
0.000000e+00
1.000000e+00
5.829545e-01
5.816061e-01
5.868145e-01
5.906358e-01
5.938470e-01
5.963233e-01
5.979581e-01
5.986377e-01
5.982170e-01
5.968388e-01
5.946683e-01
5.915372e-01
5.875625e-01
5.830163e-01
5.799184e-01
0.000000e+00
1.000000e+00
5.818686e-01
5.808038e-01
5.854450e-01
5.888802e-01
5.917605e-01
5.939803e-01
5.954527e-01
5.960741e-01
5.956886e-01
5.944550e-01
5.925118e-01
5.896731e-01
5.860890e-01
5.819853e-01
5.791894e-01
0.000000e+00
1.000000e+00
5.803747e-01
5.797298e-01
5.835923e-01
5.865126e-01
5.889522e-01
5.908266e-01
5.920739e-01
5.926170e-01
5.922902e-01
5.912577e-01
5.896047e-01
5.871639e-01
5.841167e-01
5.805988e-01
5.782939e-01
0.000000e+00
1.000000e+00
5.785763e-01
5.783931e-01
5.813177e-01
5.836131e-01
5.855242e-01
5.869843e-01
5.879528e-01
5.883964e-01
5.881539e-01
5.873699e-01
5.860561e-01
5.841170e-01
5.817304e-01
5.789218e-01
5.772437e-01
0.000000e+00
1.000000e+00
5.765937e-01
5.767991e-01
5.787005e-01
5.802813e-01
5.815977e-01
5.825995e-01
5.832559e-01
5.835696e-01
5.834379e-01
5.829361e-01
5.820040e-01
5.806623e-01
5.790262e-01
5.770322e-01
5.759942e-01
0.000000e+00
1.000000e+00
5.745750e-01
5.749705e-01
5.758433e-01
5.766471e-01
5.773245e-01
5.778450e-01
5.781824e-01
5.783366e-01
5.783254e-01
5.781055e-01
5.776185e-01
5.769397e-01
5.761080e-01
5.750268e-01
5.744829e-01
0.000000e+00
1.000000e+00
5.727282e-01
5.729919e-01
5.728485e-01
5.728337e-01
5.728386e-01
5.728590e-01
5.728875e-01
5.729308e-01
5.730220e-01
5.730750e-01
5.730860e-01
5.730913e-01
5.730866e-01
5.730142e-01
5.727686e-01
0.000000e+00
1.000000e+00
5.708460e-01
5.709935e-01
5.698132e-01
5.689709e-01
5.682969e-01
5.678148e-01
5.675459e-01
5.675205e-01
5.677145e-01
5.680797e-01
5.685935e-01
5.692577e-01
5.700702e-01
5.710150e-01
5.711123e-01
0.000000e+00
1.000000e+00
5.691435e-01
5.689512e-01
5.668707e-01
5.652289e-01
5.639050e-01
5.629527e-01
5.624199e-01
5.623345e-01
5.625932e-01
5.632896e-01
5.643232e-01
5.656176e-01
5.672016e-01
5.691746e-01
5.692774e-01
0.000000e+00
1.000000e+00
5.678110e-01
5.669998e-01
5.641375e-01
5.617593e-01
5.598447e-01
5.584734e-01
5.577076e-01
5.575473e-01
5.578866e-01
5.588625e-01
5.603919e-01
5.622831e-01
5.645695e-01
5.675742e-01
5.674560e-01
0.000000e+00
1.000000e+00
5.667142e-01
5.652706e-01
5.617200e-01
5.586982e-01
5.562745e-01
5.545448e-01
5.535733e-01
5.533452e-01
5.537697e-01
5.549887e-01
5.569476e-01
5.593804e-01
5.622806e-01
5.662141e-01
5.658603e-01
0.000000e+00
1.000000e+00
5.656967e-01
5.638515e-01
5.597174e-01
5.561708e-01
5.533351e-01
5.513143e-01
5.501719e-01
5.498922e-01
5.503972e-01
5.518208e-01
5.541224e-01
5.570065e-01
5.604150e-01
5.650711e-01
5.646298e-01
0.000000e+00
1.000000e+00
5.647881e-01
5.628087e-01
5.582173e-01
5.542830e-01
5.511437e-01
5.489063e-01
5.476353e-01
5.473213e-01
5.478960e-01
5.494777e-01
5.520253e-01
5.552424e-01
5.590353e-01
5.641665e-01
5.638294e-01
0.000000e+00
1.000000e+00
5.641505e-01
5.621946e-01
5.572918e-01
5.531194e-01
5.497912e-01
5.474172e-01
5.460641e-01
5.457315e-01
5.463587e-01
5.480414e-01
5.507329e-01
5.541514e-01
5.581883e-01
5.635629e-01
5.634540e-01
0.000000e+00
1.000000e+00
5.638632e-01
5.620051e-01
5.569786e-01
5.527251e-01
5.493322e-01
5.469109e-01
5.455293e-01
5.451915e-01
5.458402e-01
5.475578e-01
5.502948e-01
5.537796e-01
5.579009e-01
5.633354e-01
5.633927e-01
0.000000e+00
1.000000e+00
5.798745e-01
5.796429e-01
5.832508e-01
5.860914e-01
5.884713e-01
5.903053e-01
5.915257e-01
5.920729e-01
5.917959e-01
5.908193e-01
5.892024e-01
5.868266e-01
5.838648e-01
5.803554e-01
5.784871e-01
0.000000e+00
1.000000e+00
5.797756e-01
5.795160e-01
5.830589e-01
5.858445e-01
5.881772e-01
5.899741e-01
5.911704e-01
5.917086e-01
5.914328e-01
5.904747e-01
5.888918e-01
5.865593e-01
5.836529e-01
5.802169e-01
5.783785e-01
0.000000e+00
1.000000e+00
5.794097e-01
5.791486e-01
5.824899e-01
5.851135e-01
5.873073e-01
5.889945e-01
5.901185e-01
5.906274e-01
5.903600e-01
5.894582e-01
5.879694e-01
5.857657e-01
5.830258e-01
5.797980e-01
5.780327e-01
0.000000e+00
1.000000e+00
5.787863e-01
5.785487e-01
5.815580e-01
5.839213e-01
5.858928e-01
5.874040e-01
5.884087e-01
5.888670e-01
5.886211e-01
5.878125e-01
5.864674e-01
5.844750e-01
5.820104e-01
5.791117e-01
5.774654e-01
0.000000e+00
1.000000e+00
5.779162e-01
5.777417e-01
5.802939e-01
5.823071e-01
5.839822e-01
5.852597e-01
5.861036e-01
5.864928e-01
5.862832e-01
5.856019e-01
5.844458e-01
5.827426e-01
5.806511e-01
5.781852e-01
5.767136e-01
0.000000e+00
1.000000e+00
5.768263e-01
5.767605e-01
5.787398e-01
5.803250e-01
5.816414e-01
5.826395e-01
5.832903e-01
5.835942e-01
5.834368e-01
5.829120e-01
5.819856e-01
5.806421e-01
5.790046e-01
5.770562e-01
5.758393e-01
0.000000e+00
1.000000e+00
5.755575e-01
5.756374e-01
5.769501e-01
5.780436e-01
5.789516e-01
5.796379e-01
5.800778e-01
5.802811e-01
5.801909e-01
5.798439e-01
5.791860e-01
5.782609e-01
5.771374e-01
5.757714e-01
5.749130e-01
0.000000e+00
1.000000e+00
5.741735e-01
5.743873e-01
5.749942e-01
5.755516e-01
5.760173e-01
5.763708e-01
5.765944e-01
5.766887e-01
5.766704e-01
5.765056e-01
5.761614e-01
5.756930e-01
5.751216e-01
5.743871e-01
5.739248e-01
0.000000e+00
1.000000e+00
5.728929e-01
5.730308e-01
5.729402e-01
5.729339e-01
5.729351e-01
5.729417e-01
5.729503e-01
5.729652e-01
5.730107e-01
5.730353e-01
5.730375e-01
5.730390e-01
5.730364e-01
5.729910e-01
5.727603e-01
0.000000e+00
1.000000e+00
5.715823e-01
5.716497e-01
5.708458e-01
5.702691e-01
5.698027e-01
5.694629e-01
5.692642e-01
5.692307e-01
5.693517e-01
5.695942e-01
5.699418e-01
5.703980e-01
5.709590e-01
5.716139e-01
5.716114e-01
0.000000e+00
1.000000e+00
5.704439e-01
5.702233e-01
5.688060e-01
5.676780e-01
5.667637e-01
5.660990e-01
5.657170e-01
5.656494e-01
5.658255e-01
5.662998e-01
5.670029e-01
5.678945e-01
5.689903e-01
5.703658e-01
5.702766e-01
0.000000e+00
1.000000e+00
5.694381e-01
5.689014e-01
5.669102e-01
5.652724e-01
5.639478e-01
5.629908e-01
5.624498e-01
5.623457e-01
5.625820e-01
5.632609e-01
5.643022e-01
5.655988e-01
5.671822e-01
5.692370e-01
5.690964e-01
0.000000e+00
1.000000e+00
5.684388e-01
5.677511e-01
5.652275e-01
5.631407e-01
5.614596e-01
5.602538e-01
5.595788e-01
5.594452e-01
5.597436e-01
5.606054e-01
5.619447e-01
5.636009e-01
5.656084e-01
5.682189e-01
5.681654e-01
0.000000e+00
1.000000e+00
5.675351e-01
5.668146e-01
5.638279e-01
5.613713e-01
5.594003e-01
5.579950e-01
5.572134e-01
5.570599e-01
5.574181e-01
5.584351e-01
5.600170e-01
5.619711e-01
5.643268e-01
5.673577e-01
5.674730e-01
0.000000e+00
1.000000e+00
5.668462e-01
5.661262e-01
5.627743e-01
5.600427e-01
5.578579e-01
5.563071e-01
5.554475e-01
5.552822e-01
5.556932e-01
5.568294e-01
5.585888e-01
5.607659e-01
5.633831e-01
5.667088e-01
5.670075e-01
0.000000e+00
1.000000e+00
5.664392e-01
5.657091e-01
5.621190e-01
5.592183e-01
5.569030e-01
5.552628e-01
5.543542e-01
5.541813e-01
5.546330e-01
5.558439e-01
5.577091e-01
5.600267e-01
5.628092e-01
5.663104e-01
5.667537e-01
0.000000e+00
1.000000e+00
5.662833e-01
5.655730e-01
5.618956e-01
5.589379e-01
5.565788e-01
5.549085e-01
5.539827e-01
5.538069e-01
5.542753e-01
5.555115e-01
5.574115e-01
5.597777e-01
5.626176e-01
5.661756e-01
5.666759e-01
0.000000e+00
1.000000e+00
5.761743e-01
5.764372e-01
5.781054e-01
5.795449e-01
5.807592e-01
5.816989e-01
5.823286e-01
5.826328e-01
5.825697e-01
5.821634e-01
5.813243e-01
5.801026e-01
5.785967e-01
5.767034e-01
5.758916e-01
0.000000e+00
1.000000e+00
5.761251e-01
5.763796e-01
5.780156e-01
5.794280e-01
5.806181e-01
5.815378e-01
5.821528e-01
5.824496e-01
5.823859e-01
5.819866e-01
5.811621e-01
5.799623e-01
5.784849e-01
5.766284e-01
5.758437e-01
0.000000e+00
1.000000e+00
5.759534e-01
5.762041e-01
5.777447e-01
5.790767e-01
5.801962e-01
5.810580e-01
5.816313e-01
5.819067e-01
5.818420e-01
5.814625e-01
5.806815e-01
5.795479e-01
5.781562e-01
5.764096e-01
5.756646e-01
0.000000e+00
1.000000e+00
5.756827e-01
5.759065e-01
5.772950e-01
5.784965e-01
5.795029e-01
5.802738e-01
5.807820e-01
5.810232e-01
5.809592e-01
5.806113e-01
5.799011e-01
5.788784e-01
5.776269e-01
5.760603e-01
5.753654e-01
0.000000e+00
1.000000e+00
5.753161e-01
5.754940e-01
5.766782e-01
5.777034e-01
5.785589e-01
5.792102e-01
5.796338e-01
5.798305e-01
5.797711e-01
5.794675e-01
5.788545e-01
5.779833e-01
5.769212e-01
5.755955e-01
5.749538e-01
0.000000e+00
1.000000e+00
5.748603e-01
5.749791e-01
5.759123e-01
5.767210e-01
5.773935e-01
5.779021e-01
5.782271e-01
5.783724e-01
5.783232e-01
5.780774e-01
5.775862e-01
5.769016e-01
5.760696e-01
5.750335e-01
5.744412e-01
0.000000e+00
1.000000e+00
5.743211e-01
5.743824e-01
5.750216e-01
5.755809e-01
5.760447e-01
5.763936e-01
5.766123e-01
5.767030e-01
5.766708e-01
5.764958e-01
5.761495e-01
5.756791e-01
5.751078e-01
5.743955e-01
5.738535e-01
0.000000e+00
1.000000e+00
5.736897e-01
5.737307e-01
5.740384e-01
5.743249e-01
5.745618e-01
5.747391e-01
5.748483e-01
5.748870e-01
5.748753e-01
5.747832e-01
5.746036e-01
5.743651e-01
5.740744e-01
5.737047e-01
5.732676e-01
0.000000e+00
1.000000e+00
5.730680e-01
5.730415e-01
5.729973e-01
5.729965e-01
5.729957e-01
5.729943e-01
5.729914e-01
5.729891e-01
5.730029e-01
5.730088e-01
5.730066e-01
5.730060e-01
5.730050e-01
5.729852e-01
5.727773e-01
0.000000e+00
1.000000e+00
5.723947e-01
5.723235e-01
5.719202e-01
5.716277e-01
5.713888e-01
5.712121e-01
5.711041e-01
5.710771e-01
5.711352e-01
5.712546e-01
5.714273e-01
5.716600e-01
5.719469e-01
5.722864e-01
5.721000e-01
0.000000e+00
1.000000e+00
5.717181e-01
5.716092e-01
5.708679e-01
5.702932e-01
5.698261e-01
5.694838e-01
5.692812e-01
5.692398e-01
5.693418e-01
5.695830e-01
5.699321e-01
5.703879e-01
5.709490e-01
5.716352e-01
5.714580e-01
0.000000e+00
1.000000e+00
5.710325e-01
5.709691e-01
5.698812e-01
5.690437e-01
5.683658e-01
5.678737e-01
5.675914e-01
5.675420e-01
5.676940e-01
5.680492e-01
5.685637e-01
5.692238e-01
5.700355e-01
5.710128e-01
5.710206e-01
0.000000e+00
1.000000e+00
5.704122e-01
5.704010e-01
5.689930e-01
5.679222e-01
5.670604e-01
5.664420e-01
5.660972e-01
5.660477e-01
5.662537e-01
5.667141e-01
5.673762e-01
5.682165e-01
5.692469e-01
5.704678e-01
5.706422e-01
0.000000e+00
1.000000e+00
5.699152e-01
5.699248e-01
5.682443e-01
5.669800e-01
5.659682e-01
5.652500e-01
5.648593e-01
5.648152e-01
5.650748e-01
5.656258e-01
5.664111e-01
5.674012e-01
5.686114e-01
5.700312e-01
5.703371e-01
0.000000e+00
1.000000e+00
5.695552e-01
5.695590e-01
5.676718e-01
5.662625e-01
5.651405e-01
5.643513e-01
5.639306e-01
5.638942e-01
5.642009e-01
5.648221e-01
5.657009e-01
5.668048e-01
5.681495e-01
5.697176e-01
5.701142e-01
0.000000e+00
1.000000e+00
5.693444e-01
5.693237e-01
5.673090e-01
5.658097e-01
5.646210e-01
5.637903e-01
5.633536e-01