<?xml version="1.0"?>
<VTKFile type="StructuredGrid" version="0.1">
  <StructuredGrid WholeExtent="0 16 0 16 0 16">
    <Piece Extent="0 16 0 16 0 16">
      <PointData Scalars="temperature" Vectors="velocity">
        <DataArray type="Float32" Name="temperature" format="ascii">
1.000000e+00
6.434240e-01
5.505843e-01
5.869888e-01
6.054260e-01
6.105599e-01
6.159636e-01
6.200120e-01
6.224009e-01
6.228517e-01
6.212135e-01
6.174251e-01
6.114437e-01
6.030270e-01
5.782208e-01
4.874537e-01
0.000000e+00
1.000000e+00
6.494687e-01
5.635056e-01
5.883758e-01
6.044642e-01
6.097369e-01
6.150709e-01
6.190676e-01
6.214320e-01
6.218647e-01
6.202146e-01
6.164901e-01
6.107348e-01
6.032534e-01
5.909675e-01
5.688125e-01
0.000000e+00
1.000000e+00
6.414132e-01
5.769025e-01
5.902895e-01
6.018885e-01
6.073499e-01
6.124508e-01
6.162869e-01
6.185697e-01
6.189647e-01
6.173611e-01
6.139587e-01
6.088563e-01
6.021660e-01
5.954759e-01
5.987849e-01
0.000000e+00
1.000000e+00
6.267188e-01
5.803737e-01
5.903078e-01
5.983083e-01
6.035020e-01
6.081615e-01
6.117375e-01
6.139117e-01
6.142875e-01
6.128637e-01
6.100455e-01
6.056613e-01
5.992789e-01
5.918123e-01
6.001623e-01
0.000000e+00
1.000000e+00
6.137981e-01
5.801375e-01
5.883940e-01
5.940137e-01
5.984310e-01
6.023823e-01
6.055524e-01
6.076172e-01
6.080265e-01
6.069265e-01
6.048225e-01
6.010733e-01
5.953544e-01
5.876117e-01
5.982873e-01
0.000000e+00
1.000000e+00
6.014436e-01
5.786745e-01
5.850193e-01
5.889249e-01
5.923522e-01
5.954111e-01
5.979807e-01
5.998931e-01
6.004404e-01
5.998292e-01
5.984122e-01
5.952888e-01
5.907021e-01
5.837358e-01
5.944896e-01
0.000000e+00
1.000000e+00
5.892697e-01
5.766575e-01
5.805961e-01
5.830523e-01
5.854303e-01
5.875791e-01
5.894267e-01
5.909924e-01
5.918135e-01
5.918952e-01
5.909844e-01
5.887172e-01
5.855837e-01
5.801870e-01
5.889503e-01
0.000000e+00
1.000000e+00
5.774978e-01
5.743231e-01
5.754992e-01
5.765857e-01
5.778846e-01
5.792085e-01
5.804063e-01
5.813867e-01
5.824770e-01
5.832648e-01
5.828686e-01
5.817761e-01
5.801695e-01
5.769034e-01
5.819727e-01
0.000000e+00
1.000000e+00
5.664814e-01
5.717670e-01
5.699773e-01
5.696508e-01
5.697634e-01
5.702229e-01
5.709089e-01
5.718362e-01
5.732673e-01
5.742313e-01
5.745470e-01
5.747454e-01
5.746368e-01
5.738595e-01
5.739607e-01
0.000000e+00
1.000000e+00
5.564998e-01
5.690203e-01
5.643380e-01
5.626092e-01
5.615113e-01
5.611035e-01
5.613835e-01
5.623870e-01
5.639534e-01
5.654104e-01
5.666276e-01
5.679266e-01
5.692368e-01
5.710193e-01
5.653250e-01
0.000000e+00
1.000000e+00
5.480347e-01
5.657712e-01
5.588385e-01
5.557228e-01
5.535267e-01
5.524169e-01
5.524399e-01
5.534153e-01
5.547418e-01
5.569415e-01
5.592575e-01
5.615740e-01
5.642180e-01
5.685045e-01
5.561863e-01
0.000000e+00
1.000000e+00
5.416211e-01
5.618584e-01
5.537214e-01
5.492887e-01
5.462014e-01
5.445552e-01
5.443057e-01
5.450677e-01
5.464860e-01
5.491121e-01
5.524859e-01
5.558798e-01
5.598630e-01
5.664678e-01
5.467677e-01
0.000000e+00
1.000000e+00
5.376286e-01
5.571994e-01
5.491895e-01
5.436651e-01
5.398800e-01
5.377508e-01
5.371541e-01
5.377577e-01
5.393650e-01
5.423308e-01
5.464814e-01
5.509385e-01
5.565258e-01
5.652196e-01
5.371295e-01
0.000000e+00
1.000000e+00
5.363935e-01
5.521705e-01
5.454437e-01
5.391740e-01
5.347877e-01
5.321789e-01
5.312540e-01
5.317842e-01
5.336091e-01
5.368612e-01
5.414784e-01
5.466742e-01
5.545785e-01
5.655383e-01
5.265445e-01
0.000000e+00
1.000000e+00
5.424128e-01
5.483980e-01
5.425895e-01
5.359582e-01
5.310377e-01
5.280102e-01
5.268441e-01
5.273595e-01
5.293828e-01
5.328819e-01
5.377473e-01
5.430334e-01
5.544615e-01
5.699319e-01
5.133908e-01
0.000000e+00
1.000000e+00
5.899219e-01
5.527959e-01
5.412294e-01
5.340081e-01
5.286681e-01
5.253810e-01
5.240926e-01
5.246304e-01
5.267956e-01
5.304674e-01
5.354718e-01
5.404027e-01
5.560027e-01
5.841008e-01
4.989202e-01
0.000000e+00
1.000000e+00
6.799384e-01
5.625091e-01
5.411258e-01
5.332761e-01
5.278003e-01
5.244542e-01
5.231441e-01
5.237012e-01
5.259156e-01
5.296408e-01
5.346896e-01
5.394401e-01
5.570613e-01
5.974336e-01
4.895523e-01
0.000000e+00
1.000000e+00
6.500223e-01
5.552999e-01
5.866971e-01
6.047978e-01
6.098211e-01
6.151320e-01
6.191088e-01
6.214538e-01
6.218717e-01
6.202053e-01
6.164525e-01
6.106039e-01
6.026918e-01
5.839715e-01
5.304574e-01
0.000000e+00
1.000000e+00
6.510453e-01
5.649972e-01
5.878604e-01
6.038599e-01
6.090195e-01
6.142643e-01
6.181907e-01
6.205087e-01
6.209037e-01
6.192196e-01
6.155355e-01
6.099323e-01
6.027876e-01
5.921186e-01
5.751108e-01
0.000000e+00
1.000000e+00
6.419905e-01
5.762983e-01
5.896693e-01
6.013312e-01
6.066768e-01
6.116981e-01
6.154720e-01
6.177094e-01
6.180607e-01
6.164194e-01
6.130736e-01
6.081356e-01
6.016534e-01
5.951196e-01
5.956740e-01
0.000000e+00
1.000000e+00
6.269382e-01
5.798688e-01
5.898544e-01
5.978213e-01
6.029055e-01
6.074904e-01
6.110131e-01
6.131475e-01
6.134772e-01
6.120195e-01
6.092713e-01
6.050338e-01
5.988008e-01
5.916931e-01
5.987667e-01
0.000000e+00
1.000000e+00
6.135778e-01
5.798929e-01
5.881043e-01
5.936267e-01
5.979466e-01
6.018227e-01
6.049432e-01
6.069757e-01
6.073413e-01
6.062158e-01
6.041819e-01
6.005388e-01
5.949126e-01
5.874689e-01
5.975654e-01
0.000000e+00
1.000000e+00
6.010668e-01
5.785936e-01
5.848465e-01
5.886626e-01
5.920097e-01
5.949963e-01
5.975138e-01
5.993970e-01
5.999053e-01
5.992768e-01
5.979121e-01
5.948504e-01
5.903307e-01
5.835546e-01
5.940507e-01
0.000000e+00
1.000000e+00
5.889773e-01
5.766682e-01
5.805201e-01
5.829241e-01
5.852448e-01
5.873332e-01
5.891276e-01
5.906606e-01
5.914469e-01
5.915142e-01
5.906253e-01
5.883875e-01
5.853051e-01
5.800136e-01
5.886461e-01
0.000000e+00
1.000000e+00
5.774224e-01
5.743810e-01
5.755229e-01
5.765950e-01
5.778622e-01
5.791439e-01
5.802953e-01
5.812391e-01
5.822925e-01
5.830552e-01
5.826544e-01
5.815712e-01
5.799952e-01
5.767793e-01
5.817827e-01
0.000000e+00
1.000000e+00
5.666802e-01
5.718569e-01
5.701101e-01
5.697970e-01
5.699027e-01
5.703386e-01
5.709897e-01
5.718725e-01
5.732550e-01
5.741881e-01
5.744864e-01
5.746740e-01
5.745691e-01
5.738054e-01
5.739002e-01
0.000000e+00
1.000000e+00
5.568436e-01
5.691716e-01
5.645665e-01
5.628724e-01
5.617869e-01
5.613705e-01
5.616265e-01
5.625961e-01
5.641157e-01
5.655288e-01
5.667101e-01
5.679746e-01
5.692615e-01
5.710031e-01
5.654978e-01
0.000000e+00
1.000000e+00
5.484883e-01
5.659551e-01
5.591638e-01
5.561023e-01
5.539363e-01
5.528333e-01
5.528470e-01
5.537984e-01
5.550771e-01
5.572248e-01
5.594958e-01
5.617540e-01
5.643395e-01
5.685376e-01
5.565558e-01
0.000000e+00
1.000000e+00
5.422323e-01
5.620209e-01
5.541346e-01
5.497723e-01
5.467351e-01
5.451151e-01
5.448714e-01
5.456111e-01
5.469688e-01
5.495374e-01
5.528654e-01
5.561854e-01
5.600770e-01
5.665835e-01
5.471934e-01
0.000000e+00
1.000000e+00
5.385877e-01
5.573050e-01
5.496711e-01
5.442401e-01
5.405267e-01
5.384420e-01
5.378599e-01
5.384368e-01
5.399747e-01
5.428748e-01
5.469804e-01
5.513588e-01
5.568513e-01
5.654910e-01
5.373544e-01
0.000000e+00
1.000000e+00
5.382976e-01
5.522923e-01
5.459662e-01
5.398303e-01
5.355351e-01
5.329809e-01
5.320715e-01
5.325702e-01
5.343217e-01
5.375001e-01
5.420671e-01
5.471852e-01
5.550500e-01
5.660568e-01
5.264450e-01
0.000000e+00
1.000000e+00
5.458927e-01
5.488653e-01
5.431664e-01
5.366820e-01
5.318652e-01
5.288934e-01
5.277403e-01
5.282223e-01
5.301738e-01
5.335950e-01
5.383974e-01
5.436165e-01
5.550148e-01
5.703811e-01
5.131494e-01
0.000000e+00
1.000000e+00
5.791532e-01
5.518824e-01
5.417748e-01
5.347815e-01
5.295482e-01
5.263107e-01
5.250322e-01
5.255382e-01
5.276378e-01
5.312352e-01
5.361670e-01
5.410671e-01
5.562706e-01
5.814485e-01
5.007400e-01
0.000000e+00
1.000000e+00
6.299476e-01
5.579568e-01
5.415432e-01
5.340671e-01
5.286959e-01
5.253961e-01
5.240959e-01
5.246245e-01
5.267787e-01
5.304341e-01
5.354085e-01
5.401494e-01
5.569824e-01
5.903516e-01
4.935956e-01
0.000000e+00
1.000000e+00
6.495673e-01
5.661811e-01
5.873152e-01
6.027450e-01
6.076679e-01
6.127023e-01
6.164604e-01
6.186597e-01
6.189857e-01
6.172964e-01
6.137510e-01
6.084583e-01
6.017401e-01
5.920245e-01
5.763835e-01
0.000000e+00
1.000000e+00
6.474925e-01
5.699243e-01
5.877578e-01
6.019136e-01
6.069123e-01
6.118878e-01
6.156030e-01
6.177766e-01
6.180752e-01
6.163651e-01
6.129014e-01
6.078364e-01
6.014388e-01
5.936692e-01
5.837952e-01
0.000000e+00
1.000000e+00
6.382339e-01
5.760741e-01
5.887658e-01
5.996379e-01
6.047081e-01
6.094727e-01
6.130538e-01
6.151544e-01
6.154021e-01
6.137322e-01
6.106182e-01
6.061399e-01
6.000791e-01
5.938040e-01
5.929737e-01
0.000000e+00
1.000000e+00
6.249399e-01
5.789751e-01
5.888655e-01
5.964111e-01
6.011781e-01
6.055122e-01
6.088583e-01
6.108704e-01
6.110944e-01
6.096109e-01
6.070840e-01
6.032101e-01
5.973295e-01
5.907716e-01
5.963025e-01
0.000000e+00
1.000000e+00
6.120287e-01
5.793123e-01
5.873208e-01
5.925143e-01
5.965524e-01
6.001894e-01
6.031401e-01
6.050632e-01
6.053265e-01
6.041801e-01
6.023322e-01
5.989494e-01
5.935986e-01
5.867932e-01
5.958818e-01
0.000000e+00
1.000000e+00
5.997980e-01
5.783420e-01
5.843183e-01
5.878891e-01
5.910145e-01
5.937922e-01
5.961446e-01
5.979217e-01
5.983324e-01
5.976840e-01
5.964421e-01
5.935466e-01
5.892448e-01
5.829712e-01
5.928359e-01
0.000000e+00
1.000000e+00
5.881654e-01
5.766448e-01
5.802620e-01
5.825243e-01
5.846893e-01
5.866145e-01
5.882593e-01
5.896835e-01
5.903719e-01
5.904028e-01
5.895618e-01
5.874184e-01
5.844974e-01
5.795267e-01
5.877884e-01
0.000000e+00
1.000000e+00
5.772518e-01
5.745028e-01
5.755613e-01
5.765902e-01
5.777702e-01
5.789392e-01
5.799689e-01
5.808114e-01
5.817566e-01
5.824380e-01
5.820248e-01
5.809770e-01
5.794925e-01
5.764427e-01
5.812538e-01
0.000000e+00
1.000000e+00
5.672506e-01
5.720944e-01
5.704747e-01
5.701987e-01
5.702871e-01
5.706617e-01
5.712214e-01
5.719858e-01
5.732261e-01
5.740648e-01
5.743158e-01
5.744745e-01
5.743800e-01
5.736610e-01
5.737343e-01
0.000000e+00
1.000000e+00
5.578944e-01
5.695809e-01
5.652347e-01
5.636448e-01
5.626021e-01
5.621676e-01
5.623564e-01
5.632224e-01
5.646024e-01
5.658914e-01
5.669746e-01
5.681440e-01
5.693618e-01
5.709938e-01
5.659172e-01
0.000000e+00
1.000000e+00
5.498822e-01
5.664792e-01
5.601233e-01
5.572276e-01
5.551571e-01
5.540764e-01
5.540552e-01
5.549276e-01
5.560796e-01
5.580735e-01
5.602063e-01
5.623059e-01
5.647287e-01
5.686848e-01
5.574567e-01
0.000000e+00
1.000000e+00
5.439874e-01
5.626013e-01
5.553545e-01
5.512135e-01
5.483211e-01
5.467687e-01
5.465298e-01
5.472071e-01
5.484155e-01
5.508146e-01
5.539821e-01
5.570895e-01
5.607265e-01
5.669421e-01
5.483811e-01
0.000000e+00
1.000000e+00
5.409023e-01
5.579938e-01
5.510956e-01
5.459464e-01
5.424272e-01
5.404583e-01
5.399148e-01
5.404313e-01
5.418000e-01
5.445120e-01
5.484499e-01
5.525802e-01
5.577456e-01
5.661443e-01
5.386387e-01
0.000000e+00
1.000000e+00
5.415041e-01
5.533358e-01
5.475308e-01
5.417410e-01
5.376937e-01
5.352972e-01
5.344468e-01
5.348828e-01
5.364530e-01
5.394242e-01
5.438171e-01
5.486921e-01
5.561196e-01
5.669148e-01
5.280731e-01
0.000000e+00
1.000000e+00
5.476658e-01
5.502928e-01
5.448680e-01
5.387319e-01
5.342161e-01
5.314314e-01
5.303463e-01
5.307648e-01
5.325330e-01
5.357338e-01
5.403470e-01
5.454256e-01
5.558759e-01
5.700957e-01
5.168749e-01
0.000000e+00
1.000000e+00
5.608120e-01
5.504228e-01
5.433774e-01
5.369098e-01
5.320255e-01
5.289829e-01
5.277719e-01
5.282169e-01
5.301412e-01
5.335173e-01
5.382400e-01
5.431804e-01
5.561528e-01
5.750653e-01
5.083816e-01
0.000000e+00
1.000000e+00
5.688472e-01
5.513733e-01
5.429030e-01
5.362304e-01
5.312217e-01
5.281116e-01
5.268767e-01
5.273469e-01
5.293331e-01
5.327719e-01
5.375307e-01
5.424016e-01
5.561027e-01
5.773925e-01
5.060109e-01
0.000000e+00
1.000000e+00
6.366737e-01
5.740587e-01
5.882196e-01
5.992983e-01
6.041051e-01
6.086920e-01
6.121182e-01
6.141045e-01
6.143218e-01
6.127001e-01
6.096147e-01
6.051492e-01
5.992028e-01
5.926649e-01
5.902293e-01
0.000000e+00
1.000000e+00
6.355815e-01
5.746070e-01
5.880818e-01
5.986517e-01
6.034354e-01
6.079638e-01
6.113535e-01
6.133179e-01
6.135056e-01
6.118658e-01
6.088682e-01
6.045723e-01
5.987456e-01
5.924289e-01
5.896457e-01
0.000000e+00
1.000000e+00
6.294131e-01
5.765584e-01
5.880420e-01
5.968363e-01
6.014906e-01
6.058040e-01
6.090719e-01
6.109750e-01
6.111095e-01
6.095096e-01
6.068306e-01
6.029577e-01
5.973202e-01
5.912819e-01
5.917587e-01
0.000000e+00
1.000000e+00
6.196565e-01
5.780713e-01
5.876003e-01
5.941187e-01
5.983873e-01
6.022736e-01
6.053099e-01
6.071356e-01
6.072468e-01
6.058236e-01
6.036500e-01
6.002173e-01
5.947977e-01
5.887346e-01
5.934254e-01
0.000000e+00
1.000000e+00
6.087167e-01
5.784431e-01
5.860813e-01
5.907025e-01
5.943050e-01
5.975376e-01
6.001828e-01
6.019202e-01
6.020712e-01
6.009672e-01
5.993681e-01
5.963074e-01
5.914206e-01
5.854106e-01
5.931780e-01
0.000000e+00
1.000000e+00
5.976462e-01
5.778386e-01
5.833899e-01
5.865951e-01
5.893884e-01
5.918416e-01
5.939150e-01
5.954984e-01
5.957899e-01
5.951517e-01
5.940490e-01
5.913965e-01
5.874919e-01
5.819839e-01
5.907002e-01
0.000000e+00
1.000000e+00
5.869578e-01
5.764870e-01
5.797641e-01
5.818127e-01
5.837459e-01
5.854332e-01
5.868518e-01
5.880880e-01
5.886357e-01
5.886151e-01
5.878247e-01
5.858507e-01
5.832128e-01
5.787949e-01
5.862666e-01
0.000000e+00
1.000000e+00
5.770392e-01
5.746073e-01
5.755543e-01
5.765087e-01
5.775566e-01
5.785627e-01
5.794216e-01
5.801155e-01
5.808928e-01
5.814359e-01
5.810105e-01
5.800365e-01
5.787044e-01
5.759590e-01
5.803364e-01
0.000000e+00
1.000000e+00
5.681319e-01
5.724184e-01
5.710009e-01
5.707789e-01
5.708441e-01
5.711333e-01
5.715658e-01
5.721639e-01
5.731841e-01
5.738727e-01
5.740597e-01
5.741795e-01
5.741018e-01
5.734627e-01
5.734799e-01
0.000000e+00
1.000000e+00
5.596085e-01
5.701615e-01
5.662739e-01
5.648549e-01
5.638928e-01
5.634452e-01
5.635385e-01
5.642399e-01
5.653996e-01
5.664988e-01
5.674376e-01
5.684670e-01
5.695724e-01
5.710397e-01
5.665486e-01
0.000000e+00
1.000000e+00
5.522212e-01
5.672634e-01
5.616448e-01
5.590308e-01
5.571306e-01
5.560957e-01
5.560127e-01
5.567497e-01
5.577199e-01
5.594654e-01
5.613669e-01
5.632331e-01
5.654106e-01
5.690005e-01
5.588428e-01
0.000000e+00
1.000000e+00
5.469370e-01
5.636262e-01
5.573106e-01
5.535562e-01
5.509025e-01
5.494490e-01
5.491987e-01
5.497805e-01
5.507911e-01
5.529184e-01
5.557853e-01
5.585605e-01
5.618169e-01
5.675796e-01
5.504023e-01
0.000000e+00
1.000000e+00
5.444731e-01
5.595043e-01
5.534132e-01
5.487368e-01
5.455119e-01
5.437035e-01
5.432095e-01
5.436538e-01
5.448024e-01
5.472251e-01
5.508315e-01
5.545368e-01
5.591276e-01
5.670763e-01
5.414805e-01
0.000000e+00
1.000000e+00
5.450110e-01
5.556373e-01
5.501338e-01
5.448493e-01
5.411622e-01
5.389995e-01
5.382519e-01
5.386277e-01
5.399593e-01
5.426262e-01
5.466928e-01
5.511270e-01
5.575052e-01
5.676438e-01
5.326366e-01
0.000000e+00
1.000000e+00
5.474611e-01
5.529274e-01
5.476896e-01
5.420263e-01
5.379510e-01
5.354707e-01
5.345250e-01
5.348898e-01
5.364103e-01
5.392930e-01
5.435962e-01
5.483955e-01
5.567171e-01
5.689614e-01
5.251615e-01
0.000000e+00
1.000000e+00
5.492489e-01
5.516965e-01
5.462442e-01
5.403023e-01
5.359351e-01
5.332352e-01
5.321761e-01
5.325698e-01
5.342487e-01
5.372982e-01
5.417079e-01
5.466154e-01
5.561112e-01
5.698424e-01
5.213004e-01
0.000000e+00
1.000000e+00
5.471662e-01
5.513599e-01
5.457406e-01
5.396753e-01
5.352057e-01
5.324400e-01
5.313550e-01
5.317744e-01
5.335199e-01
5.366317e-01
5.410698e-01
5.460049e-01
5.556652e-01
5.695813e-01
5.213690e-01
0.000000e+00
1.000000e+00
6.219263e-01
5.772399e-01
5.876869e-01
5.949515e-01
5.992627e-01
6.031871e-01
6.061774e-01
6.079350e-01
6.080678e-01
6.066363e-01
6.042241e-01
6.005851e-01
5.951954e-01
5.892155e-01
5.931113e-01
0.000000e+00
1.000000e+00
6.214820e-01
5.770275e-01
5.874031e-01
5.944785e-01
5.987154e-01
6.025775e-01
6.055339e-01
6.072745e-01
6.073782e-01
6.059352e-01
6.036059e-01
6.000829e-01
5.947796e-01
5.889417e-01
5.920293e-01
0.000000e+00
1.000000e+00
6.179961e-01
5.771174e-01
5.868362e-01
5.931319e-01
5.971351e-01
6.007781e-01
6.036114e-01
6.052992e-01
6.053522e-01
6.039484e-01
6.018711e-01
5.986162e-01
5.935063e-01
5.878544e-01
5.911864e-01
0.000000e+00
1.000000e+00
6.116404e-01
5.773805e-01
5.859285e-01
5.910088e-01
5.946086e-01
5.978520e-01
6.004450e-01
6.020521e-01
6.020830e-01
6.008330e-01
5.991234e-01
5.961508e-01
5.913565e-01
5.859193e-01
5.906735e-01
0.000000e+00
1.000000e+00
6.035122e-01
5.774539e-01
5.843815e-01
5.882090e-01
5.912438e-01
5.939238e-01
5.961349e-01
5.976331e-01
5.976980e-01
5.967233e-01
5.954238e-01
5.927288e-01
5.885098e-01
5.834102e-01
5.897793e-01
0.000000e+00
1.000000e+00
5.944913e-01
5.770932e-01
5.820467e-01
5.847758e-01
5.871406e-01
5.891727e-01
5.908680e-01
5.921884e-01
5.923707e-01
5.917937e-01
5.908430e-01
5.885109e-01
5.851823e-01
5.806305e-01
5.877501e-01
0.000000e+00
1.000000e+00
5.853253e-01
5.761459e-01
5.789910e-01
5.807583e-01
5.823944e-01
5.837863e-01
5.849207e-01
5.859078e-01
5.862995e-01
5.862324e-01
5.855027e-01
5.837791e-01
5.815400e-01
5.778757e-01
5.841710e-01
0.000000e+00
1.000000e+00
5.767395e-01
5.746370e-01
5.754464e-01
5.762914e-01
5.771700e-01
5.779788e-01
5.786379e-01
5.791540e-01
5.797285e-01
5.801021e-01
5.796781e-01
5.788225e-01
5.776976e-01
5.753821e-01
5.791356e-01
0.000000e+00
1.000000e+00
5.692227e-01
5.727650e-01
5.716076e-01
5.714489e-01
5.714891e-01
5.716827e-01
5.719724e-01
5.723810e-01
5.731343e-01
5.736397e-01
5.737578e-01
5.738358e-01
5.737788e-01
5.732475e-01
5.732002e-01
0.000000e+00
1.000000e+00
5.618428e-01
5.708349e-01
5.675766e-01
5.663865e-01
5.655464e-01
5.651054e-01
5.650967e-01
5.655981e-01
5.664871e-01
5.673522e-01
5.681117e-01
5.689650e-01
5.699168e-01
5.711676e-01
5.673946e-01
0.000000e+00
1.000000e+00
5.553840e-01
5.682317e-01
5.636029e-01
5.613790e-01
5.597287e-01
5.587778e-01
5.586242e-01
5.591908e-01
5.599495e-01
5.613757e-01
5.629640e-01
5.645322e-01
5.663911e-01
5.695057e-01
5.606636e-01
0.000000e+00
1.000000e+00
5.509951e-01
5.650512e-01
5.598645e-01
5.566569e-01
5.543422e-01
5.530285e-01
5.527620e-01
5.532351e-01
5.540276e-01
5.558061e-01
5.582398e-01
5.605729e-01
5.633377e-01
5.684781e-01
5.532594e-01
0.000000e+00
1.000000e+00
5.489190e-01
5.617450e-01
5.564828e-01
5.524637e-01
5.496378e-01
5.480360e-01
5.476084e-01
5.479904e-01
5.489000e-01
5.509620e-01
5.540730e-01
5.571819e-01
5.609806e-01
5.681316e-01
5.459229e-01
0.000000e+00
1.000000e+00
5.481135e-01
5.588654e-01
5.536247e-01
5.490177e-01
5.457967e-01
5.439332e-01
5.433357e-01
5.436779e-01
5.447481e-01
5.470505e-01
5.506233e-01
5.543831e-01
5.593273e-01
5.681382e-01
5.396397e-01
0.000000e+00
1.000000e+00
5.469526e-01
5.567654e-01
5.514730e-01
5.464597e-01
5.429345e-01
5.408479e-01
5.401149e-01
5.404619e-01
5.417050e-01
5.442153e-01
5.480569e-01
5.522519e-01
5.581751e-01
5.680005e-01
5.354074e-01
0.000000e+00
1.000000e+00
5.448335e-01
5.556835e-01
5.501761e-01
5.448896e-01
5.411472e-01
5.388989e-01
5.380786e-01
5.384575e-01
5.398536e-01
5.425188e-01
5.464804e-01
5.509077e-01
5.573129e-01
5.674445e-01
5.339310e-01
0.000000e+00
1.000000e+00
5.426210e-01
5.554913e-01
5.497332e-01
5.443381e-01
5.405150e-01
5.382101e-01
5.373644e-01
5.377667e-01
5.392308e-01
5.419541e-01
5.459422e-01
5.504396e-01
5.569006e-01
5.669088e-01
5.343490e-01
0.000000e+00
1.000000e+00
6.076224e-01
5.777762e-01
5.854172e-01
5.899615e-01
5.933763e-01
5.964084e-01
5.988215e-01
6.003605e-01
6.004812e-01
5.993968e-01
5.977601e-01
5.948291e-01
5.902924e-01
5.847679e-01
5.917819e-01
0.000000e+00
1.000000e+00
6.073370e-01
5.775743e-01
5.851847e-01
5.896343e-01
5.929767e-01
5.959478e-01
5.983242e-01
5.998484e-01
5.999435e-01
5.988559e-01
5.972844e-01
5.944237e-01
5.899566e-01
5.846042e-01
5.911756e-01
0.000000e+00
1.000000e+00
6.054204e-01
5.772545e-01
5.845757e-01
5.886901e-01
5.918187e-01
5.945953e-01
5.968437e-01
5.983133e-01
5.983628e-01
5.973113e-01
5.959037e-01
5.932017e-01
5.889387e-01
5.839083e-01
5.898427e-01
0.000000e+00
1.000000e+00
6.017288e-01
5.769133e-01
5.835902e-01
5.871513e-01
5.899499e-01
5.924039e-01
5.944161e-01
5.957844e-01
5.958088e-01
5.948735e-01
5.936734e-01
5.911623e-01
5.872656e-01
5.826418e-01
5.881249e-01
0.000000e+00
1.000000e+00
5.965206e-01
5.765864e-01
5.821751e-01
5.850514e-01
5.874193e-01
5.894473e-01
5.911174e-01
5.923386e-01
5.923791e-01
5.916470e-01
5.906678e-01
5.883960e-01
5.850579e-01
5.809373e-01
5.862575e-01
0.000000e+00
1.000000e+00
5.901872e-01
5.762133e-01
5.802791e-01
5.824252e-01
5.842827e-01
5.858306e-01
5.870805e-01
5.880927e-01
5.882083e-01
5.877653e-01
5.869758e-01
5.850516e-01
5.824552e-01
5.789381e-01
5.841875e-01
0.000000e+00
1.000000e+00
5.831997e-01
5.755904e-01
5.779080e-01
5.793277e-01
5.806137e-01
5.816745e-01
5.824949e-01
5.831992e-01
5.834530e-01
5.833678e-01
5.827191e-01
5.813277e-01
5.795845e-01
5.768080e-01
5.815088e-01
0.000000e+00
1.000000e+00
5.763127e-01
5.745252e-01
5.751739e-01
5.758706e-01
5.765523e-01
5.771481e-01
5.776020e-01
5.779346e-01
5.783047e-01
5.785100e-01
5.781146e-01
5.774228e-01
5.765492e-01
5.747688e-01
5.777080e-01
0.000000e+00
1.000000e+00
5.704093e-01
5.730611e-01
5.721995e-01
5.721045e-01
5.721226e-01
5.722262e-01
5.723800e-01
5.726047e-01
5.730837e-01
5.734004e-01
5.734558e-01
5.734957e-01
5.734604e-01
5.730563e-01
5.729503e-01
0.000000e+00
1.000000e+00
5.644582e-01
5.715207e-01
5.690206e-01
5.681041e-01
5.674274e-01
5.670262e-01
5.669323e-01
5.672290e-01
5.678348e-01
5.684488e-01
5.690086e-01
5.696602e-01
5.704203e-01
5.714079e-01
5.684444e-01
0.000000e+00
1.000000e+00
5.593055e-01
5.693201e-01
5.658500e-01
5.641077e-01
5.627848e-01
5.619705e-01
5.617604e-01
5.621485e-01
5.626964e-01
5.637640e-01
5.649777e-01
5.661967e-01
5.676728e-01
5.702173e-01
5.628703e-01
0.000000e+00
1.000000e+00
5.559446e-01
5.668411e-01
5.628479e-01
5.603248e-01
5.584523e-01
5.573346e-01
5.570614e-01
5.574355e-01
5.580217e-01
5.594048e-01
5.612946e-01
5.630974e-01
5.652720e-01
5.695393e-01
5.570087e-01
0.000000e+00
1.000000e+00
5.535101e-01
5.645400e-01
5.601121e-01
5.569194e-01
5.546092e-01
5.532674e-01
5.529238e-01
5.532785e-01
5.539660e-01
5.556230e-01
5.580845e-01
5.604597e-01
5.633251e-01
5.690825e-01
5.519384e-01
0.000000e+00
1.000000e+00
5.508988e-01
5.626754e-01
5.577782e-01
5.540555e-01
5.514143e-01
5.498982e-01
5.494852e-01
5.498502e-01
5.506767e-01
5.525755e-01
5.554647e-01
5.583344e-01
5.618127e-01
5.685128e-01
5.482731e-01
0.000000e+00
1.000000e+00
5.481034e-01
5.613967e-01
5.559894e-01
5.518840e-01
5.490049e-01
5.473550e-01
5.468851e-01
5.472836e-01
5.482635e-01
5.503657e-01
5.535308e-01
5.567686e-01
5.606921e-01
5.678042e-01
5.461961e-01
0.000000e+00
1.000000e+00
5.459049e-01
5.608130e-01
5.548762e-01
5.505392e-01
5.475044e-01
5.457557e-01
5.452390e-01
5.456752e-01
5.467953e-01
5.490389e-01
5.523357e-01
5.557996e-01
5.599680e-01
5.671681e-01
5.455466e-01
0.000000e+00
1.000000e+00
5.447038e-01
5.607497e-01
5.544906e-01
5.500760e-01
5.469843e-01
5.451973e-01
5.446619e-01
5.451176e-01
5.463020e-01
5.485969e-01
5.519247e-01
5.554635e-01
5.596977e-01
5.668558e-01
5.456565e-01
0.000000e+00
1.000000e+00
5.939482e-01
5.769015e-01
5.816510e-01
5.843248e-01
5.866541e-01
5.886795e-01
5.903510e-01
5.916117e-01
5.918647e-01
5.913251e-01
5.903712e-01
5.881471e-01
5.849386e-01
5.804072e-01
5.877934e-01
0.000000e+00
1.000000e+00
5.937440e-01
5.768238e-01
5.815155e-01
5.841352e-01
5.864139e-01
5.883907e-01
5.900240e-01
5.912663e-01
5.914981e-01
5.909612e-01
5.900399e-01
5.878508e-01
5.846936e-01
5.802866e-01
5.875147e-01
0.000000e+00
1.000000e+00
5.927186e-01
5.766269e-01
5.811086e-01
5.835686e-01
5.857026e-01
5.875386e-01
5.890555e-01
5.902318e-01
5.904186e-01
5.899041e-01
5.890525e-01
5.869603e-01
5.839691e-01
5.798721e-01
5.865640e-01
0.000000e+00
1.000000e+00
5.908702e-01
5.762917e-01
5.804045e-01
5.826136e-01
5.845280e-01
5.861492e-01
5.874753e-01
5.885284e-01
5.886724e-01
5.882146e-01
5.874356e-01
5.854987e-01
5.828047e-01
5.791560e-01
5.849854e-01
0.000000e+00
1.000000e+00
5.881655e-01
5.758585e-01
5.793994e-01
5.812738e-01
5.829024e-01
5.842510e-01
5.853251e-01
5.862055e-01
5.863245e-01
5.859642e-01
5.852590e-01
5.835476e-01
5.812742e-01
5.781702e-01
5.829194e-01
0.000000e+00
1.000000e+00
5.846514e-01
5.753846e-01
5.780946e-01
5.795608e-01
5.808461e-01
5.818868e-01
5.826760e-01
5.833412e-01
5.834666e-01
5.832449e-01
5.826157e-01
5.812192e-01
5.794636e-01
5.769638e-01
5.806248e-01
0.000000e+00
1.000000e+00
5.804128e-01
5.748770e-01
5.765047e-01
5.775069e-01
5.783987e-01
5.791142e-01
5.796266e-01
5.800404e-01
5.802072e-01
5.801526e-01
5.796198e-01
5.786418e-01
5.774604e-01
5.755991e-01
5.783807e-01
0.000000e+00
1.000000e+00
5.757212e-01
5.742160e-01
5.746833e-01
5.751900e-01
5.756561e-01
5.760408e-01
5.763083e-01
5.764747e-01
5.766742e-01
5.767460e-01
5.764201e-01
5.759342e-01
5.753414e-01
5.741698e-01
5.760201e-01
0.000000e+00
1.000000e+00
5.715850e-01
5.732362e-01
5.726825e-01
5.726419e-01
5.726449e-01
5.726786e-01
5.727257e-01
5.728008e-01
5.730396e-01
5.731913e-01
5.732002e-01
5.732116e-01
5.731955e-01
5.729289e-01
5.728009e-01
0.000000e+00
1.000000e+00
5.673570e-01
5.721395e-01
5.704763e-01
5.698602e-01
5.693836e-01
5.690666e-01
5.689305e-01
5.690513e-01
5.694019e-01
5.697772e-01
5.701314e-01
5.705673e-01
5.711022e-01
5.717963e-01
5.696583e-01
0.000000e+00
1.000000e+00
5.638579e-01
5.704989e-01
5.682258e-01
5.670320e-01
5.661057e-01
5.654961e-01
5.652721e-01
5.654981e-01
5.658657e-01
5.665732e-01
5.673709e-01
5.682066e-01
5.692420e-01
5.710973e-01
5.654051e-01
0.000000e+00
1.000000e+00
5.609687e-01
5.689461e-01
5.660744e-01
5.643364e-01
5.630099e-01
5.621711e-01
5.619162e-01
5.622106e-01
5.626365e-01
5.636169e-01
5.648698e-01
5.660892e-01
5.675879e-01
5.705346e-01
5.617935e-01
0.000000e+00
1.000000e+00
5.578286e-01
5.676661e-01
5.640779e-01
5.618561e-01
5.601972e-01
5.591957e-01
5.589390e-01
5.593046e-01
5.598309e-01
5.610722e-01
5.627283e-01
5.643031e-01
5.662007e-01
5.698707e-01
5.592713e-01
0.000000e+00
1.000000e+00
5.548018e-01
5.666892e-01
5.623412e-01
5.597216e-01
5.578053e-01
5.566933e-01
5.564485e-01
5.568961e-01
5.575520e-01
5.590319e-01
5.610111e-01
5.628924e-01
5.651081e-01
5.691840e-01
5.576188e-01
0.000000e+00
1.000000e+00
5.524497e-01
5.660306e-01
5.609778e-01
5.580680e-01
5.559698e-01
5.547859e-01
5.545553e-01
5.550821e-01
5.558777e-01
5.575530e-01
5.597586e-01
5.618804e-01
5.643325e-01
5.686321e-01
5.566699e-01
0.000000e+00
1.000000e+00
5.510732e-01
5.656816e-01
5.601006e-01
5.570198e-01
5.548127e-01
5.535848e-01
5.533574e-01
5.539379e-01
5.548569e-01
5.566596e-01
5.589908e-01
5.612781e-01
5.638865e-01
5.683062e-01
5.562671e-01
0.000000e+00
1.000000e+00
5.504756e-01
5.656016e-01
5.597908e-01
5.566552e-01
5.544119e-01
5.531690e-01
5.529404e-01
5.535395e-01
5.545132e-01
5.563604e-01
5.587305e-01
5.610804e-01
5.637455e-01
5.681969e-01
5.561651e-01
0.000000e+00
1.000000e+00
5.812208e-01
5.751339e-01
5.768457e-01
5.780582e-01
5.792619e-01
5.803364e-01
5.812403e-01
5.819890e-01
5.824902e-01
5.827396e-01
5.822347e-01
5.810246e-01
5.794016e-01
5.764859e-01
5.817636e-01
0.000000e+00
1.000000e+00
5.811557e-01
5.751367e-01
5.768149e-01
5.780081e-01
5.791860e-01
5.802307e-01
5.811039e-01
5.818285e-01
5.823112e-01
5.825499e-01
5.820475e-01
5.808512e-01
5.792574e-01
5.763995e-01
5.816582e-01
0.000000e+00
1.000000e+00
5.807788e-01
5.751201e-01
5.766980e-01
5.778332e-01
5.789373e-01
5.799007e-01
5.806916e-01
5.813491e-01
5.817811e-01
5.819851e-01
5.814896e-01
5.803420e-01
5.788398e-01
5.761605e-01
5.811356e-01
0.000000e+00
1.000000e+00
5.801758e-01
5.750286e-01
5.764572e-01
5.774970e-01
5.784875e-01
5.793329e-01
5.800061e-01
5.805600e-01
5.809183e-01
5.810682e-01
5.805830e-01
5.795292e-01
5.781832e-01
5.758026e-01
5.802393e-01
0.000000e+00
1.000000e+00
5.793042e-01
5.748413e-01
5.760728e-01
5.769789e-01
5.778209e-01
5.785205e-01
5.790522e-01
5.794765e-01
5.797519e-01
5.798422e-01
5.793790e-01
5.784665e-01
5.773340e-01
5.753483e-01
5.789891e-01
0.000000e+00
1.000000e+00
5.781354e-01
5.745495e-01
5.755298e-01
5.762628e-01
5.769262e-01
5.774621e-01
5.778438e-01
5.781262e-01
5.783248e-01
5.783634e-01
5.779440e-01
5.772190e-01
5.763433e-01
5.748165e-01
5.774165e-01
0.000000e+00
1.000000e+00
5.766330e-01
5.741707e-01
5.748235e-01
5.753439e-01
5.758031e-01
5.761651e-01
5.764053e-01
5.765507e-01
5.766890e-01
5.766946e-01
5.763568e-01
5.758593e-01
5.752669e-01
5.742246e-01
5.756145e-01
0.000000e+00
1.000000e+00
5.746937e-01
5.737532e-01
5.739702e-01
5.742444e-01
5.744805e-01
5.746623e-01
5.747740e-01
5.748119e-01
5.748983e-01
5.748944e-01
5.747007e-01
5.744532e-01
5.741547e-01
5.735848e-01
5.739516e-01
0.000000e+00
1.000000e+00
5.727636e-01
5.732630e-01
5.729843e-01
5.729790e-01
5.729747e-01
5.729680e-01
5.729537e-01
5.729384e-01
5.730092e-01
5.730500e-01
5.730365e-01
5.730327e-01
5.730289e-01
5.728989e-01
5.728465e-01
0.000000e+00
1.000000e+00
5.704611e-01
5.726197e-01
5.718129e-01
5.715040e-01
5.712558e-01
5.710761e-01
5.709712e-01
5.709799e-01
5.711381e-01
5.713098e-01
5.714665e-01
5.716849e-01
5.719651e-01
5.723364e-01
5.706898e-01
0.000000e+00
1.000000e+00
5.680621e-01
5.718653e-01
5.705965e-01
5.699877e-01
5.695086e-01
5.691788e-01
5.690225e-01
5.691020e-01
5.693527e-01
5.697176e-01
5.700780e-01
5.705070e-01
5.710439e-01
5.719084e-01
5.687468e-01
0.000000e+00
1.000000e+00
5.655898e-01
5.713031e-01
5.693830e-01
5.684855e-01
5.677911e-01
5.673388e-01
5.671743e-01
5.673472e-01
5.677318e-01
5.682888e-01
5.688486e-01
5.694683e-01
5.702330e-01
5.713903e-01
5.678695e-01
0.000000e+00
1.000000e+00
5.632849e-01
5.707882e-01
5.681945e-01
5.670326e-01
5.661539e-01
5.656196e-01
5.654863e-01
5.657759e-01
5.663310e-01
5.670860e-01
5.678329e-01
5.686283e-01
5.695848e-01
5.709387e-01
5.671491e-01
0.000000e+00
1.000000e+00
5.614254e-01
5.703220e-01
5.671150e-01
5.657277e-01
5.647032e-01
5.641218e-01
5.640407e-01
5.644552e-01
5.651971e-01
5.661386e-01
5.670493e-01
5.680010e-01
5.691135e-01
5.706262e-01
5.666064e-01
0.000000e+00
1.000000e+00
5.600639e-01
5.699205e-01
5.662303e-01
5.646699e-01
5.635427e-01
5.629422e-01
5.629191e-01
5.634476e-01
5.643648e-01
5.654613e-01
5.665042e-01
5.675865e-01
5.688171e-01
5.704532e-01
5.662453e-01
0.000000e+00
1.000000e+00
5.592659e-01
5.696251e-01
5.656347e-01
5.639636e-01
5.627776e-01
5.621759e-01
5.621998e-01