<?xml version="1.0"?>
<VTKFile type="StructuredGrid" version="0.1">
  <StructuredGrid WholeExtent="0 16 0 180 0 0">
    <Piece Extent="0 16 0 180 0 0">
      <PointData Scalars="temperature" Vectors="velocity">
        <DataArray type="Float32" Name="density" NumberOfComponents="2" format="ascii">
1.0132e+00
1.0557e+00
1.0349e+00
1.0712e+00
1.0696e+00
1.1391e+00
1.1834e+00
1.1954e+00
1.2247e+00
1.2502e+00
1.3396e+00
1.3878e+00
1.3982e+00
1.4350e+00
1.4363e+00
1.4717e+00
1.4731e+00
1.5127e+00
1.5079e+00
1.5481e+00
1.5422e+00
1.5826e+00
1.5726e+00
1.6126e+00
1.6201e+00
1.6480e+00
1.6458e+00
1.6777e+00
1.6679e+00
1.6993e+00
1.6894e+00
1.7202e+00
1.7077e+00
1.7380e+00
1.0127e+00
1.0552e+00
1.0344e+00
1.0708e+00
1.0691e+00
1.1387e+00
1.1831e+00
1.1950e+00
1.2244e+00
1.2499e+00
1.3392e+00
1.3874e+00
1.3978e+00
1.4310e+00
1.4359e+00
1.4714e+00
1.4728e+00
1.5124e+00
1.5076e+00
1.5477e+00
1.5419e+00
1.5824e+00
1.5714e+00
1.6123e+00
1.6198e+00
1.6477e+00
1.6455e+00
1.6774e+00
1.6676e+00
1.6990e+00
1.6891e+00
1.7200e+00
1.7074e+00
1.7378e+00
1.0122e+00
1.0547e+00
1.0339e+00
1.0703e+00
1.0687e+00
1.1382e+00
1.1827e+00
1.1947e+00
1.2241e+00
1.2495e+00
1.3388e+00
1.3869e+00
1.3973e+00
1.4306e+00
1.4355e+00
1.4710e+00
1.4724e+00
1.5120e+00
1.5073e+00
1.5474e+00
1.5415e+00
1.5821e+00
1.5711e+00
1.6120e+00
1.6195e+00
1.6474e+00
1.6452e+00
1.6772e+00
1.6673e+00
1.6987e+00
1.6888e+00
1.7197e+00
1.7071e+00
1.7376e+00
1.0117e+00
1.0519e+00
1.0335e+00
1.0698e+00
1.0683e+00
1.1378e+00
1.1824e+00
1.1943e+00
1.2237e+00
1.2492e+00
1.3384e+00
1.3865e+00
1.3969e+00
1.4302e+00
1.4351e+00
1.4706e+00
1.4721e+00
1.5117e+00
1.5069e+00
1.5471e+00
1.5412e+00
1.5818e+00
1.5708e+00
1.6117e+00
1.6191e+00
1.6471e+00
1.6449e+00
1.6769e+00
1.6670e+00
1.6985e+00
1.6885e+00
1.7194e+00
1.7068e+00
1.7373e+00
1.0111e+00
1.0514e+00
1.0330e+00
1.0694e+00
1.0678e+00
1.1374e+00
1.1820e+00
1.1939e+00
1.2234e+00
1.2488e+00
1.3380e+00
1.3861e+00
1.3965e+00
1.4298e+00
1.4347e+00
1.4702e+00
1.4717e+00
1.5113e+00
1.5066e+00
1.5468e+00
1.5409e+00
1.5814e+00
1.5705e+00
1.6114e+00
1.6188e+00
1.6468e+00
1.6445e+00
1.6766e+00
1.6667e+00
1.6982e+00
1.6882e+00
1.7192e+00
1.7065e+00
1.7371e+00
1.0106e+00
1.0509e+00
1.0325e+00
1.0689e+00
1.0674e+00
1.1370e+00
1.1816e+00
1.1935e+00
1.2231e+00
1.2485e+00
1.3376e+00
1.3857e+00
1.3960e+00
1.4294e+00
1.4343e+00
1.4698e+00
1.4713e+00
1.5110e+00
1.5062e+00
1.5464e+00
1.5405e+00
1.5811e+00
1.5702e+00
1.6111e+00
1.6184e+00
1.6465e+00
1.6442e+00
1.6763e+00
1.6664e+00
1.6979e+00
1.6879e+00
1.7189e+00
1.7062e+00
1.7368e+00
1.0101e+00
1.0504e+00
1.0320e+00
1.0684e+00
1.0669e+00
1.1365e+00
1.1812e+00
1.1931e+00
1.2227e+00
1.2481e+00
1.3372e+00
1.3852e+00
1.3955e+00
1.4289e+00
1.4339e+00
1.4694e+00
1.4709e+00
1.5106e+00
1.5059e+00
1.5461e+00
1.5402e+00
1.5808e+00
1.5698e+00
1.6108e+00
1.6180e+00
1.6462e+00
1.6438e+00
1.6760e+00
1.6660e+00
1.6976e+00
1.6876e+00
1.7186e+00
1.7059e+00
1.7365e+00
1.0095e+00
1.0498e+00
1.0315e+00
1.0679e+00
1.0665e+00
1.1361e+00
1.1808e+00
1.1927e+00
1.2224e+00
1.2477e+00
1.3367e+00
1.3848e+00
1.3951e+00
1.4285e+00
1.4334e+00
1.4690e+00
1.4705e+00
1.5102e+00
1.5055e+00
1.5457e+00
1.5398e+00
1.5805e+00
1.5695e+00
1.6105e+00
1.6176e+00
1.6459e+00
1.6435e+00
1.6757e+00
1.6657e+00
1.6973e+00
1.6872e+00
1.7183e+00
1.7056e+00
1.7362e+00
1.0090e+00
1.0493e+00
1.0310e+00
1.0674e+00
1.0660e+00
1.1357e+00
1.1805e+00
1.1924e+00
1.2220e+00
1.2474e+00
1.3363e+00
1.3843e+00
1.3946e+00
1.4281e+00
1.4330e+00
1.4686e+00
1.4701e+00
1.5098e+00
1.5051e+00
1.5454e+00
1.5395e+00
1.5801e+00
1.5692e+00
1.6102e+00
1.6173e+00
1.6455e+00
1.6431e+00
1.6754e+00
1.6653e+00
1.6970e+00
1.6869e+00
1.7180e+00
1.7052e+00
1.7360e+00
1.0085e+00
1.0488e+00
1.0305e+00
1.0669e+00
1.0655e+00
1.1352e+00
1.1801e+00
1.1919e+00
1.2216e+00
1.2470e+00
1.3358e+00
1.3839e+00
1.3941e+00
1.4276e+00
1.4325e+00
1.4682e+00
1.4697e+00
1.5094e+00
1.5045e+00
1.5450e+00
1.5391e+00
1.5798e+00
1.5688e+00
1.6098e+00
1.6169e+00
1.6452e+00
1.6427e+00
1.6751e+00
1.6650e+00
1.6967e+00
1.6865e+00
1.7177e+00
1.7049e+00
1.7357e+00
1.0079e+00
1.0482e+00
1.0300e+00
1.0664e+00
1.0651e+00
1.1348e+00
1.1797e+00
1.1915e+00
1.2213e+00
1.2466e+00
1.3354e+00
1.3834e+00
1.3936e+00
1.4272e+00
1.4321e+00
1.4678e+00
1.4693e+00
1.5090e+00
1.5041e+00
1.5446e+00
1.5388e+00
1.5794e+00
1.5685e+00
1.6095e+00
1.6165e+00
1.6449e+00
1.6423e+00
1.6747e+00
1.6646e+00
1.6964e+00
1.6862e+00
1.7174e+00
1.7045e+00
1.7354e+00
1.0073e+00
1.0477e+00
1.0295e+00
1.0659e+00
1.0646e+00
1.1343e+00
1.1792e+00
1.1911e+00
1.2209e+00
1.2462e+00
1.3349e+00
1.3829e+00
1.3931e+00
1.4267e+00
1.4316e+00
1.4673e+00
1.4688e+00
1.5086e+00
1.5037e+00
1.5442e+00
1.5384e+00
1.5791e+00
1.5681e+00
1.6092e+00
1.6161e+00
1.6445e+00
1.6420e+00
1.6744e+00
1.6642e+00
1.6961e+00
1.6858e+00
1.7171e+00
1.7042e+00
1.7351e+00
1.0068e+00
1.0471e+00
1.0290e+00
1.0653e+00
1.0641e+00
1.1338e+00
1.1788e+00
1.1907e+00
1.2205e+00
1.2459e+00
1.3345e+00
1.3825e+00
1.3926e+00
1.4262e+00
1.4312e+00
1.4669e+00
1.4684e+00
1.5086e+00
1.5033e+00
1.5439e+00
1.5380e+00
1.5787e+00
1.5678e+00
1.6088e+00
1.6156e+00
1.6442e+00
1.6416e+00
1.6741e+00
1.6638e+00
1.6958e+00
1.6854e+00
1.7168e+00
1.7038e+00
1.7348e+00
1.0062e+00
1.0466e+00
1.0284e+00
1.0648e+00
1.0636e+00
1.1334e+00
1.1784e+00
1.1903e+00
1.2201e+00
1.2455e+00
1.3340e+00
1.3820e+00
1.3921e+00
1.4258e+00
1.4307e+00
1.4664e+00
1.4680e+00
1.5082e+00
1.5029e+00
1.5435e+00
1.5376e+00
1.5784e+00
1.5674e+00
1.6085e+00
1.6152e+00
1.6438e+00
1.6412e+00
1.6737e+00
1.6634e+00
1.6954e+00
1.6851e+00
1.7165e+00
1.7035e+00
1.7345e+00
1.0056e+00
1.0460e+00
1.0279e+00
1.0643e+00
1.0631e+00
1.1329e+00
1.1780e+00
1.1899e+00
1.2197e+00
1.2451e+00
1.3335e+00
1.3815e+00
1.3916e+00
1.4253e+00
1.4303e+00
1.4660e+00
1.4675e+00
1.5078e+00
1.5025e+00
1.5431e+00
1.5372e+00
1.5780e+00
1.5670e+00
1.6082e+00
1.6148e+00
1.6435e+00
1.6408e+00
1.6734e+00
1.6631e+00
1.6951e+00
1.6847e+00
1.7162e+00
1.7031e+00
1.7342e+00
1.0050e+00
1.0454e+00
1.0274e+00
1.0638e+00
1.0627e+00
1.1324e+00
1.1776e+00
1.1895e+00
1.2194e+00
1.2447e+00
1.3331e+00
1.3810e+00
1.3911e+00
1.4248e+00
1.4298e+00
1.4622e+00
1.4671e+00
1.5074e+00
1.5021e+00
1.5427e+00
1.5369e+00
1.5776e+00
1.5667e+00
1.6078e+00
1.6144e+00
1.6431e+00
1.6404e+00
1.6731e+00
1.6627e+00
1.6948e+00
1.6843e+00
1.7159e+00
1.7027e+00
1.7338e+00
1.0045e+00
1.0449e+00
1.0268e+00
1.0632e+00
1.0622e+00
1.1320e+00
1.1772e+00
1.1890e+00
1.2177e+00
1.2308e+00
1.3326e+00
1.3805e+00
1.3906e+00
1.4244e+00
1.4293e+00
1.4618e+00
1.4667e+00
1.5070e+00
1.5017e+00
1.5423e+00
1.5365e+00
1.5772e+00
1.5663e+00
1.6074e+00
1.6140e+00
1.6428e+00
1.6399e+00
1.6727e+00
1.6623e+00
1.6944e+00
1.6839e+00
1.7155e+00
1.7024e+00
1.7335e+00
1.0039e+00
1.0443e+00
1.0263e+00
1.0627e+00
1.0617e+00
1.1315e+00
1.1561e+00
1.1871e+00
1.2173e+00
1.2304e+00
1.3321e+00
1.3800e+00
1.3901e+00
1.4239e+00
1.4288e+00
1.4613e+00
1.4662e+00
1.5066e+00
1.5012e+00
1.5419e+00
1.5361e+00
1.5769e+00
1.5659e+00
1.6071e+00
1.6135e+00
1.6424e+00
1.6395e+00
1.6724e+00
1.6619e+00
1.6941e+00
1.6835e+00
1.7152e+00
1.7020e+00
1.7332e+00
1.0033e+00
1.0437e+00
1.0244e+00
1.0621e+00
1.0612e+00
1.1310e+00
1.1556e+00
1.1867e+00
1.2169e+00
1.2300e+00
1.3316e+00
1.3795e+00
1.3896e+00
1.4234e+00
1.4284e+00
1.4609e+00
1.4658e+00
1.5061e+00
1.5008e+00
1.5415e+00
1.5354e+00
1.5765e+00
1.5655e+00
1.6067e+00
1.6131e+00
1.6420e+00
1.6391e+00
1.6720e+00
1.6615e+00
1.6938e+00
1.6831e+00
1.7149e+00
1.7016e+00
1.7329e+00
1.0027e+00
1.0432e+00
1.0239e+00
1.0616e+00
1.0607e+00
1.1305e+00
1.1552e+00
1.1863e+00
1.2166e+00
1.2296e+00
1.3311e+00
1.3790e+00
1.3891e+00
1.4229e+00
1.4279e+00
1.4604e+00
1.4653e+00
1.5057e+00
1.5004e+00
1.5411e+00
1.5350e+00
1.5761e+00
1.5652e+00
1.6064e+00
1.6127e+00
1.6417e+00
1.6387e+00
1.6717e+00
1.6610e+00
1.6934e+00
1.6827e+00
1.7146e+00
1.7012e+00
1.7326e+00
1.0021e+00
1.0289e+00
1.0233e+00
1.0611e+00
1.0602e+00
1.1301e+00
1.1547e+00
1.1858e+00
1.2162e+00
1.2292e+00
1.3307e+00
1.3785e+00
1.3885e+00
1.4224e+00
1.4274e+00
1.4600e+00
1.4649e+00
1.5053e+00
1.5000e+00
1.5407e+00
1.5346e+00
1.5757e+00
1.5648e+00
1.6060e+00
1.6122e+00
1.6413e+00
1.6383e+00
1.6713e+00
1.6606e+00
1.6931e+00
1.6823e+00
1.7142e+00
1.7008e+00
1.7322e+00
1.0015e+00
1.0283e+00
1.0228e+00
1.0605e+00
1.0596e+00
1.1296e+00
1.1505e+00
1.1761e+00
1.2158e+00
1.2288e+00
1.3507e+00
1.3855e+00
1.3880e+00
1.4219e+00
1.4269e+00
1.4595e+00
1.4644e+00
1.5048e+00
1.4996e+00
1.5403e+00
1.5342e+00
1.5754e+00
1.5644e+00
1.6056e+00
1.6118e+00
1.6409e+00
1.6378e+00
1.6709e+00
1.6602e+00
1.6927e+00
1.6819e+00
1.7139e+00
1.7004e+00
1.7319e+00
1.0009e+00
1.0277e+00
1.0171e+00
1.0600e+00
1.0591e+00
1.1291e+00
1.1500e+00
1.1756e+00
1.2154e+00
1.2284e+00
1.3502e+00
1.3850e+00
1.3875e+00
1.4214e+00
1.4264e+00
1.4591e+00
1.4640e+00
1.5044e+00
1.4991e+00
1.5399e+00
1.5338e+00
1.5750e+00
1.5640e+00
1.6053e+00
1.6113e+00
1.6405e+00
1.6374e+00
1.6706e+00
1.6598e+00
1.6924e+00
1.6815e+00
1.7135e+00
1.7000e+00
1.7316e+00
1.0003e+00
1.0271e+00
1.0166e+00
1.0594e+00
1.0586e+00
1.1286e+00
1.1495e+00
1.1752e+00
1.2150e+00
1.2280e+00
1.3496e+00
1.3844e+00
1.3870e+00
1.4209e+00
1.4259e+00
1.4586e+00
1.4635e+00
1.5040e+00
1.4987e+00
1.5395e+00
1.5334e+00
1.5746e+00
1.5636e+00
1.6049e+00
1.6109e+00
1.6402e+00
1.6370e+00
1.6702e+00
1.6594e+00
1.6920e+00
1.6811e+00
1.7132e+00
1.6996e+00
1.7312e+00
9.9965e-01
1.0265e+00
1.0160e+00
1.0596e+00
1.0581e+00
1.1281e+00
1.1490e+00
1.1748e+00
1.2166e+00
1.2377e+00
1.3490e+00
1.3839e+00
1.3864e+00
1.4204e+00
1.4254e+00
1.4581e+00
1.4630e+00
1.5035e+00
1.4983e+00
1.5391e+00
1.5330e+00
1.5742e+00
1.5632e+00
1.6045e+00
1.6104e+00
1.6398e+00
1.6365e+00
1.6698e+00
1.6590e+00
1.6917e+00
1.6807e+00
1.7128e+00
1.6992e+00
1.7309e+00
9.9903e-01
1.0259e+00
1.0155e+00
1.0591e+00
1.0576e+00
1.1276e+00
1.1485e+00
1.1743e+00
1.2162e+00
1.2372e+00
1.3484e+00
1.3834e+00
1.3859e+00
1.4199e+00
1.4249e+00
1.4577e+00
1.4626e+00
1.5031e+00
1.4978e+00
1.5386e+00
1.5326e+00
1.5738e+00
1.5628e+00
1.6042e+00
1.6100e+00
1.6394e+00
1.6361e+00
1.6695e+00
1.6585e+00
1.6913e+00
1.6803e+00
1.7125e+00
1.6988e+00
1.7306e+00
9.9841e-01
9.9324e-01
1.0149e+00
1.0585e+00
1.0571e+00
1.1271e+00
1.1480e+00
1.1739e+00
1.2158e+00
1.2368e+00
1.3478e+00
1.3828e+00
1.3854e+00
1.4194e+00
1.4244e+00
1.4572e+00
1.4621e+00
1.5026e+00
1.4974e+00
1.5382e+00
1.5322e+00
1.5734e+00
1.5624e+00
1.6038e+00
1.6095e+00
1.6390e+00
1.6357e+00
1.6691e+00
1.6581e+00
1.6909e+00
1.6799e+00
1.7122e+00
1.6984e+00
1.7302e+00
9.9778e-01
9.9264e-01
1.0143e+00
1.0580e+00
1.0565e+00
1.1266e+00
1.1475e+00
1.1734e+00
1.2154e+00
1.2363e+00
1.3473e+00
1.3823e+00
1.3848e+00
1.4189e+00
1.4239e+00
1.4568e+00
1.4616e+00
1.5022e+00
1.4969e+00
1.5378e+00
1.5318e+00
1.5730e+00
1.5617e+00
1.6034e+00
1.6090e+00
1.6386e+00
1.6352e+00
1.6687e+00
1.6577e+00
1.6906e+00
1.6795e+00
1.7118e+00
1.6980e+00
1.7299e+00
9.9715e-01
9.9204e-01
1.0137e+00
1.0574e+00
1.0560e+00
1.1261e+00
1.1470e+00
1.1730e+00
1.2149e+00
1.2359e+00
1.3467e+00
1.3817e+00
1.3843e+00
1.4184e+00
1.4234e+00
1.4563e+00
1.4612e+00
1.5017e+00
1.4965e+00
1.5374e+00
1.5313e+00
1.5726e+00
1.5613e+00
1.6030e+00
1.6086e+00
1.6382e+00
1.6348e+00
1.6684e+00
1.6572e+00
1.6902e+00
1.6790e+00
1.7115e+00
1.6976e+00
1.7295e+00
9.9652e-01
9.9144e-01
1.0131e+00
1.0568e+00
1.0555e+00
1.1256e+00
1.1356e+00
1.1725e+00
1.2145e+00
1.2354e+00
1.3461e+00
1.3812e+00
1.3837e+00
1.4179e+00
1.4229e+00
1.4558e+00
1.4607e+00
1.5013e+00
1.4961e+00
1.5370e+00
1.5309e+00
1.5722e+00
1.5609e+00
1.6027e+00
1.6081e+00
1.6378e+00
1.6343e+00
1.6680e+00
1.6568e+00
1.6899e+00
1.6786e+00
1.7111e+00
1.6972e+00
1.7292e+00
9.9588e-01
9.9202e-01
1.0126e+00
1.0563e+00
1.0550e+00
1.1251e+00
1.1351e+00
1.1588e+00
1.2141e+00
1.2350e+00
1.3455e+00
1.3806e+00
1.3832e+00
1.4174e+00
1.4224e+00
1.4553e+00
1.4602e+00
1.5008e+00
1.4956e+00
1.5365e+00
1.5305e+00
1.5718e+00
1.5605e+00
1.6023e+00
1.6077e+00
1.6374e+00
1.6339e+00
1.6676e+00
1.6564e+00
1.6895e+00
1.6782e+00
1.7107e+00
1.6968e+00
1.7288e+00
9.9524e-01
9.9141e-01
1.0120e+00
1.0557e+00
1.0544e+00
1.1246e+00
1.1346e+00
1.1583e+00
1.2137e+00
1.2346e+00
1.3449e+00
1.3801e+00
1.3826e+00
1.4169e+00
1.4219e+00
1.4549e+00
1.4598e+00
1.5004e+00
1.4952e+00
1.5361e+00
1.5301e+00
1.5714e+00
1.5601e+00
1.6019e+00
1.6072e+00
1.6371e+00
1.6334e+00
1.6672e+00
1.6559e+00
1.6891e+00
1.6778e+00
1.7104e+00
1.6964e+00
1.7285e+00
9.9460e-01
9.9080e-01
1.0114e+00
1.0551e+00
1.0539e+00
1.1241e+00
1.1341e+00
1.1579e+00
1.2133e+00
1.2341e+00
1.3443e+00
1.3795e+00
1.3825e+00
1.4164e+00
1.4214e+00
1.4544e+00
1.4593e+00
1.4999e+00
1.4947e+00
1.5357e+00
1.5297e+00
1.5710e+00
1.5597e+00
1.6015e+00
1.6067e+00
1.6367e+00
1.6330e+00
1.6668e+00
1.6555e+00
1.6888e+00
1.6774e+00
1.7100e+00
1.6960e+00
1.7281e+00
9.9395e-01
9.9019e-01
1.0108e+00
1.0545e+00
1.0534e+00
1.1236e+00
1.1335e+00
1.1574e+00
1.2128e+00
1.2336e+00
1.3437e+00
1.3789e+00
1.3820e+00
1.4159e+00
1.4209e+00
1.4539e+00
1.4588e+00
1.4995e+00
1.4943e+00
1.5353e+00
1.5292e+00
1.5706e+00
1.5593e+00
1.6011e+00
1.6062e+00
1.6363e+00
1.6325e+00
1.6665e+00
1.6551e+00
1.6884e+00
1.6769e+00
1.7097e+00
1.6955e+00
1.7278e+00
9.9330e-01
9.8958e-01
1.0102e+00
1.0540e+00
1.0528e+00
1.1231e+00
1.1330e+00
1.1569e+00
1.2124e+00
1.2332e+00
1.3431e+00
1.3784e+00
1.3814e+00
1.4153e+00
1.4204e+00
1.4534e+00
1.4583e+00
1.4990e+00
1.4938e+00
1.5348e+00
1.5288e+00
1.5702e+00
1.5589e+00
1.6007e+00
1.6058e+00
1.6359e+00
1.6321e+00
1.6661e+00
1.6546e+00
1.6880e+00
1.6765e+00
1.7093e+00
1.6951e+00
1.7274e+00
9.9265e-01
9.8896e-01
1.0096e+00
1.0534e+00
1.0523e+00
1.1226e+00
1.1325e+00
1.1565e+00
1.2120e+00
1.2327e+00
1.3425e+00
1.3778e+00
1.3809e+00
1.4148e+00
1.4199e+00
1.4530e+00
1.4579e+00
1.4986e+00
1.4934e+00
1.5344e+00
1.5284e+00
1.5698e+00
1.5585e+00
1.6003e+00
1.6053e+00
1.6355e+00
1.6316e+00
1.6657e+00
1.6542e+00
1.6877e+00
1.6761e+00
1.7090e+00
1.6947e+00
1.7271e+00
9.9199e-01
9.8834e-01
1.0090e+00
1.0528e+00
1.0518e+00
1.0952e+00
1.1320e+00
1.1560e+00
1.2116e+00
1.2323e+00
1.3419e+00
1.3773e+00
1.3803e+00
1.4143e+00
1.4193e+00
1.4525e+00
1.4574e+00
1.4935e+00
1.4929e+00
1.5340e+00
1.5280e+00
1.5694e+00
1.5581e+00
1.6000e+00
1.6048e+00
1.6351e+00
1.6311e+00
1.6653e+00
1.6537e+00
1.6873e+00
1.6756e+00
1.7086e+00
1.6943e+00
1.7267e+00
9.9133e-01
9.8772e-01
1.0084e+00
1.0522e+00
1.0512e+00
1.0947e+00
1.1315e+00
1.1556e+00
1.2111e+00
1.2318e+00
1.3413e+00
1.3767e+00
1.3798e+00
1.4138e+00
1.4188e+00
1.4520e+00
1.4569e+00
1.4930e+00
1.4925e+00
1.5335e+00
1.5275e+00
1.5690e+00
1.5577e+00
1.5996e+00
1.6040e+00
1.6347e+00
1.6307e+00
1.6649e+00
1.6533e+00
1.6869e+00
1.6752e+00
1.7082e+00
1.6939e+00
1.7264e+00
9.9066e-01
9.8709e-01
1.0078e+00
1.0516e+00
1.0507e+00
1.0942e+00
1.1309e+00
1.1551e+00
1.2107e+00
1.2314e+00
1.3407e+00
1.3761e+00
1.3792e+00
1.4133e+00
1.4183e+00
1.4515e+00
1.4564e+00
1.4926e+00
1.4920e+00
1.5331e+00
1.5271e+00
1.5686e+00
1.5573e+00
1.5992e+00
1.6035e+00
1.6343e+00
1.6302e+00
1.6645e+00
1.6528e+00
1.6865e+00
1.6748e+00
1.7079e+00
1.6934e+00
1.7260e+00
9.8999e-01
9.8647e-01
1.0072e+00
1.0510e+00
1.0501e+00
1.0937e+00
1.1304e+00
1.1547e+00
1.2103e+00
1.2309e+00
1.3401e+00
1.3756e+00
1.3786e+00
1.4127e+00
1.4178e+00
1.4510e+00
1.4559e+00
1.4921e+00
1.4916e+00
1.5327e+00
1.5267e+00
1.5682e+00
1.5569e+00
1.5988e+00
1.6031e+00
1.6339e+00
1.6298e+00
1.6642e+00
1.6524e+00
1.6862e+00
1.6743e+00
1.7075e+00
1.6930e+00
1.7257e+00
9.8932e-01
9.6027e-01
1.0066e+00
1.0504e+00
1.0496e+00
1.0933e+00
1.1299e+00
1.1542e+00
1.2098e+00
1.2304e+00
1.3395e+00
1.3750e+00
1.3781e+00
1.4122e+00
1.4173e+00
1.4505e+00
1.4554e+00
1.4917e+00
1.4911e+00
1.5322e+00
1.5262e+00
1.5678e+00
1.5565e+00
1.5984e+00
1.6026e+00
1.6335e+00
1.6293e+00
1.6638e+00
1.6520e+00
1.6858e+00
1.6739e+00
1.7071e+00
1.6926e+00
1.7253e+00
9.8865e-01
9.5134e-01
1.0060e+00
1.0498e+00
1.0490e+00
1.0928e+00
1.1294e+00
1.1537e+00
1.2094e+00
1.2383e+00
1.3389e+00
1.3744e+00
1.3775e+00
1.4117e+00
1.4167e+00
1.4501e+00
1.4550e+00
1.4912e+00
1.4907e+00
1.5318e+00
1.5258e+00
1.5673e+00
1.5561e+00
1.5980e+00
1.5849e+00
1.6273e+00
1.6288e+00
1.6634e+00
1.6515e+00
1.6854e+00
1.6735e+00
1.7068e+00
1.6922e+00
1.7250e+00
9.8797e-01
9.5080e-01
1.0053e+00
1.0492e+00
1.0485e+00
1.0923e+00
1.1288e+00
1.1533e+00
1.2123e+00
1.2378e+00
1.3382e+00
1.3738e+00
1.3770e+00
1.4112e+00
1.4162e+00
1.4496e+00
1.4545e+00
1.4908e+00
1.4902e+00
1.5314e+00
1.5254e+00
1.5669e+00
1.5557e+00
1.5976e+00
1.5845e+00
1.6269e+00
1.6284e+00
1.6630e+00
1.6510e+00
1.6850e+00
1.6730e+00
1.7064e+00
1.6917e+00
1.7246e+00
9.8728e-01
9.5025e-01
1.0047e+00
1.0486e+00
1.0479e+00
1.0918e+00
1.1283e+00
1.1528e+00
1.2118e+00
1.2373e+00
1.3376e+00
1.3733e+00
1.3764e+00
1.4106e+00
1.4157e+00
1.4491e+00
1.4540e+00
1.4903e+00
1.4897e+00
1.5309e+00
1.5249e+00
1.5665e+00
1.5552e+00
1.5972e+00
1.5841e+00
1.6266e+00
1.6279e+00
1.6581e+00
1.6506e+00
1.6846e+00
1.6726e+00
1.7060e+00
1.6913e+00
1.7242e+00
9.8660e-01
9.4970e-01
1.0041e+00
1.0480e+00
1.0474e+00
1.0913e+00
1.1278e+00
1.1524e+00
1.2114e+00
1.2368e+00
1.3370e+00
1.3727e+00
1.3758e+00
1.4101e+00
1.4152e+00
1.4486e+00
1.4535e+00
1.4899e+00
1.4893e+00
1.5305e+00
1.5245e+00
1.5661e+00
1.5548e+00
1.5968e+00
1.5837e+00
1.6262e+00
1.6274e+00
1.6577e+00
1.6501e+00
1.6843e+00
1.6721e+00
1.7057e+00
1.6909e+00
1.7239e+00
9.8591e-01
9.4915e-01
1.0035e+00
1.0474e+00
1.0468e+00
1.0908e+00
1.1272e+00
1.1519e+00
1.2110e+00
1.2363e+00
1.3364e+00
1.3721e+00
1.3753e+00
1.4096e+00
1.4147e+00
1.4481e+00
1.4530e+00
1.4894e+00
1.4888e+00
1.5300e+00
1.5241e+00
1.5657e+00
1.5544e+00
1.5964e+00
1.5833e+00
1.6258e+00
1.6270e+00
1.6573e+00
1.6497e+00
1.6839e+00
1.6717e+00
1.7053e+00
1.6904e+00
1.7235e+00
9.8521e-01
9.4860e-01
1.0028e+00
1.0468e+00
1.0462e+00
1.0903e+00
1.1267e+00
1.1514e+00
1.2105e+00
1.2358e+00
1.3358e+00
1.3715e+00
1.3747e+00
1.4090e+00
1.4141e+00
1.4476e+00
1.4525e+00
1.4890e+00
1.4884e+00
1.5296e+00
1.5236e+00
1.5653e+00
1.5540e+00
1.5960e+00
1.5829e+00
1.6254e+00
1.6265e+00
1.6569e+00
1.6492e+00
1.6835e+00
1.6713e+00
1.7049e+00
1.6900e+00
1.7232e+00
9.8451e-01
9.4804e-01
1.0022e+00
1.0462e+00
1.0457e+00
1.0898e+00
1.1262e+00
1.1510e+00
1.2101e+00
1.2353e+00
1.3352e+00
1.3710e+00
1.3741e+00
1.4085e+00
1.4136e+00
1.4471e+00
1.4520e+00
1.4885e+00
1.4879e+00
1.5292e+00
1.5232e+00
1.5649e+00
1.5536e+00
1.5956e+00
1.5825e+00
1.6250e+00
1.6257e+00
1.6565e+00
1.6488e+00
1.6831e+00
1.6708e+00
1.7045e+00
1.6896e+00
1.7228e+00
9.8381e-01
9.4748e-01
1.0016e+00
1.0456e+00
1.0451e+00
1.0894e+00
1.1256e+00
1.1505e+00
1.2096e+00
1.2348e+00
1.3345e+00
1.3704e+00
1.3735e+00
1.4080e+00
1.4131e+00
1.4466e+00
1.4515e+00
1.4881e+00
1.4874e+00
1.5287e+00
1.5228e+00
1.5644e+00
1.5532e+00
1.5952e+00
1.5821e+00
1.6247e+00
1.6252e+00
1.6561e+00
1.6483e+00
1.6827e+00
1.6704e+00
1.7042e+00
1.6891e+00
1.7224e+00
9.8310e-01
9.4692e-01
1.0009e+00
1.0450e+00
1.0446e+00
1.0889e+00
1.1251e+00
1.1500e+00
1.2092e+00
1.2343e+00
1.3339e+00
1.3698e+00
1.3730e+00
1.4074e+00
1.4125e+00
1.4461e+00
1.4510e+00
1.4876e+00
1.4870e+00
1.5283e+00
1.5223e+00
1.5640e+00
1.5527e+00
1.5948e+00
1.5817e+00
1.6243e+00
1.6247e+00
1.6557e+00
1.6479e+00
1.6823e+00
1.6699e+00
1.7038e+00
1.6887e+00
1.7221e+00
9.8239e-01
9.4636e-01
1.0003e+00
1.0444e+00
1.0422e+00
1.0884e+00
1.1245e+00
1.1495e+00
1.2087e+00
1.2338e+00
1.3333e+00
1.3692e+00
1.3724e+00
1.4069e+00
1.4120e+00
1.4456e+00
1.4505e+00
1.4872e+00
1.4865e+00
1.5278e+00
1.5219e+00
1.5636e+00
1.5523e+00
1.5944e+00
1.5813e+00
1.6239e+00
1.6242e+00
1.6553e+00
1.6474e+00
1.6820e+00
1.6695e+00
1.7034e+00
1.6883e+00
1.7217e+00
9.8168e-01
9.4579e-01
9.9965e-01
1.0438e+00
1.0416e+00
1.0879e+00
1.1240e+00
1.1491e+00
1.2083e+00
1.2333e+00
1.3327e+00
1.3686e+00
1.3718e+00
1.4064e+00
1.4115e+00
1.4451e+00
1.4500e+00
1.4867e+00
1.4860e+00
1.5274e+00
1.5215e+00
1.5632e+00
1.5519e+00
1.5940e+00
1.5809e+00
1.6235e+00
1.6238e+00
1.6549e+00
1.6469e+00
1.6816e+00
1.6690e+00
1.7031e+00
1.6878e+00
1.7213e+00
9.8096e-01
9.3468e-01
9.9900e-01
1.0432e+00
1.0411e+00
1.0874e+00
1.1235e+00
1.1486e+00
1.2078e+00
1.2327e+00
1.3321e+00
1.3680e+00
1.3712e+00
1.4058e+00
1.4109e+00
1.4446e+00
1.4496e+00
1.4862e+00
1.4856e+00
1.5269e+00
1.5210e+00
1.5628e+00
1.5515e+00
1.5936e+00
1.5805e+00
1.6231e+00
1.6233e+00
1.6545e+00
1.6465e+00
1.6812e+00
1.6686e+00
1.7027e+00
1.6874e+00
1.7210e+00
9.8024e-01
9.3412e-01
9.9835e-01
1.0425e+00
1.0406e+00
1.0869e+00
1.1229e+00
1.1481e+00
1.2074e+00
1.2322e+00
1.3314e+00
1.3675e+00
1.3707e+00
1.4053e+00
1.4104e+00
1.4441e+00
1.4491e+00
1.4858e+00
1.4851e+00
1.5265e+00
1.5206e+00
1.5623e+00
1.5511e+00
1.5932e+00
1.5801e+00
1.6227e+00
1.6228e+00
1.6541e+00
1.6460e+00
1.6808e+00
1.6681e+00
1.7023e+00
1.6870e+00
1.7206e+00
9.7951e-01
9.3355e-01
9.9770e-01
1.0419e+00
1.0400e+00
1.0864e+00
1.1224e+00
1.1476e+00
1.2069e+00
1.2317e+00
1.3308e+00
1.3669e+00
1.3701e+00
1.4047e+00
1.4099e+00
1.4436e+00
1.4486e+00
1.4853e+00
1.4846e+00
1.5215e+00
1.5201e+00
1.5619e+00
1.5506e+00
1.5928e+00
1.5797e+00
1.6224e+00
1.6223e+00
1.6537e+00
1.6456e+00
1.6804e+00
1.6677e+00
1.7019e+00
1.6865e+00
1.7202e+00
9.7878e-01
9.3299e-01
9.9704e-01
1.0413e+00
1.0395e+00
1.0859e+00
1.1218e+00
1.1472e+00
1.2065e+00
1.2312e+00
1.3302e+00
1.3663e+00
1.3695e+00
1.4042e+00
1.4093e+00
1.4431e+00
1.4481e+00
1.4849e+00
1.4842e+00
1.5211e+00
1.5197e+00
1.5615e+00
1.5502e+00
1.5924e+00
1.5793e+00
1.6220e+00
1.6219e+00
1.6533e+00
1.6447e+00
1.6800e+00
1.6672e+00
1.7015e+00
1.6861e+00
1.7199e+00
9.7805e-01
9.3242e-01
9.9638e-01
1.0407e+00
1.0389e+00
1.0854e+00
1.1168e+00
1.1467e+00
1.2060e+00
1.2307e+00
1.3295e+00
1.3657e+00
1.3689e+00
1.4037e+00
1.4088e+00
1.4426e+00
1.4476e+00
1.4844e+00
1.4837e+00
1.5206e+00
1.5192e+00
1.5611e+00
1.5498e+00
1.5920e+00
1.5789e+00
1.6216e+00
1.6214e+00
1.6529e+00
1.6442e+00
1.6796e+00
1.6668e+00
1.7012e+00
1.6856e+00
1.7195e+00
9.7731e-01
9.3185e-01
9.9571e-01
1.0400e+00
1.0371e+00
1.0849e+00
1.1162e+00
1.1462e+00
1.2056e+00
1.2302e+00
1.3289e+00
1.3651e+00
1.3683e+00
1.4031e+00
1.4083e+00
1.4421e+00
1.4471e+00
1.4840e+00
1.4832e+00
1.5202e+00
1.5188e+00
1.5607e+00
1.5494e+00
1.5916e+00
1.5785e+00
1.6212e+00
1.6209e+00
1.6525e+00
1.6438e+00
1.6792e+00
1.6663e+00
1.7008e+00
1.6852e+00
1.7191e+00
9.7657e-01
9.3128e-01
9.9505e-01
1.0394e+00
1.0366e+00
1.0844e+00
1.1157e+00
1.1457e+00
1.2051e+00
1.2297e+00
1.3283e+00
1.3645e+00
1.3678e+00
1.4026e+00
1.4077e+00
1.4416e+00
1.4466e+00
1.4835e+00
1.4828e+00
1.5198e+00
1.5184e+00
1.5602e+00
1.5490e+00
1.5912e+00
1.5781e+00
1.6208e+00
1.6204e+00
1.6521e+00
1.6433e+00
1.6789e+00
1.6659e+00
1.7004e+00
1.6848e+00
1.7188e+00
9.7582e-01
9.3070e-01
9.9438e-01
1.0388e+00
1.0360e+00
1.0838e+00
1.1151e+00
1.1453e+00
1.2047e+00
1.2292e+00
1.3276e+00
1.3639e+00
1.3672e+00
1.4020e+00
1.4072e+00
1.4411e+00
1.4461e+00
1.4830e+00
1.4823e+00
1.5193e+00
1.5179e+00
1.5598e+00
1.5485e+00
1.5908e+00
1.5777e+00
1.6204e+00
1.6200e+00
1.6517e+00
1.6428e+00
1.6785e+00
1.6654e+00
1.7000e+00
1.6843e+00
1.7184e+00
9.7507e-01
9.3013e-01
9.9370e-01
1.0200e+00
1.0355e+00
1.0833e+00
1.0789e+00
1.1448e+00
1.2042e+00
1.2286e+00
1.3270e+00
1.3633e+00
1.3666e+00
1.4015e+00
1.4067e+00
1.4406e+00
1.4456e+00
1.4826e+00
1.4818e+00
1.5189e+00
1.5175e+00
1.5594e+00
1.5481e+00
1.5904e+00
1.5773e+00
1.6200e+00
1.6195e+00
1.6513e+00
1.6424e+00
1.6781e+00
1.6650e+00
1.6997e+00
1.6839e+00
1.7180e+00
9.7431e-01
9.2955e-01
9.9303e-01
1.0194e+00
1.0349e+00
1.0828e+00
1.0784e+00
1.1443e+00
1.2038e+00
1.2281e+00
1.3264e+00
1.3627e+00
1.3660e+00
1.4009e+00
1.4061e+00
1.4401e+00
1.4451e+00
1.4821e+00
1.4814e+00
1.5185e+00
1.5170e+00
1.5590e+00
1.5477e+00
1.5900e+00
1.5769e+00
1.6196e+00
1.6190e+00
1.6509e+00
1.6419e+00
1.6777e+00
1.6645e+00
1.6993e+00
1.6834e+00
1.7176e+00
9.7355e-01
9.2896e-01
9.9235e-01
1.0187e+00
1.0344e+00
1.0823e+00
1.0779e+00
1.1438e+00
1.2033e+00
1.2276e+00
1.3257e+00
1.3621e+00
1.3654e+00
1.4004e+00
1.4056e+00
1.4396e+00
1.4445e+00
1.4816e+00
1.4809e+00
1.5180e+00
1.5166e+00
1.5585e+00
1.5473e+00
1.5896e+00
1.5765e+00
1.6193e+00
1.6185e+00
1.6505e+00
1.6414e+00
1.6773e+00
1.6641e+00
1.6989e+00
1.6830e+00
1.7173e+00
9.7278e-01
9.2838e-01
9.9166e-01
9.9212e-01
1.0338e+00
1.0818e+00
1.0773e+00
1.1433e+00
1.2028e+00
1.2271e+00
1.3251e+00
1.3615e+00
1.3648e+00
1.3998e+00
1.4050e+00
1.4391e+00
1.4440e+00
1.4812e+00
1.4804e+00
1.5176e+00
1.5161e+00
1.5581e+00
1.5468e+00
1.5892e+00
1.5761e+00
1.6189e+00
1.6180e+00
1.6501e+00
1.6410e+00
1.6769e+00
1.6636e+00
1.6985e+00
1.6826e+00
1.7169e+00
9.6853e-01
9.2779e-01
9.9098e-01
9.9150e-01
1.0333e+00
1.0813e+00
1.0768e+00
1.1428e+00
1.2024e+00
1.2266e+00
1.3244e+00
1.3609e+00
1.3642e+00
1.3993e+00
1.4045e+00
1.4386e+00
1.4435e+00
1.4807e+00
1.4799e+00
1.5172e+00
1.5157e+00
1.5577e+00
1.5464e+00
1.5888e+00
1.5757e+00
1.6185e+00
1.6176e+00
1.6497e+00
1.6405e+00
1.6765e+00
1.6627e+00
1.6981e+00
1.6821e+00
1.7165e+00
9.6774e-01
9.2720e-01
9.9028e-01
9.9087e-01
1.0327e+00
1.0808e+00
1.0763e+00
1.1423e+00
1.2019e+00
1.2260e+00
1.3238e+00
1.3603e+00
1.3637e+00
1.3987e+00
1.4039e+00
1.4381e+00
1.4430e+00
1.4802e+00
1.4795e+00
1.5167e+00
1.5152e+00
1.5572e+00
1.5460e+00
1.5884e+00
1.5752e+00
1.6181e+00
1.6171e+00
1.6493e+00
1.6400e+00
1.6761e+00
1.6623e+00
1.6977e+00
1.6817e+00
1.7162e+00
9.6695e-01
9.2661e-01
9.8959e-01
9.9023e-01
1.0332e+00
1.0803e+00
1.0757e+00
1.1419e+00
1.2014e+00
1.2255e+00
1.3232e+00
1.3597e+00
1.3631e+00
1.3982e+00
1.4034e+00
1.4376e+00
1.4425e+00
1.4798e+00
1.4790e+00
1.5163e+00
1.5148e+00
1.5568e+00
1.5455e+00
1.5880e+00
1.5748e+00
1.6177e+00
1.6166e+00
1.6489e+00
1.6396e+00
1.6757e+00
1.6618e+00
1.6974e+00
1.6812e+00
1.7158e+00
9.6616e-01
9.2601e-01
9.8889e-01
9.8960e-01
1.0326e+00
1.0797e+00
1.0752e+00
1.1414e+00
1.2010e+00
1.2250e+00
1.3225e+00
1.3591e+00
1.3625e+00
1.3976e+00
1.4029e+00
1.4371e+00
1.4420e+00
1.4793e+00
1.4785e+00
1.5158e+00
1.5143e+00
1.5564e+00
1.5451e+00
1.5876e+00
1.5744e+00
1.6173e+00
1.6161e+00
1.6485e+00
1.6391e+00
1.6753e+00
1.6614e+00
1.6970e+00
1.6808e+00
1.7154e+00
9.6536e-01
9.2541e-01
9.8819e-01
9.8896e-01
1.0321e+00
1.0792e+00
1.0747e+00
1.1409e+00
1.2005e+00
1.2245e+00
1.3219e+00
1.3585e+00
1.3619e+00
1.3971e+00
1.4023e+00
1.4365e+00
1.4415e+00
1.4788e+00
1.4780e+00
1.5154e+00
1.5139e+00
1.5560e+00
1.5447e+00
1.5872e+00
1.5740e+00
1.6169e+00
1.6156e+00
1.6481e+00
1.6386e+00
1.6749e+00
1.6609e+00
1.6966e+00
1.6803e+00
1.7150e+00
9.6456e-01
9.2481e-01
9.8748e-01
9.8833e-01
1.0315e+00
1.0787e+00
1.0741e+00
1.1404e+00
1.2000e+00
1.2240e+00
1.3157e+00
1.3151e+00
1.3613e+00
1.3965e+00
1.4018e+00
1.4360e+00
1.4410e+00
1.4784e+00
1.4776e+00
1.5150e+00
1.5134e+00
1.5555e+00
1.5443e+00
1.5867e+00
1.5736e+00
1.6165e+00
1.6151e+00
1.6477e+00
1.6382e+00
1.6745e+00
1.6605e+00
1.6962e+00
1.6799e+00
1.7147e+00
9.6374e-01
9.2421e-01
9.8678e-01
9.8768e-01
1.0309e+00
1.0782e+00
1.0736e+00
1.1399e+00
1.1996e+00
1.2234e+00
1.3151e+00
1.3146e+00
1.3607e+00
1.3959e+00
1.4012e+00
1.4355e+00
1.4405e+00
1.4779e+00
1.4771e+00
1.5145e+00
1.5130e+00
1.5551e+00
1.5438e+00
1.5863e+00
1.5732e+00
1.6161e+00
1.6146e+00
1.6473e+00
1.6377e+00
1.6741e+00
1.6600e+00
1.6958e+00
1.6794e+00
1.7143e+00
9.6293e-01
9.2360e-01
9.8606e-01
9.8704e-01
1.0304e+00
1.0777e+00
1.0730e+00
1.1394e+00
1.1991e+00
1.2229e+00
1.3145e+00
1.3140e+00
1.3601e+00
1.3954e+00
1.4007e+00
1.4350e+00
1.4400e+00
1.4774e+00
1.4766e+00
1.5141e+00
1.5125e+00
1.5502e+00
1.5434e+00
1.5859e+00
1.5728e+00
1.6157e+00
1.6142e+00
1.6469e+00
1.6372e+00
1.6737e+00
1.6595e+00
1.6954e+00
1.6790e+00
1.7139e+00
9.6210e-01
9.2299e-01
9.8535e-01
9.8640e-01
1.0298e+00
1.0771e+00
1.0725e+00
1.1389e+00
1.1986e+00
1.2224e+00
1.3138e+00
1.3135e+00
1.3595e+00
1.3948e+00
1.4001e+00
1.4377e+00
1.4395e+00
1.4770e+00
1.4761e+00
1.5136e+00
1.5121e+00
1.5498e+00
1.5430e+00
1.5855e+00
1.5724e+00
1.6153e+00
1.6137e+00
1.6465e+00
1.6367e+00
1.6733e+00
1.6591e+00
1.6951e+00
1.6781e+00
1.7135e+00
9.6127e-01
8.8890e-01
9.8462e-01
9.8575e-01
1.0292e+00
1.0766e+00
1.0719e+00
1.1384e+00
1.1808e+00
1.2218e+00
1.3132e+00
1.3130e+00
1.3589e+00
1.3943e+00
1.3996e+00
1.4372e+00
1.4390e+00
1.4765e+00
1.4756e+00
1.5132e+00
1.5116e+00
1.5493e+00
1.5425e+00
1.5851e+00
1.5720e+00
1.6149e+00
1.6132e+00
1.6460e+00
1.6363e+00
1.6729e+00
1.6586e+00
1.6947e+00
1.6776e+00
1.7132e+00
9.6044e-01
8.8832e-01
9.8390e-01
9.8510e-01
1.0286e+00
1.0761e+00
1.0714e+00
1.1379e+00
1.1803e+00
1.2213e+00
1.3125e+00
1.3124e+00
1.3583e+00
1.3937e+00
1.3990e+00
1.4366e+00
1.4385e+00
1.4760e+00
1.4752e+00
1.5128e+00
1.5112e+00
1.5489e+00
1.5421e+00
1.5847e+00
1.5715e+00
1.6146e+00
1.6127e+00
1.6456e+00
1.6358e+00
1.6725e+00
1.6582e+00
1.6943e+00
1.6772e+00
1.7128e+00
9.5960e-01
8.8775e-01
9.8317e-01
9.8444e-01
1.0280e+00
1.0756e+00
1.0709e+00
1.1374e+00
1.1798e+00
1.2208e+00
1.3119e+00
1.3119e+00
1.3577e+00
1.3931e+00
1.3985e+00
1.4361e+00
1.4379e+00
1.4755e+00
1.4747e+00
1.5123e+00
1.5107e+00
1.5485e+00
1.5417e+00
1.5843e+00
1.5711e+00
1.6142e+00
1.6122e+00
1.6452e+00
1.6353e+00
1.6722e+00
1.6577e+00
1.6939e+00
1.6767e+00
1.7124e+00
9.5875e-01
8.8717e-01
9.8244e-01
9.8379e-01
1.0275e+00
1.0750e+00
1.0703e+00
1.1369e+00
1.1793e+00
1.2203e+00
1.3112e+00
1.3114e+00
1.3571e+00
1.3926e+00
1.3979e+00
1.4356e+00
1.4374e+00
1.4751e+00
1.4742e+00
1.5119e+00
1.5103e+00
1.5481e+00
1.5412e+00
1.5839e+00
1.5707e+00
1.6138e+00
1.5961e+00
1.6396e+00
1.6348e+00
1.6718e+00
1.6572e+00
1.6935e+00
1.6763e+00
1.7120e+00
9.5789e-01
8.8658e-01
9.8170e-01
9.7811e-01
1.0269e+00
1.0745e+00
1.0698e+00
1.1364e+00
1.1788e+00
1.2197e+00
1.3106e+00
1.3108e+00
1.3565e+00
1.3920e+00
1.3974e+00
1.4351e+00
1.4369e+00
1.4746e+00
1.4737e+00
1.5114e+00
1.5098e+00
1.5477e+00
1.5408e+00
1.5834e+00
1.5703e+00
1.6134e+00
1.5957e+00
1.6392e+00
1.6344e+00
1.6714e+00
1.6568e+00
1.6931e+00
1.6758e+00
1.7117e+00
9.5621e-01
8.8134e-01
9.8096e-01
9.7747e-01
1.0263e+00
1.0740e+00
1.0692e+00
1.1359e+00
1.1783e+00
1.2192e+00
1.3100e+00
1.3103e+00
1.3559e+00
1.3915e+00
1.3968e+00
1.4346e+00
1.4364e+00
1.4741e+00
1.4732e+00
1.5110e+00
1.5094e+00
1.5473e+00
1.5404e+00
1.5830e+00
1.5699e+00
1.6130e+00
1.5953e+00
1.6388e+00
1.6339e+00
1.6710e+00
1.6563e+00
1.6927e+00
1.6754e+00
1.7113e+00
9.5534e-01
8.8074e-01
9.8021e-01
9.7683e-01
1.0257e+00
1.0734e+00
1.0686e+00
1.1354e+00
1.1777e+00
1.2187e+00
1.3093e+00
1.3098e+00
1.3553e+00
1.3909e+00